   6   6   0   0
  0.1333333E+04  0.2000000E-08  0.2000000E-08  0.2000000E-08  0.5000000E-15
  1.000000000000000E-004
  CAR 
 ethylene                                
      2.19188882    -20.76922323  301     -6.72467636      1.00000000
    -20.769  0.0000E+00  0.0000E+00
    -20.693  0.0000E+00  0.0000E+00
    -20.616  0.0000E+00  0.0000E+00
    -20.540  0.0000E+00  0.0000E+00
    -20.463  0.0000E+00  0.0000E+00
    -20.387  0.0000E+00  0.0000E+00
    -20.310  0.0000E+00  0.0000E+00
    -20.233  0.0000E+00  0.0000E+00
    -20.157  0.0000E+00  0.0000E+00
    -20.080  0.0000E+00  0.0000E+00
    -20.004  0.0000E+00  0.0000E+00
    -19.927  0.0000E+00  0.0000E+00
    -19.851  0.0000E+00  0.0000E+00
    -19.774  0.0000E+00  0.0000E+00
    -19.698  0.0000E+00  0.0000E+00
    -19.621  0.0000E+00  0.0000E+00
    -19.545  0.0000E+00  0.0000E+00
    -19.468  0.0000E+00  0.0000E+00
    -19.392  0.0000E+00  0.0000E+00
    -19.315  0.0000E+00  0.0000E+00
    -19.238  0.0000E+00  0.0000E+00
    -19.162  0.0000E+00  0.0000E+00
    -19.085  0.0000E+00  0.0000E+00
    -19.009  0.0000E+00  0.0000E+00
    -18.932  0.0000E+00  0.0000E+00
    -18.856  0.0000E+00  0.0000E+00
    -18.779  0.0000E+00  0.0000E+00
    -18.703  0.0000E+00  0.1000E-01
    -18.626  0.0000E+00  0.1000E-01
    -18.550  0.0000E+00  0.1000E-01
    -18.473  0.0000E+00  0.1000E-01
    -18.397  0.0000E+00  0.1000E-01
    -18.320  0.0000E+00  0.1000E-01
    -18.244  0.0000E+00  0.1000E-01
    -18.167  0.0000E+00  0.1000E-01
    -18.090  0.0000E+00  0.1000E-01
    -18.014  0.0000E+00  0.1000E-01
    -17.937  0.0000E+00  0.1000E-01
    -17.861  0.0000E+00  0.1000E-01
    -17.784  0.0000E+00  0.1000E-01
    -17.708  0.0000E+00  0.1000E-01
    -17.631  0.0000E+00  0.1000E-01
    -17.555  0.0000E+00  0.1000E-01
    -17.478  0.0000E+00  0.1000E-01
    -17.402  0.0000E+00  0.1000E-01
    -17.325  0.0000E+00  0.1000E-01
    -17.249  0.0000E+00  0.1000E-01
    -17.172  0.0000E+00  0.1000E-01
    -17.095  0.0000E+00  0.1000E-01
    -17.019  0.0000E+00  0.1000E-01
    -16.942  0.0000E+00  0.1000E-01
    -16.866  0.0000E+00  0.1000E-01
    -16.789  0.0000E+00  0.1000E-01
    -16.713  0.0000E+00  0.1000E-01
    -16.636  0.0000E+00  0.1000E-01
    -16.560  0.0000E+00  0.1000E-01
    -16.483  0.0000E+00  0.1000E-01
    -16.407  0.0000E+00  0.1000E-01
    -16.330  0.0000E+00  0.1000E-01
    -16.254  0.0000E+00  0.1000E-01
    -16.177  0.0000E+00  0.1000E-01
    -16.100  0.0000E+00  0.1000E-01
    -16.024  0.0000E+00  0.1000E-01
    -15.947  0.0000E+00  0.1000E-01
    -15.871  0.0000E+00  0.1000E-01
    -15.794  0.0000E+00  0.1000E-01
    -15.718  0.0000E+00  0.1000E-01
    -15.641  0.0000E+00  0.1000E-01
    -15.565  0.0000E+00  0.1000E-01
    -15.488  0.0000E+00  0.1000E-01
    -15.412  0.0000E+00  0.1000E-01
    -15.335  0.0000E+00  0.1000E-01
    -15.259  0.0000E+00  0.1000E-01
    -15.182  0.0000E+00  0.1000E-01
    -15.105  0.0000E+00  0.1000E-01
    -15.029  0.0000E+00  0.1000E-01
    -14.952  0.0000E+00  0.1000E-01
    -14.876  0.0000E+00  0.1000E-01
    -14.799  0.0000E+00  0.1000E-01
    -14.723  0.0000E+00  0.1000E-01
    -14.646  0.0000E+00  0.1000E-01
    -14.570  0.0000E+00  0.1000E-01
    -14.493  0.0000E+00  0.1000E-01
    -14.417  0.0000E+00  0.1000E-01
    -14.340  0.0000E+00  0.1000E-01
    -14.264  0.0000E+00  0.1000E-01
    -14.187  0.0000E+00  0.2000E-01
    -14.111  0.0000E+00  0.2000E-01
    -14.034  0.0000E+00  0.2000E-01
    -13.957  0.0000E+00  0.2000E-01
    -13.881  0.0000E+00  0.2000E-01
    -13.804  0.0000E+00  0.2000E-01
    -13.728  0.0000E+00  0.2000E-01
    -13.651  0.0000E+00  0.2000E-01
    -13.575  0.0000E+00  0.2000E-01
    -13.498  0.0000E+00  0.2000E-01
    -13.422  0.0000E+00  0.2000E-01
    -13.345  0.0000E+00  0.2000E-01
    -13.269  0.0000E+00  0.2000E-01
    -13.192  0.0000E+00  0.2000E-01
    -13.116  0.0000E+00  0.2000E-01
    -13.039  0.0000E+00  0.2000E-01
    -12.962  0.0000E+00  0.2000E-01
    -12.886  0.0000E+00  0.2000E-01
    -12.809  0.0000E+00  0.2000E-01
    -12.733  0.0000E+00  0.2000E-01
    -12.656  0.0000E+00  0.2000E-01
    -12.580  0.0000E+00  0.2000E-01
    -12.503  0.0000E+00  0.2000E-01
    -12.427  0.0000E+00  0.2000E-01
    -12.350  0.0000E+00  0.2000E-01
    -12.274  0.0000E+00  0.2000E-01
    -12.197  0.0000E+00  0.2000E-01
    -12.121  0.0000E+00  0.2000E-01
    -12.044  0.0000E+00  0.2000E-01
    -11.967  0.0000E+00  0.2000E-01
    -11.891  0.0000E+00  0.2000E-01
    -11.814  0.0000E+00  0.2000E-01
    -11.738  0.0000E+00  0.2000E-01
    -11.661  0.0000E+00  0.2000E-01
    -11.585  0.0000E+00  0.2000E-01
    -11.508  0.0000E+00  0.2000E-01
    -11.432  0.0000E+00  0.2000E-01
    -11.355  0.0000E+00  0.3000E-01
    -11.279  0.0000E+00  0.3000E-01
    -11.202  0.0000E+00  0.3000E-01
    -11.126  0.0000E+00  0.3000E-01
    -11.049  0.0000E+00  0.3000E-01
    -10.972  0.0000E+00  0.3000E-01
    -10.896  0.0000E+00  0.3000E-01
    -10.819  0.0000E+00  0.3000E-01
    -10.743  0.0000E+00  0.3000E-01
    -10.666  0.0000E+00  0.3000E-01
    -10.590  0.0000E+00  0.3000E-01
    -10.513  0.0000E+00  0.3000E-01
    -10.437  0.0000E+00  0.3000E-01
    -10.360  0.0000E+00  0.3000E-01
    -10.284  0.0000E+00  0.3000E-01
    -10.207  0.0000E+00  0.3000E-01
    -10.131  0.0000E+00  0.4000E-01
    -10.054  0.0000E+00  0.4000E-01
     -9.978  0.0000E+00  0.4000E-01
     -9.901  0.0000E+00  0.4000E-01
     -9.824  0.0000E+00  0.4000E-01
     -9.748  0.0000E+00  0.4000E-01
     -9.671  0.0000E+00  0.4000E-01
     -9.595  0.0000E+00  0.4000E-01
     -9.518  0.0000E+00  0.4000E-01
     -9.442  0.0000E+00  0.4000E-01
     -9.365  0.0000E+00  0.4000E-01
     -9.289  0.0000E+00  0.4000E-01
     -9.212  0.0000E+00  0.4000E-01
     -9.136  0.0000E+00  0.4000E-01
     -9.059  0.0000E+00  0.4000E-01
     -8.983  0.0000E+00  0.4000E-01
     -8.906  0.0000E+00  0.4000E-01
     -8.829  0.0000E+00  0.4000E-01
     -8.753  0.0000E+00  0.4000E-01
     -8.676  0.0000E+00  0.4000E-01
     -8.600  0.0000E+00  0.4000E-01
     -8.523  0.0000E+00  0.4000E-01
     -8.447  0.0000E+00  0.5000E-01
     -8.370  0.0000E+00  0.5000E-01
     -8.294  0.0000E+00  0.5000E-01
     -8.217  0.0000E+00  0.5000E-01
     -8.141  0.0000E+00  0.5000E-01
     -8.064  0.0000E+00  0.5000E-01
     -7.988  0.0000E+00  0.5000E-01
     -7.911  0.0000E+00  0.5000E-01
     -7.834  0.0000E+00  0.5000E-01
     -7.758  0.0000E+00  0.5000E-01
     -7.681  0.0000E+00  0.5000E-01
     -7.605  0.0000E+00  0.5000E-01
     -7.528  0.0000E+00  0.5000E-01
     -7.452  0.0000E+00  0.5000E-01
     -7.375  0.0000E+00  0.5000E-01
     -7.299  0.0000E+00  0.5000E-01
     -7.222  0.0000E+00  0.5000E-01
     -7.146  0.0000E+00  0.5000E-01
     -7.069  0.0000E+00  0.5000E-01
     -6.993  0.0000E+00  0.5000E-01
     -6.916  0.0000E+00  0.5000E-01
     -6.839  0.0000E+00  0.5000E-01
     -6.763  0.0000E+00  0.5000E-01
     -6.686  0.0000E+00  0.6000E-01
     -6.610  0.0000E+00  0.6000E-01
     -6.533  0.0000E+00  0.6000E-01
     -6.457  0.0000E+00  0.6000E-01
     -6.380  0.0000E+00  0.6000E-01
     -6.304  0.0000E+00  0.6000E-01
     -6.227  0.0000E+00  0.6000E-01
     -6.151  0.0000E+00  0.6000E-01
     -6.074  0.0000E+00  0.6000E-01
     -5.998  0.0000E+00  0.6000E-01
     -5.921  0.0000E+00  0.6000E-01
     -5.845  0.0000E+00  0.6000E-01
     -5.768  0.0000E+00  0.6000E-01
     -5.691  0.0000E+00  0.6000E-01
     -5.615  0.0000E+00  0.6000E-01
     -5.538  0.0000E+00  0.6000E-01
     -5.462  0.0000E+00  0.6000E-01
     -5.385  0.0000E+00  0.6000E-01
     -5.309  0.0000E+00  0.6000E-01
     -5.232  0.0000E+00  0.6000E-01
     -5.156  0.0000E+00  0.6000E-01
     -5.079  0.0000E+00  0.6000E-01
     -5.003  0.0000E+00  0.6000E-01
     -4.926  0.0000E+00  0.6000E-01
     -4.850  0.0000E+00  0.6000E-01
     -4.773  0.0000E+00  0.6000E-01
     -4.696  0.0000E+00  0.6000E-01
     -4.620  0.0000E+00  0.6000E-01
     -4.543  0.0000E+00  0.6000E-01
     -4.467  0.0000E+00  0.6000E-01
     -4.390  0.0000E+00  0.6000E-01
     -4.314  0.0000E+00  0.6000E-01
     -4.237  0.0000E+00  0.6000E-01
     -4.161  0.0000E+00  0.6000E-01
     -4.084  0.0000E+00  0.6000E-01
     -4.008  0.0000E+00  0.6000E-01
     -3.931  0.0000E+00  0.6000E-01
     -3.855  0.0000E+00  0.6000E-01
     -3.778  0.0000E+00  0.6000E-01
     -3.701  0.0000E+00  0.6000E-01
     -3.625  0.0000E+00  0.6000E-01
     -3.548  0.0000E+00  0.6000E-01
     -3.472  0.0000E+00  0.6000E-01
     -3.395  0.0000E+00  0.6000E-01
     -3.319  0.0000E+00  0.6000E-01
     -3.242  0.0000E+00  0.6000E-01
     -3.166  0.0000E+00  0.6000E-01
     -3.089  0.0000E+00  0.6000E-01
     -3.013  0.0000E+00  0.6000E-01
     -2.936  0.0000E+00  0.6000E-01
     -2.860  0.0000E+00  0.6000E-01
     -2.783  0.0000E+00  0.6000E-01
     -2.706  0.0000E+00  0.6000E-01
     -2.630  0.0000E+00  0.6000E-01
     -2.553  0.0000E+00  0.6000E-01
     -2.477  0.0000E+00  0.6000E-01
     -2.400  0.0000E+00  0.6000E-01
     -2.324  0.0000E+00  0.6000E-01
     -2.247  0.0000E+00  0.6000E-01
     -2.171  0.0000E+00  0.6000E-01
     -2.094  0.0000E+00  0.6000E-01
     -2.018  0.0000E+00  0.6000E-01
     -1.941  0.0000E+00  0.6000E-01
     -1.865  0.0000E+00  0.6000E-01
     -1.788  0.0000E+00  0.6000E-01
     -1.712  0.0000E+00  0.6000E-01
     -1.635  0.0000E+00  0.6000E-01
     -1.558  0.0000E+00  0.6000E-01
     -1.482  0.0000E+00  0.6000E-01
     -1.405  0.0000E+00  0.6000E-01
     -1.329  0.0000E+00  0.6000E-01
     -1.252  0.0000E+00  0.6000E-01
     -1.176  0.0000E+00  0.6000E-01
     -1.099  0.0000E+00  0.6000E-01
     -1.023  0.0000E+00  0.7000E-01
     -0.946  0.0000E+00  0.7000E-01
     -0.870  0.0000E+00  0.7000E-01
     -0.793  0.0000E+00  0.7000E-01
     -0.717  0.0000E+00  0.7000E-01
     -0.640  0.0000E+00  0.7000E-01
     -0.563  0.0000E+00  0.7000E-01
     -0.487  0.0000E+00  0.7000E-01
     -0.410  0.0000E+00  0.7000E-01
     -0.334  0.0000E+00  0.7000E-01
     -0.257  0.0000E+00  0.8000E-01
     -0.181  0.0000E+00  0.8000E-01
     -0.104  0.0000E+00  0.8000E-01
     -0.028  0.0000E+00  0.8000E-01
      0.049  0.3189E-01  0.8008E-01
      0.125  0.2462E+00  0.9382E-01
      0.202  0.0000E+00  0.1000E+00
      0.278  0.0000E+00  0.1000E+00
      0.355  0.0000E+00  0.1000E+00
      0.432  0.0000E+00  0.1000E+00
      0.508  0.0000E+00  0.1000E+00
      0.585  0.0000E+00  0.1000E+00
      0.661  0.0000E+00  0.1000E+00
      0.738  0.0000E+00  0.1000E+00
      0.814  0.0000E+00  0.1000E+00
      0.891  0.0000E+00  0.1000E+00
      0.967  0.0000E+00  0.1000E+00
      1.044  0.0000E+00  0.1000E+00
      1.120  0.0000E+00  0.1000E+00
      1.197  0.0000E+00  0.1000E+00
      1.273  0.0000E+00  0.1000E+00
      1.350  0.0000E+00  0.1000E+00
      1.427  0.0000E+00  0.1000E+00
      1.503  0.0000E+00  0.1000E+00
      1.580  0.0000E+00  0.1000E+00
      1.656  0.0000E+00  0.1000E+00
      1.733  0.0000E+00  0.1000E+00
      1.809  0.0000E+00  0.1000E+00
      1.886  0.0000E+00  0.1000E+00
      1.962  0.0000E+00  0.1000E+00
      2.039  0.0000E+00  0.1000E+00
      2.115  0.0000E+00  0.1000E+00
      2.192  0.0000E+00  0.1000E+00
