    6    6  200    1
  0.1333333E+04  0.2000000E-08  0.2000000E-08  0.2000000E-08  0.5000000E-15
  1.000000000000000E-004
  CAR 
 ethylene                                
     12    172     10
 
  0.0000000E+00  0.0000000E+00  0.0000000E+00  0.2915452E-02
    1      -18.769223
    2      -14.206886
    3      -11.394889
    4      -10.188178
    5       -8.452834
    6       -6.754747
    7       -1.075576
    8       -0.318120
    9        0.111471
   10        0.132989
 
  0.1428571E+00  0.0000000E+00  0.0000000E+00  0.5830904E-02
    1      -18.769223
    2      -14.206886
    3      -11.394890
    4      -10.188178
    5       -8.452834
    6       -6.754748
    7       -1.075573
    8       -0.316817
    9        0.089151
   10        0.153374
 
  0.2857143E+00  0.0000000E+00  0.0000000E+00  0.5830904E-02
    1      -18.769223
    2      -14.206886
    3      -11.394890
    4      -10.188179
    5       -8.452834
    6       -6.754749
    7       -1.075566
    8       -0.313796
    9        0.061194
   10        0.180980
 
  0.4285714E+00  0.0000000E+00  0.0000000E+00  0.5830904E-02
    1      -18.769223
    2      -14.206886
    3      -11.394891
    4      -10.188180
    5       -8.452834
    6       -6.754749
    7       -1.075561
    8       -0.311275
    9        0.043891
   10        0.191889
 
  0.0000000E+00  0.1428571E+00  0.0000000E+00  0.5830904E-02
    1      -18.769223
    2      -14.206886
    3      -11.394890
    4      -10.188178
    5       -8.452834
    6       -6.754748
    7       -1.075575
    8       -0.316821
    9        0.096149
   10        0.143974
 
  0.1428571E+00  0.1428571E+00  0.0000000E+00  0.5830904E-02
    1      -18.769223
    2      -14.206886
    3      -11.394889
    4      -10.188179
    5       -8.452834
    6       -6.754747
    7       -1.075571
    8       -0.315546
    9        0.077822
   10        0.167873
 
  0.2857143E+00  0.1428571E+00  0.0000000E+00  0.5830904E-02
    1      -18.769223
    2      -14.206886
    3      -11.394890
    4      -10.188180
    5       -8.452834
    6       -6.754748
    7       -1.075565
    8       -0.312614
    9        0.058611
   10        0.174617
 
  0.4285714E+00  0.1428571E+00  0.0000000E+00  0.5830904E-02
    1      -18.769223
    2      -14.206886
    3      -11.394890
    4      -10.188179
    5       -8.452834
    6       -6.754748
    7       -1.075559
    8       -0.310180
    9        0.046654
   10        0.177135
 
 -0.4285714E+00  0.1428571E+00  0.0000000E+00  0.5830904E-02
    1      -18.769223
    2      -14.206886
    3      -11.394890
    4      -10.188179
    5       -8.452834
    6       -6.754748
    7       -1.075559
    8       -0.310192
    9        0.050195
   10        0.164995
 
 -0.2857143E+00  0.1428571E+00  0.0000000E+00  0.5830904E-02
    1      -18.769223
    2      -14.206886
    3      -11.394890
    4      -10.188179
    5       -8.452834
    6       -6.754749
    7       -1.075565
    8       -0.312641
    9        0.070962
   10        0.140939
 
 -0.1428571E+00  0.1428571E+00  0.0000000E+00  0.5830904E-02
    1      -18.769222
    2      -14.206886
    3      -11.394890
    4      -10.188178
    5       -8.452833
    6       -6.754749
    7       -1.075571
    8       -0.315566
    9        0.101508
   10        0.121082
 
  0.0000000E+00  0.2857143E+00  0.0000000E+00  0.5830904E-02
    1      -18.769223
    2      -14.206886
    3      -11.394891
    4      -10.188179
    5       -8.452834
    6       -6.754749
    7       -1.075571
    8       -0.313816
    9        0.072845
   10        0.157623
 
  0.1428571E+00  0.2857143E+00  0.0000000E+00  0.5830904E-02
    1      -18.769223
    2      -14.206886
    3      -11.394890
    4      -10.188179
    5       -8.452834
    6       -6.754748
    7       -1.075568
    8       -0.312629
    9        0.066101
   10        0.162115
 
  0.2857143E+00  0.2857143E+00  0.0000000E+00  0.5830904E-02
    1      -18.769223
    2      -14.206886
    3      -11.394890
    4      -10.188180
    5       -8.452834
    6       -6.754748
    7       -1.075562
    8       -0.309914
    9        0.059908
   10        0.154908
 
  0.4285714E+00  0.2857143E+00  0.0000000E+00  0.5830904E-02
    1      -18.769223
    2      -14.206886
    3      -11.394891
    4      -10.188180
    5       -8.452835
    6       -6.754749
    7       -1.075557
    8       -0.307671
    9        0.055716
   10        0.152199
 
 -0.4285714E+00  0.2857143E+00  0.0000000E+00  0.5830904E-02
    1      -18.769223
    2      -14.206886
    3      -11.394891
    4      -10.188180
    5       -8.452835
    6       -6.754749
    7       -1.075556
    8       -0.307688
    9        0.062910
   10        0.134200
 
 -0.2857143E+00  0.2857143E+00  0.0000000E+00  0.5830904E-02
    1      -18.769223
    2      -14.206886
    3      -11.394891
    4      -10.188179
    5       -8.452834
    6       -6.754749
    7       -1.075561
    8       -0.309949
    9        0.085750
   10        0.107611
 
 -0.1428571E+00  0.2857143E+00  0.0000000E+00  0.5830904E-02
    1      -18.769223
    2      -14.206886
    3      -11.394890
    4      -10.188179
    5       -8.452834
    6       -6.754749
    7       -1.075569
    8       -0.312655
    9        0.085357
   10        0.122454
 
  0.0000000E+00  0.4285714E+00  0.0000000E+00  0.5830904E-02
    1      -18.769223
    2      -14.206886
    3      -11.394891
    4      -10.188179
    5       -8.452834
    6       -6.754749
    7       -1.075569
    8       -0.311311
    9        0.057219
   10        0.165460
 
  0.1428571E+00  0.4285714E+00  0.0000000E+00  0.5830904E-02
    1      -18.769223
    2      -14.206886
    3      -11.394890
    4      -10.188178
    5       -8.452834
    6       -6.754749
    7       -1.075565
    8       -0.310211
    9        0.058683
   10        0.154807
 
  0.2857143E+00  0.4285714E+00  0.0000000E+00  0.5830904E-02
    1      -18.769223
    2      -14.206886
    3      -11.394891
    4      -10.188180
    5       -8.452835
    6       -6.754749
    7       -1.075559
    8       -0.307687
    9        0.063445
   10        0.137948
 
  0.4285714E+00  0.4285714E+00  0.0000000E+00  0.5830904E-02
    1      -18.769223
    2      -14.206886
    3      -11.394890
    4      -10.188180
    5       -8.452834
    6       -6.754748
    7       -1.075554
    8       -0.305602
    9        0.064667
   10        0.138109
 
 -0.4285714E+00  0.4285714E+00  0.0000000E+00  0.5830904E-02
    1      -18.769223
    2      -14.206886
    3      -11.394890
    4      -10.188180
    5       -8.452834
    6       -6.754749
    7       -1.075554
    8       -0.305610
    9        0.069478
   10        0.127346
 
 -0.2857143E+00  0.4285714E+00  0.0000000E+00  0.5830904E-02
    1      -18.769223
    2      -14.206886
    3      -11.394891
    4      -10.188180
    5       -8.452834
    6       -6.754749
    7       -1.075559
    8       -0.307704
    9        0.074486
   10        0.117331
 
 -0.1428571E+00  0.4285714E+00  0.0000000E+00  0.5830904E-02
    1      -18.769223
    2      -14.206886
    3      -11.394891
    4      -10.188178
    5       -8.452834
    6       -6.754748
    7       -1.075565
    8       -0.310223
    9        0.064222
   10        0.141189
 
  0.0000000E+00  0.0000000E+00  0.1428571E+00  0.5830904E-02
    1      -18.769223
    2      -14.206886
    3      -11.394890
    4      -10.188178
    5       -8.452834
    6       -6.754748
    7       -1.075576
    8       -0.316740
    9        0.099428
   10        0.135887
 
  0.1428571E+00  0.0000000E+00  0.1428571E+00  0.5830904E-02
    1      -18.769223
    2      -14.206886
    3      -11.394890
    4      -10.188178
    5       -8.452833
    6       -6.754747
    7       -1.075573
    8       -0.315467
    9        0.083335
   10        0.145374
 
  0.2857143E+00  0.0000000E+00  0.1428571E+00  0.5830904E-02
    1      -18.769223
    2      -14.206886
    3      -11.394891
    4      -10.188180
    5       -8.452834
    6       -6.754748
    7       -1.075566
    8       -0.312537
    9        0.062101
   10        0.155757
 
  0.4285714E+00  0.0000000E+00  0.1428571E+00  0.5830904E-02
    1      -18.769223
    2      -14.206886
    3      -11.394890
    4      -10.188180
    5       -8.452833
    6       -6.754749
    7       -1.075560
    8       -0.310103
    9        0.048092
   10        0.166519
 
 -0.4285714E+00  0.0000000E+00  0.1428571E+00  0.5830904E-02
    1      -18.769223
    2      -14.206886
    3      -11.394890
    4      -10.188179
    5       -8.452834
    6       -6.754748
    7       -1.075561
    8       -0.310113
    9        0.049887
   10        0.164308
 
 -0.2857143E+00  0.0000000E+00  0.1428571E+00  0.5830904E-02
    1      -18.769223
    2      -14.206886
    3      -11.394890
    4      -10.188179
    5       -8.452834
    6       -6.754749
    7       -1.075566
    8       -0.312559
    9        0.068198
   10        0.147088
 
 -0.1428571E+00  0.0000000E+00  0.1428571E+00  0.5830904E-02
    1      -18.769223
    2      -14.206886
    3      -11.394890
    4      -10.188177
    5       -8.452834
    6       -6.754748
    7       -1.075573
    8       -0.315484
    9        0.093903
   10        0.131717
 
  0.0000000E+00  0.1428571E+00  0.1428571E+00  0.5830904E-02
    1      -18.769223
    2      -14.206886
    3      -11.394889
    4      -10.188178
    5       -8.452833
    6       -6.754748
    7       -1.075575
    8       -0.315500
    9        0.095273
   10        0.145657
 
  0.1428571E+00  0.1428571E+00  0.1428571E+00  0.5830904E-02
    1      -18.769223
    2      -14.206886
    3      -11.394890
    4      -10.188179
    5       -8.452834
    6       -6.754748
    7       -1.075571
    8       -0.314253
    9        0.077535
   10        0.156053
 
  0.2857143E+00  0.1428571E+00  0.1428571E+00  0.5830904E-02
    1      -18.769223
    2      -14.206886
    3      -11.394891
    4      -10.188180
    5       -8.452834
    6       -6.754748
    7       -1.075565
    8       -0.311405
    9        0.060502
   10        0.165958
 
  0.4285714E+00  0.1428571E+00  0.1428571E+00  0.5830904E-02
    1      -18.769223
    2      -14.206886
    3      -11.394891
    4      -10.188179
    5       -8.452834
    6       -6.754749
    7       -1.075559
    8       -0.309051
    9        0.050637
   10        0.174978
 
 -0.4285714E+00  0.1428571E+00  0.1428571E+00  0.5830904E-02
    1      -18.769223
    2      -14.206886
    3      -11.394891
    4      -10.188179
    5       -8.452834
    6       -6.754749
    7       -1.075559
    8       -0.309073
    9        0.055804
   10        0.174578
 
 -0.2857143E+00  0.1428571E+00  0.1428571E+00  0.5830904E-02
    1      -18.769223
    2      -14.206886
    3      -11.394891
    4      -10.188180
    5       -8.452834
    6       -6.754749
    7       -1.075565
    8       -0.311452
    9        0.078135
   10        0.142575
 
 -0.1428571E+00  0.1428571E+00  0.1428571E+00  0.5830904E-02
    1      -18.769223
    2      -14.206886
    3      -11.394889
    4      -10.188178
    5       -8.452834
    6       -6.754749
    7       -1.075572
    8       -0.314288
    9        0.109221
   10        0.120351
 
  0.0000000E+00  0.2857143E+00  0.1428571E+00  0.5830904E-02
    1      -18.769223
    2      -14.206886
    3      -11.394890
    4      -10.188178
    5       -8.452834
    6       -6.754749
    7       -1.075571
    8       -0.312592
    9        0.078625
   10        0.153387
 
  0.1428571E+00  0.2857143E+00  0.1428571E+00  0.5830904E-02
    1      -18.769223
    2      -14.206886
    3      -11.394890
    4      -10.188179
    5       -8.452834
    6       -6.754749
    7       -1.075569
    8       -0.311429
    9        0.070448
   10        0.151378
 
  0.2857143E+00  0.2857143E+00  0.1428571E+00  0.5830904E-02
    1      -18.769223
    2      -14.206886
    3      -11.394890
    4      -10.188179
    5       -8.452834
    6       -6.754748
    7       -1.075562
    8       -0.308786
    9        0.063231
   10        0.154325
 
  0.4285714E+00  0.2857143E+00  0.1428571E+00  0.5830904E-02
    1      -18.769223
    2      -14.206886
    3      -11.394890
    4      -10.188180
    5       -8.452834
    6       -6.754749
    7       -1.075556
    8       -0.306612
    9        0.059413
   10        0.158560
 
 -0.4285714E+00  0.2857143E+00  0.1428571E+00  0.5830904E-02
    1      -18.769223
    2      -14.206886
    3      -11.394891
    4      -10.188180
    5       -8.452834
    6       -6.754749
    7       -1.075556
    8       -0.306637
    9        0.067500
   10        0.144769
 
 -0.2857143E+00  0.2857143E+00  0.1428571E+00  0.5830904E-02
    1      -18.769223
    2      -14.206886
    3      -11.394890
    4      -10.188179
    5       -8.452834
    6       -6.754748
    7       -1.075561
    8       -0.308840
    9        0.090424
   10        0.118547
 
 -0.1428571E+00  0.2857143E+00  0.1428571E+00  0.5830904E-02
    1      -18.769223
    2      -14.206886
    3      -11.394890
    4      -10.188179
    5       -8.452834
    6       -6.754750
    7       -1.075569
    8       -0.311470
    9        0.091664
   10        0.132599
 
  0.0000000E+00  0.4285714E+00  0.1428571E+00  0.5830904E-02
    1      -18.769223
    2      -14.206886
    3      -11.394890
    4      -10.188178
    5       -8.452834
    6       -6.754748
    7       -1.075569
    8       -0.310154
    9        0.063440
   10        0.155253
 
  0.1428571E+00  0.4285714E+00  0.1428571E+00  0.5830904E-02
    1      -18.769223
    2      -14.206886
    3      -11.394890
    4      -10.188179
    5       -8.452834
    6       -6.754749
    7       -1.075566
    8       -0.309074
    9        0.064505
   10        0.142950
 
  0.2857143E+00  0.4285714E+00  0.1428571E+00  0.5830904E-02
    1      -18.769223
    2      -14.206886
    3      -11.394890
    4      -10.188179
    5       -8.452834
    6       -6.754749
    7       -1.075559
    8       -0.306612
    9        0.067911
   10        0.135096
 
  0.4285714E+00  0.4285714E+00  0.1428571E+00  0.5830904E-02
    1      -18.769223
    2      -14.206886
    3      -11.394890
    4      -10.188180
    5       -8.452834
    6       -6.754748
    7       -1.075554
    8       -0.304587
    9        0.068294
   10        0.140673
 
 -0.4285714E+00  0.4285714E+00  0.1428571E+00  0.5830904E-02
    1      -18.769223
    2      -14.206886
    3      -11.394891
    4      -10.188180
    5       -8.452834
    6       -6.754749
    7       -1.075554
    8       -0.304603
    9        0.073320
   10        0.134803
 
 -0.2857143E+00  0.4285714E+00  0.1428571E+00  0.5830904E-02
    1      -18.769223
    2      -14.206886
    3      -11.394891
    4      -10.188180
    5       -8.452834
    6       -6.754748
    7       -1.075559
    8       -0.306647
    9        0.078809
   10        0.127487
 
 -0.1428571E+00  0.4285714E+00  0.1428571E+00  0.5830904E-02
    1      -18.769223
    2      -14.206886
    3      -11.394890
    4      -10.188179
    5       -8.452834
    6       -6.754749
    7       -1.075565
    8       -0.309100
    9        0.070028
   10        0.151298
 
  0.0000000E+00 -0.4285714E+00  0.1428571E+00  0.5830904E-02
    1      -18.769223
    2      -14.206886
    3      -11.394890
    4      -10.188178
    5       -8.452834
    6       -6.754748
    7       -1.075568
    8       -0.310130
    9        0.061956
   10        0.149191
 
  0.1428571E+00 -0.4285714E+00  0.1428571E+00  0.5830904E-02
    1      -18.769223
    2      -14.206886
    3      -11.394890
    4      -10.188179
    5       -8.452834
    6       -6.754749
    7       -1.075566
    8       -0.309063
    9        0.069020
   10        0.129792
 
  0.2857143E+00 -0.4285714E+00  0.1428571E+00  0.5830904E-02
    1      -18.769223
    2      -14.206886
    3      -11.394890
    4      -10.188179
    5       -8.452834
    6       -6.754749
    7       -1.075559
    8       -0.306607
    9        0.078718
   10        0.113837
 
  0.4285714E+00 -0.4285714E+00  0.1428571E+00  0.5830904E-02
    1      -18.769223
    2      -14.206886
    3      -11.394890
    4      -10.188180
    5       -8.452834
    6       -6.754749
    7       -1.075553
    8       -0.304575
    9        0.073111
   10        0.127012
 
 -0.4285714E+00 -0.4285714E+00  0.1428571E+00  0.5830904E-02
    1      -18.769223
    2      -14.206886
    3      -11.394890
    4      -10.188180
    5       -8.452834
    6       -6.754749
    7       -1.075554
    8       -0.304577
    9        0.069048
   10        0.138882
 
 -0.2857143E+00 -0.4285714E+00  0.1428571E+00  0.5830904E-02
    1      -18.769223
    2      -14.206886
    3      -11.394890
    4      -10.188179
    5       -8.452834
    6       -6.754749
    7       -1.075559
    8       -0.306610
    9        0.067989
   10        0.141617
 
 -0.1428571E+00 -0.4285714E+00  0.1428571E+00  0.5830904E-02
    1      -18.769223
    2      -14.206886
    3      -11.394891
    4      -10.188179
    5       -8.452834
    6       -6.754748
    7       -1.075565
    8       -0.309065
    9        0.063274
   10        0.153939
 
  0.0000000E+00 -0.2857143E+00  0.1428571E+00  0.5830904E-02
    1      -18.769223
    2      -14.206886
    3      -11.394891
    4      -10.188179
    5       -8.452834
    6       -6.754748
    7       -1.075571
    8       -0.312540
    9        0.074440
   10        0.138521
 
  0.1428571E+00 -0.2857143E+00  0.1428571E+00  0.5830904E-02
    1      -18.769223
    2      -14.206886
    3      -11.394891
    4      -10.188179
    5       -8.452834
    6       -6.754749
    7       -1.075569
    8       -0.311405
    9        0.085668
   10        0.115257
 
  0.2857143E+00 -0.2857143E+00  0.1428571E+00  0.5830904E-02
    1      -18.769223
    2      -14.206886
    3      -11.394890
    4      -10.188179
    5       -8.452834
    6       -6.754749
    7       -1.075562
    8       -0.308775
    9        0.086861
   10        0.105380
 
  0.4285714E+00 -0.2857143E+00  0.1428571E+00  0.5830904E-02
    1      -18.769223
    2      -14.206886
    3      -11.394890
    4      -10.188180
    5       -8.452834
    6       -6.754748
    7       -1.075556
    8       -0.306587
    9        0.066904
   10        0.129511
 
 -0.4285714E+00 -0.2857143E+00  0.1428571E+00  0.5830904E-02
    1      -18.769223
    2      -14.206886
    3      -11.394890
    4      -10.188180
    5       -8.452834
    6       -6.754749
    7       -1.075556
    8       -0.306580
    9        0.061032
   10        0.144167
 
 -0.2857143E+00 -0.2857143E+00  0.1428571E+00  0.5830904E-02
    1      -18.769223
    2      -14.206886
    3      -11.394890
    4      -10.188179
    5       -8.452834
    6       -6.754748
    7       -1.075561
    8       -0.308760
    9        0.065031
   10        0.145529
 
 -0.1428571E+00 -0.2857143E+00  0.1428571E+00  0.5830904E-02
    1      -18.769223
    2      -14.206886
    3      -11.394891
    4      -10.188179
    5       -8.452835
    6       -6.754748
    7       -1.075568
    8       -0.311395
    9        0.069480
   10        0.147178
 
  0.0000000E+00 -0.1428571E+00  0.1428571E+00  0.5830904E-02
    1      -18.769223
    2      -14.206886
    3      -11.394891
    4      -10.188178
    5       -8.452834
    6       -6.754747
    7       -1.075574
    8       -0.315460
    9        0.091236
   10        0.131912
 
  0.1428571E+00 -0.1428571E+00  0.1428571E+00  0.5830904E-02
    1      -18.769223
    2      -14.206886
    3      -11.394891
    4      -10.188178
    5       -8.452834
    6       -6.754748
    7       -1.075572
    8       -0.314234
    9        0.090759
   10        0.123178
 
  0.2857143E+00 -0.1428571E+00  0.1428571E+00  0.5830904E-02
    1      -18.769223
    2      -14.206886
    3      -11.394891
    4      -10.188180
    5       -8.452834
    6       -6.754749
    7       -1.075565
    8       -0.311396
    9        0.071205
   10        0.132562
 
  0.4285714E+00 -0.1428571E+00  0.1428571E+00  0.5830904E-02
    1      -18.769223
    2      -14.206886
    3      -11.394890
    4      -10.188180
    5       -8.452834
    6       -6.754749
    7       -1.075560
    8       -0.309031
    9        0.054414
   10        0.149216
 
 -0.4285714E+00 -0.1428571E+00  0.1428571E+00  0.5830904E-02
    1      -18.769223
    2      -14.206886
    3      -11.394890
    4      -10.188180
    5       -8.452834
    6       -6.754749
    7       -1.075560
    8       -0.309029
    9        0.052569
   10        0.154891
 
 -0.2857143E+00 -0.1428571E+00  0.1428571E+00  0.5830904E-02
    1      -18.769223
    2      -14.206886
    3      -11.394890
    4      -10.188180
    5       -8.452834
    6       -6.754749
    7       -1.075565
    8       -0.311392
    9        0.064816
   10        0.146335
 
 -0.1428571E+00 -0.1428571E+00  0.1428571E+00  0.5830904E-02
    1      -18.769223
    2      -14.206886
    3      -11.394891
    4      -10.188179
    5       -8.452834
    6       -6.754748
    7       -1.075571
    8       -0.314231
    9        0.081068
   10        0.138527
 
  0.0000000E+00  0.0000000E+00  0.2857143E+00  0.5830904E-02
    1      -18.769223
    2      -14.206886
    3      -11.394891
    4      -10.188179
    5       -8.452834
    6       -6.754748
    7       -1.075576
    8       -0.313542
    9        0.075945
   10        0.141102
 
  0.1428571E+00  0.0000000E+00  0.2857143E+00  0.5830904E-02
    1      -18.769223
    2      -14.206886
    3      -11.394891
    4      -10.188179
    5       -8.452834
    6       -6.754748
    7       -1.075573
    8       -0.312359
    9        0.072904
   10        0.135122
 
  0.2857143E+00  0.0000000E+00  0.2857143E+00  0.5830904E-02
    1      -18.769223
    2      -14.206886
    3      -11.394891
    4      -10.188180
    5       -8.452834
    6       -6.754748
    7       -1.075567
    8       -0.309651
    9        0.067443
   10        0.128938
 
  0.4285714E+00  0.0000000E+00  0.2857143E+00  0.5830904E-02
    1      -18.769223
    2      -14.206886
    3      -11.394891
    4      -10.188180
    5       -8.452834
    6       -6.754749
    7       -1.075562
    8       -0.307411
    9        0.060266
   10        0.134357
 
 -0.4285714E+00  0.0000000E+00  0.2857143E+00  0.5830904E-02
    1      -18.769223
    2      -14.206886
    3      -11.394890
    4      -10.188180
    5       -8.452835
    6       -6.754749
    7       -1.075562
    8       -0.307425
    9        0.064398
   10        0.127615
 
 -0.2857143E+00  0.0000000E+00  0.2857143E+00  0.5830904E-02
    1      -18.769223
    2      -14.206886
    3      -11.394890
    4      -10.188179
    5       -8.452834
    6       -6.754749
    7       -1.075566
    8       -0.309680
    9        0.082592
   10        0.108704
 
 -0.1428571E+00  0.0000000E+00  0.2857143E+00  0.5830904E-02
    1      -18.769223
    2      -14.206886
    3      -11.394891
    4      -10.188178
    5       -8.452834
    6       -6.754749
    7       -1.075573
    8       -0.312382
    9        0.084305
   10        0.119771
 
  0.0000000E+00  0.1428571E+00  0.2857143E+00  0.5830904E-02
    1      -18.769223
    2      -14.206886
    3      -11.394890
    4      -10.188179
    5       -8.452834
    6       -6.754749
    7       -1.075575
    8       -0.312400
    9        0.081830
   10        0.135372
 
  0.1428571E+00  0.1428571E+00  0.2857143E+00  0.5830904E-02
    1      -18.769223
    2      -14.206886
    3      -11.394891
    4      -10.188179
    5       -8.452834
    6       -6.754748
    7       -1.075572
    8       -0.311239
    9        0.075489
   10        0.130738
 
  0.2857143E+00  0.1428571E+00  0.2857143E+00  0.5830904E-02
    1      -18.769223
    2      -14.206886
    3      -11.394890
    4      -10.188179
    5       -8.452834
    6       -6.754748
    7       -1.075565
    8       -0.308600
    9        0.067896
   10        0.133525
 
  0.4285714E+00  0.1428571E+00  0.2857143E+00  0.5830904E-02
    1      -18.769223
    2      -14.206886
    3      -11.394891
    4      -10.188179
    5       -8.452834
    6       -6.754749
    7       -1.075560
    8       -0.306429
    9        0.062416
   10        0.142106
 
 -0.4285714E+00  0.1428571E+00  0.2857143E+00  0.5830904E-02
    1      -18.769223
    2      -14.206886
    3      -11.394891
    4      -10.188179
    5       -8.452834
    6       -6.754749
    7       -1.075559
    8       -0.306454
    9        0.069327
   10        0.135641
 
 -0.2857143E+00  0.1428571E+00  0.2857143E+00  0.5830904E-02
    1      -18.769223
    2      -14.206886
    3      -11.394891
    4      -10.188179
    5       -8.452834
    6       -6.754748
    7       -1.075565
    8       -0.308652
    9        0.092086
   10        0.113607
 
 -0.1428571E+00  0.1428571E+00  0.2857143E+00  0.5830904E-02
    1      -18.769223
    2      -14.206886
    3      -11.394891
    4      -10.188179
    5       -8.452834
    6       -6.754750
    7       -1.075572
    8       -0.311278
    9        0.093161
   10        0.125327
 
  0.0000000E+00  0.2857143E+00  0.2857143E+00  0.5830904E-02
    1      -18.769223
    2      -14.206886
    3      -11.394891
    4      -10.188179
    5       -8.452834
    6       -6.754749
    7       -1.075571
    8       -0.309714
    9        0.087912
   10        0.119301
 
  0.1428571E+00  0.2857143E+00  0.2857143E+00  0.5830904E-02
    1      -18.769223
    2      -14.206886
    3      -11.394891
    4      -10.188178
    5       -8.452834
    6       -6.754748
    7       -1.075568
    8       -0.308625
    9        0.079651
   10        0.123940
 
  0.2857143E+00  0.2857143E+00  0.2857143E+00  0.5830904E-02
    1      -18.769223
    2      -14.206886
    3      -11.394891
    4      -10.188179
    5       -8.452834
    6       -6.754749
    7       -1.075562
    8       -0.306162
    9        0.073029
   10        0.135290
 
  0.4285714E+00  0.2857143E+00  0.2857143E+00  0.5830904E-02
    1      -18.769223
    2      -14.206886
    3      -11.394891
    4      -10.188180
    5       -8.452834
    6       -6.754748
    7       -1.075556
    8       -0.304145
    9        0.070175
   10        0.146902
 
 -0.4285714E+00  0.2857143E+00  0.2857143E+00  0.5830904E-02
    1      -18.769223
    2      -14.206886
    3      -11.394891
    4      -10.188180
    5       -8.452834
    6       -6.754749
    7       -1.075556
    8       -0.304171
    9        0.078530
   10        0.147337
 
 -0.2857143E+00  0.2857143E+00  0.2857143E+00  0.5830904E-02
    1      -18.769223
    2      -14.206886
    3      -11.394891
    4      -10.188180
    5       -8.452835
    6       -6.754749
    7       -1.075562
    8       -0.306220
    9        0.099260
   10        0.130132
 
 -0.1428571E+00  0.2857143E+00  0.2857143E+00  0.5830904E-02
    1      -18.769223
    2      -14.206886
    3      -11.394890
    4      -10.188179
    5       -8.452834
    6       -6.754748
    7       -1.075568
    8       -0.308669
    9        0.100776
   10        0.121392
 
  0.0000000E+00  0.4285714E+00  0.2857143E+00  0.5830904E-02
    1      -18.769223
    2      -14.206886
    3      -11.394891
    4      -10.188179
    5       -8.452834
    6       -6.754749
    7       -1.075569
    8       -0.307461
    9        0.079105
   10        0.123778
 
  0.1428571E+00  0.4285714E+00  0.2857143E+00  0.5830904E-02
    1      -18.769223
    2      -14.206886
    3      -11.394891
    4      -10.188179
    5       -8.452834
    6       -6.754749
    7       -1.075566
    8       -0.306445
    9        0.078989
   10        0.122430
 
  0.2857143E+00  0.4285714E+00  0.2857143E+00  0.5830904E-02
    1      -18.769223
    2      -14.206886
    3      -11.394891
    4      -10.188179
    5       -8.452834
    6       -6.754749
    7       -1.075559
    8       -0.304138
    9        0.079298
   10        0.128347
 
  0.4285714E+00  0.4285714E+00  0.2857143E+00  0.5830904E-02
    1      -18.769223
    2      -14.206886
    3      -11.394891
    4      -10.188181
    5       -8.452834
    6       -6.754749
    7       -1.075554
    8       -0.302246
    9        0.077996
   10        0.139368
 
 -0.4285714E+00  0.4285714E+00  0.2857143E+00  0.5830904E-02
    1      -18.769223
    2      -14.206886
    3      -11.394891
    4      -10.188180
    5       -8.452835
    6       -6.754749
    7       -1.075554
    8       -0.302265
    9        0.082697
   10        0.140954
 
 -0.2857143E+00  0.4285714E+00  0.2857143E+00  0.5830904E-02
    1      -18.769223
    2      -14.206886
    3      -11.394890
    4      -10.188180
    5       -8.452835
    6       -6.754749
    7       -1.075559
    8       -0.304177
    9        0.089554
   10        0.136570
 
 -0.1428571E+00  0.4285714E+00  0.2857143E+00  0.5830904E-02
    1      -18.769223
    2      -14.206886
    3      -11.394891
    4      -10.188179
    5       -8.452834
    6       -6.754748
    7       -1.075566
    8       -0.306475
    9        0.084599
   10        0.131361
 
  0.0000000E+00 -0.4285714E+00  0.2857143E+00  0.5830904E-02
    1      -18.769223
    2      -14.206886
    3      -11.394891
    4      -10.188180
    5       -8.452834
    6       -6.754749
    7       -1.075569
    8       -0.307430
    9        0.075650
   10        0.123279
 
  0.1428571E+00 -0.4285714E+00  0.2857143E+00  0.5830904E-02
    1      -18.769223
    2      -14.206886
    3      -11.394890
    4      -10.188179
    5       -8.452834
    6       -6.754749
    7       -1.075566
    8       -0.306426
    9        0.082427
   10        0.115176
 
  0.2857143E+00 -0.4285714E+00  0.2857143E+00  0.5830904E-02
    1      -18.769223
    2      -14.206886
    3      -11.394890
    4      -10.188179
    5       -8.452834
    6       -6.754749
    7       -1.075559
    8       -0.304125
    9        0.089314
   10        0.111988
 
  0.4285714E+00 -0.4285714E+00  0.2857143E+00  0.5830904E-02
    1      -18.769223