 vasp.5.3.5 31Mar14 (build Nov 02 2014 15:17:37) complex                        
  
 executed on        ion-Intel-MKL date 2016.10.19  19:25:24
 running on    1 total cores
 distrk:  each k-point on    1 cores,    1 groups
 distr:  one band on NCORES_PER_BAND=   1 cores,    1 groups


--------------------------------------------------------------------------------------------------------


 INCAR:
 POTCAR:   PAW_PBE C 08Apr2002                    
 POTCAR:   PAW_PBE C 08Apr2002                    
   VRHFIN =C: s2p2                                                              
   LEXCH  = PE                                                                  
   EATOM  =   147.1560 eV,   10.8157 Ry                                         
                                                                                
   TITEL  = PAW_PBE C 08Apr2002                                                 
   LULTRA =        F    use ultrasoft PP ?                                      
   IUNSCR =        0    unscreen: 0-lin 1-nonlin 2-no                           
   RPACOR =     .000    partial core radius                                     
   POMASS =   12.011; ZVAL   =    4.000    mass and valenz                      
   RCORE  =    1.500    outmost cutoff radius                                   
   RWIGS  =    1.630; RWIGS  =     .863    wigner-seitz radius (au A)           
   ENMAX  =  400.000; ENMIN  =  300.000 eV                                      
   ICORE  =        2    local potential                                         
   LCOR   =        T    correct aug charges                                     
   LPAW   =        T    paw PP                                                  
   EAUG   =  644.873                                                            
   DEXC   =     .000                                                            
   RMAX   =    2.266    core radius for proj-oper                               
   RAUG   =    1.300    factor for augmentation sphere                          
   RDEP   =    1.501    radius for radial grids                                 
   RDEPT  =    1.300    core radius for aug-charge                              
   QCUT   =   -5.516; QGAM   =   11.032    optimization parameters              
                                                                                
   Description                                                                  
     l     E      TYP  RCUT    TYP  RCUT                                        
     0   .000     23  1.200                                                     
     0   .000     23  1.200                                                     
     1   .000     23  1.500                                                     
     1  2.500     23  1.500                                                     
     2   .000      7  1.500                                                     
  local pseudopotential read in
  atomic valenz-charges read in
  non local Contribution for L=           0  read in
    real space projection operators read in
  non local Contribution for L=           0  read in
    real space projection operators read in
  non local Contribution for L=           1  read in
    real space projection operators read in
  non local Contribution for L=           1  read in
    real space projection operators read in
    PAW grid and wavefunctions read in
 
   number of l-projection  operators is LMAX  =           4
   number of lm-projection operators is LMMAX =           8
 
 PAW_PBE C 08Apr2002                    :
 energy of atom  1       EATOM= -147.1560
 kinetic energy error for atom=    0.0016 (will be added to EATOM!!)
 
 
 POSCAR: CIF file                                
  positions in direct lattice
  velocities in cartesian coordinates
 exchange correlation table for  LEXCH =        8
   RHO(1)=    0.500       N(1)  =     2000
   RHO(2)=  100.500       N(2)  =     4000
 


--------------------------------------------------------------------------------------------------------


 ion  position               nearest neighbor table
   1  0.999  0.001  0.083-   2 1.42   2 1.42   2 1.42
   2  0.333  0.667  0.083-   1 1.42   1 1.42   1 1.42
 
  LATTYP: Found a base centered orthorhombic cell.
 ALAT       =     2.4647749720
 B/A-ratio  =     1.7336082085
 C/A-ratio  =     8.1143310150
  
  Lattice vectors:
  
 A1 = (   2.4664373398,   0.0000000000,   0.0000000000)
 A2 = (  -1.2348804775,   2.1350370857,   0.0000000000)
 A3 = (   0.0000000000,   0.0000000000,  20.0000000000)


Analysis of symmetry for initial positions (statically):
=====================================================================
 Subroutine PRICEL returns:
 Original cell was already a primitive cell.
 

 Routine SETGRP: Setting up the symmetry group for a 
 base centered orthorhombic supercell.


 Subroutine GETGRP returns: Found  8 space group operations
 (whereof  2 operations were pure point group operations)
 out of a pool of  8 trial point group operations.


The static configuration has the point symmetry C_1h.
 The point group associated with its full space group is D_2h.


Analysis of symmetry for dynamics (positions and initial velocities):
=====================================================================
 Subroutine PRICEL returns:
 Original cell was already a primitive cell.
 

 Routine SETGRP: Setting up the symmetry group for a 
 base centered orthorhombic supercell.


 Subroutine GETGRP returns: Found  8 space group operations
 (whereof  2 operations were pure point group operations)
 out of a pool of  8 trial point group operations.


The dynamic configuration has the point symmetry C_1h.
 The point group associated with its full space group is D_2h.
 
 
 KPOINTS: B4C B11C-CBC                            

Automatic generation of k-mesh.
Space group operators:
 irot       det(A)        alpha          n_x          n_y          n_z        tau_x        tau_y        tau_z
    1     1.000000     0.000000     1.000000     0.000000     0.000000     0.000000     0.000000     0.000000
    2    -1.000000   180.000000    -0.499663    -0.866220     0.000000     0.000000     0.000000     0.000000
    3    -1.000000     0.000000     1.000000     0.000000     0.000000     0.331932     0.668069     0.165794
    4     1.000000   180.000000     0.000000     0.000000     1.000000     0.331932     0.668069     0.000000
    5    -1.000000   180.000000     0.000000     0.000000     1.000000     0.000000     0.000000     0.165794
    6     1.000000   180.000000     0.866220    -0.499663     0.000000     0.000000     0.000000     0.165794
    7    -1.000000   180.000000     0.866220    -0.499663     0.000000     0.331932     0.668069     0.000000
    8     1.000000   180.000000    -0.499663    -0.866220     0.000000     0.331932     0.668069     0.165794
 
 Subroutine IBZKPT returns following result:
 ===========================================
 
 Found    215 irreducible k-points:
 
 Following reciprocal coordinates:
            Coordinates               Weight
  0.000000  0.000000  0.000000      1.000000
  0.083333  0.000000  0.000000      4.000000
  0.166667  0.000000  0.000000      4.000000
  0.250000  0.000000  0.000000      4.000000
  0.333333  0.000000  0.000000      4.000000
  0.416667  0.000000  0.000000      4.000000
  0.500000  0.000000  0.000000      2.000000
  0.083333  0.083333  0.000000      2.000000
  0.166667  0.083333  0.000000      4.000000
  0.250000  0.083333  0.000000      4.000000
  0.333333  0.083333  0.000000      4.000000
  0.416667  0.083333  0.000000      4.000000
  0.500000  0.083333  0.000000      4.000000
 -0.416667  0.083333  0.000000      4.000000
 -0.333333  0.083333  0.000000      4.000000
 -0.250000  0.083333  0.000000      4.000000
 -0.166667  0.083333  0.000000      4.000000
 -0.083333  0.083333  0.000000      2.000000
  0.166667  0.166667  0.000000      2.000000
  0.250000  0.166667  0.000000      4.000000
  0.333333  0.166667  0.000000      4.000000
  0.416667  0.166667  0.000000      4.000000
  0.500000  0.166667  0.000000      4.000000
 -0.416667  0.166667  0.000000      4.000000
 -0.333333  0.166667  0.000000      4.000000
 -0.250000  0.166667  0.000000      4.000000
 -0.166667  0.166667  0.000000      2.000000
  0.250000  0.250000  0.000000      2.000000
  0.333333  0.250000  0.000000      4.000000
  0.416667  0.250000  0.000000      4.000000
  0.500000  0.250000  0.000000      4.000000
 -0.416667  0.250000  0.000000      4.000000
 -0.333333  0.250000  0.000000      4.000000
 -0.250000  0.250000  0.000000      2.000000
  0.333333  0.333333  0.000000      2.000000
  0.416667  0.333333  0.000000      4.000000
  0.500000  0.333333  0.000000      4.000000
 -0.416667  0.333333  0.000000      4.000000
 -0.333333  0.333333  0.000000      2.000000
  0.416667  0.416667  0.000000      2.000000
  0.500000  0.416667  0.000000      4.000000
 -0.416667  0.416667  0.000000      2.000000
  0.500000  0.500000  0.000000      1.000000
  0.000000  0.000000  0.125000      2.000000
  0.083333  0.000000  0.125000      8.000000
  0.166667  0.000000  0.125000      8.000000
  0.250000  0.000000  0.125000      8.000000
  0.333333  0.000000  0.125000      8.000000
  0.416667  0.000000  0.125000      8.000000
  0.500000  0.000000  0.125000      4.000000
  0.083333  0.083333  0.125000      4.000000
  0.166667  0.083333  0.125000      8.000000
  0.250000  0.083333  0.125000      8.000000
  0.333333  0.083333  0.125000      8.000000
  0.416667  0.083333  0.125000      8.000000
  0.500000  0.083333  0.125000      8.000000
 -0.416667  0.083333  0.125000      8.000000
 -0.333333  0.083333  0.125000      8.000000
 -0.250000  0.083333  0.125000      8.000000
 -0.166667  0.083333  0.125000      8.000000
 -0.083333  0.083333  0.125000      4.000000
  0.166667  0.166667  0.125000      4.000000
  0.250000  0.166667  0.125000      8.000000
  0.333333  0.166667  0.125000      8.000000
  0.416667  0.166667  0.125000      8.000000
  0.500000  0.166667  0.125000      8.000000
 -0.416667  0.166667  0.125000      8.000000
 -0.333333  0.166667  0.125000      8.000000
 -0.250000  0.166667  0.125000      8.000000
 -0.166667  0.166667  0.125000      4.000000
  0.250000  0.250000  0.125000      4.000000
  0.333333  0.250000  0.125000      8.000000
  0.416667  0.250000  0.125000      8.000000
  0.500000  0.250000  0.125000      8.000000
 -0.416667  0.250000  0.125000      8.000000
 -0.333333  0.250000  0.125000      8.000000
 -0.250000  0.250000  0.125000      4.000000
  0.333333  0.333333  0.125000      4.000000
  0.416667  0.333333  0.125000      8.000000
  0.500000  0.333333  0.125000      8.000000
 -0.416667  0.333333  0.125000      8.000000
 -0.333333  0.333333  0.125000      4.000000
  0.416667  0.416667  0.125000      4.000000
  0.500000  0.416667  0.125000      8.000000
 -0.416667  0.416667  0.125000      4.000000
  0.500000  0.500000  0.125000      2.000000
  0.000000  0.000000  0.250000      2.000000
  0.083333  0.000000  0.250000      8.000000
  0.166667  0.000000  0.250000      8.000000
  0.250000  0.000000  0.250000      8.000000
  0.333333  0.000000  0.250000      8.000000
  0.416667  0.000000  0.250000      8.000000
  0.500000  0.000000  0.250000      4.000000
  0.083333  0.083333  0.250000      4.000000
  0.166667  0.083333  0.250000      8.000000
  0.250000  0.083333  0.250000      8.000000
  0.333333  0.083333  0.250000      8.000000
  0.416667  0.083333  0.250000      8.000000
  0.500000  0.083333  0.250000      8.000000
 -0.416667  0.083333  0.250000      8.000000
 -0.333333  0.083333  0.250000      8.000000
 -0.250000  0.083333  0.250000      8.000000
 -0.166667  0.083333  0.250000      8.000000
 -0.083333  0.083333  0.250000      4.000000
  0.166667  0.166667  0.250000      4.000000
  0.250000  0.166667  0.250000      8.000000
  0.333333  0.166667  0.250000      8.000000
  0.416667  0.166667  0.250000      8.000000
  0.500000  0.166667  0.250000      8.000000
 -0.416667  0.166667  0.250000      8.000000
 -0.333333  0.166667  0.250000      8.000000
 -0.250000  0.166667  0.250000      8.000000
 -0.166667  0.166667  0.250000      4.000000
  0.250000  0.250000  0.250000      4.000000
  0.333333  0.250000  0.250000      8.000000
  0.416667  0.250000  0.250000      8.000000
  0.500000  0.250000  0.250000      8.000000
 -0.416667  0.250000  0.250000      8.000000
 -0.333333  0.250000  0.250000      8.000000
 -0.250000  0.250000  0.250000      4.000000
  0.333333  0.333333  0.250000      4.000000
  0.416667  0.333333  0.250000      8.000000
  0.500000  0.333333  0.250000      8.000000
 -0.416667  0.333333  0.250000      8.000000
 -0.333333  0.333333  0.250000      4.000000
  0.416667  0.416667  0.250000      4.000000
  0.500000  0.416667  0.250000      8.000000
 -0.416667  0.416667  0.250000      4.000000
  0.500000  0.500000  0.250000      2.000000
  0.000000  0.000000  0.375000      2.000000
  0.083333  0.000000  0.375000      8.000000
  0.166667  0.000000  0.375000      8.000000
  0.250000  0.000000  0.375000      8.000000
  0.333333  0.000000  0.375000      8.000000
  0.416667  0.000000  0.375000      8.000000
  0.500000  0.000000  0.375000      4.000000
  0.083333  0.083333  0.375000      4.000000
  0.166667  0.083333  0.375000      8.000000
  0.250000  0.083333  0.375000      8.000000
  0.333333  0.083333  0.375000      8.000000
  0.416667  0.083333  0.375000      8.000000
  0.500000  0.083333  0.375000      8.000000
 -0.416667  0.083333  0.375000      8.000000
 -0.333333  0.083333  0.375000      8.000000
 -0.250000  0.083333  0.375000      8.000000
 -0.166667  0.083333  0.375000      8.000000
 -0.083333  0.083333  0.375000      4.000000
  0.166667  0.166667  0.375000      4.000000
  0.250000  0.166667  0.375000      8.000000
  0.333333  0.166667  0.375000      8.000000
  0.416667  0.166667  0.375000      8.000000
  0.500000  0.166667  0.375000      8.000000
 -0.416667  0.166667  0.375000      8.000000
 -0.333333  0.166667  0.375000      8.000000
 -0.250000  0.166667  0.375000      8.000000
 -0.166667  0.166667  0.375000      4.000000
  0.250000  0.250000  0.375000      4.000000
  0.333333  0.250000  0.375000      8.000000
  0.416667  0.250000  0.375000      8.000000
  0.500000  0.250000  0.375000      8.000000
 -0.416667  0.250000  0.375000      8.000000
 -0.333333  0.250000  0.375000      8.000000
 -0.250000  0.250000  0.375000      4.000000
  0.333333  0.333333  0.375000      4.000000
  0.416667  0.333333  0.375000      8.000000
  0.500000  0.333333  0.375000      8.000000
 -0.416667  0.333333  0.375000      8.000000
 -0.333333  0.333333  0.375000      4.000000
  0.416667  0.416667  0.375000      4.000000
  0.500000  0.416667  0.375000      8.000000
 -0.416667  0.416667  0.375000      4.000000
  0.500000  0.500000  0.375000      2.000000
  0.000000  0.000000  0.500000      1.000000
  0.083333  0.000000  0.500000      4.000000
  0.166667  0.000000  0.500000      4.000000
  0.250000  0.000000  0.500000      4.000000
  0.333333  0.000000  0.500000      4.000000
  0.416667  0.000000  0.500000      4.000000
  0.500000  0.000000  0.500000      2.000000
  0.083333  0.083333  0.500000      2.000000
  0.166667  0.083333  0.500000      4.000000
  0.250000  0.083333  0.500000      4.000000
  0.333333  0.083333  0.500000      4.000000
  0.416667  0.083333  0.500000      4.000000
  0.500000  0.083333  0.500000      4.000000
 -0.416667  0.083333  0.500000      4.000000
 -0.333333  0.083333  0.500000      4.000000
 -0.250000  0.083333  0.500000      4.000000
 -0.166667  0.083333  0.500000      4.000000
 -0.083333  0.083333  0.500000      2.000000
  0.166667  0.166667  0.500000      2.000000
  0.250000  0.166667  0.500000      4.000000
  0.333333  0.166667  0.500000      4.000000
  0.416667  0.166667  0.500000      4.000000
  0.500000  0.166667  0.500000      4.000000
 -0.416667  0.166667  0.500000      4.000000
 -0.333333  0.166667  0.500000      4.000000
 -0.250000  0.166667  0.500000      4.000000
 -0.166667  0.166667  0.500000      2.000000
  0.250000  0.250000  0.500000      2.000000
  0.333333  0.250000  0.500000      4.000000
  0.416667  0.250000  0.500000      4.000000
  0.500000  0.250000  0.500000      4.000000
 -0.416667  0.250000  0.500000      4.000000
 -0.333333  0.250000  0.500000      4.000000
 -0.250000  0.250000  0.500000      2.000000
  0.333333  0.333333  0.500000      2.000000
  0.416667  0.333333  0.500000      4.000000
  0.500000  0.333333  0.500000      4.000000
 -0.416667  0.333333  0.500000      4.000000
 -0.333333  0.333333  0.500000      2.000000
  0.416667  0.416667  0.500000      2.000000
  0.500000  0.416667  0.500000      4.000000
 -0.416667  0.416667  0.500000      2.000000
  0.500000  0.500000  0.500000      1.000000
 
 Following cartesian coordinates:
            Coordinates               Weight
  0.000000  0.000000  0.000000      1.000000
  0.033787  0.019542  0.000000      4.000000
  0.067574  0.039084  0.000000      4.000000
  0.101361  0.058626  0.000000      4.000000
  0.135148  0.078168  0.000000      4.000000
  0.168935  0.097710  0.000000      4.000000
  0.202722  0.117252  0.000000      2.000000
  0.033787  0.058573  0.000000      2.000000
  0.067574  0.078115  0.000000      4.000000
  0.101361  0.097657  0.000000      4.000000
  0.135148  0.117199  0.000000      4.000000
  0.168935  0.136741  0.000000      4.000000
  0.202722  0.156283  0.000000      4.000000
 -0.168935 -0.058678  0.000000      4.000000
 -0.135148 -0.039137  0.000000      4.000000
 -0.101361 -0.019595  0.000000      4.000000
 -0.067574 -0.000053  0.000000      4.000000
 -0.033787  0.019489  0.000000      2.000000
  0.067574  0.117147  0.000000      2.000000
  0.101361  0.136689  0.000000      4.000000
  0.135148  0.156231  0.000000      4.000000
  0.168935  0.175772  0.000000      4.000000
  0.202722  0.195314  0.000000      4.000000
 -0.168935 -0.019647  0.000000      4.000000
 -0.135148 -0.000105  0.000000      4.000000
 -0.101361  0.019437  0.000000      4.000000
 -0.067574  0.038979  0.000000      2.000000
  0.101361  0.175720  0.000000      2.000000
  0.135148  0.195262  0.000000      4.000000
  0.168935  0.214804  0.000000      4.000000
  0.202722  0.234346  0.000000      4.000000
 -0.168935  0.019384  0.000000      4.000000
 -0.135148  0.038926  0.000000      4.000000
 -0.101361  0.058468  0.000000      2.000000
  0.135148  0.234293  0.000000      2.000000
  0.168935  0.253835  0.000000      4.000000
  0.202722  0.273377  0.000000      4.000000
 -0.168935  0.058416  0.000000      4.000000
 -0.135148  0.077957  0.000000      2.000000
  0.168935  0.292866  0.000000      2.000000
  0.202722  0.312408  0.000000      4.000000
 -0.168935  0.097447  0.000000      2.000000
  0.202722  0.351440  0.000000      1.000000
  0.000000  0.000000  0.006250      2.000000
  0.033787  0.019542  0.006250      8.000000
  0.067574  0.039084  0.006250      8.000000
  0.101361  0.058626  0.006250      8.000000
  0.135148  0.078168  0.006250      8.000000
  0.168935  0.097710  0.006250      8.000000
  0.202722  0.117252  0.006250      4.000000
  0.033787  0.058573  0.006250      4.000000
  0.067574  0.078115  0.006250      8.000000
  0.101361  0.097657  0.006250      8.000000
  0.135148  0.117199  0.006250      8.000000
  0.168935  0.136741  0.006250      8.000000
  0.202722  0.156283  0.006250      8.000000
 -0.168935 -0.058678  0.006250      8.000000
 -0.135148 -0.039137  0.006250      8.000000
 -0.101361 -0.019595  0.006250      8.000000
 -0.067574 -0.000053  0.006250      8.000000
 -0.033787  0.019489  0.006250      4.000000
  0.067574  0.117147  0.006250      4.000000
  0.101361  0.136689  0.006250      8.000000
  0.135148  0.156231  0.006250      8.000000
  0.168935  0.175772  0.006250      8.000000
  0.202722  0.195314  0.006250      8.000000
 -0.168935 -0.019647  0.006250      8.000000
 -0.135148 -0.000105  0.006250      8.000000
 -0.101361  0.019437  0.006250      8.000000
 -0.067574  0.038979  0.006250      4.000000
  0.101361  0.175720  0.006250      4.000000
  0.135148  0.195262  0.006250      8.000000
  0.168935  0.214804  0.006250      8.000000
  0.202722  0.234346  0.006250      8.000000
 -0.168935  0.019384  0.006250      8.000000
 -0.135148  0.038926  0.006250      8.000000
 -0.101361  0.058468  0.006250      4.000000
  0.135148  0.234293  0.006250      4.000000
  0.168935  0.253835  0.006250      8.000000
  0.202722  0.273377  0.006250      8.000000
 -0.168935  0.058416  0.006250      8.000000
 -0.135148  0.077957  0.006250      4.000000
  0.168935  0.292866  0.006250      4.000000
  0.202722  0.312408  0.006250      8.000000
 -0.168935  0.097447  0.006250      4.000000
  0.202722  0.351440  0.006250      2.000000
  0.000000  0.000000  0.012500      2.000000
  0.033787  0.019542  0.012500      8.000000
  0.067574  0.039084  0.012500      8.000000
  0.101361  0.058626  0.012500      8.000000
  0.135148  0.078168  0.012500      8.000000
  0.168935  0.097710  0.012500      8.000000
  0.202722  0.117252  0.012500      4.000000
  0.033787  0.058573  0.012500      4.000000
  0.067574  0.078115  0.012500      8.000000
  0.101361  0.097657  0.012500      8.000000
  0.135148  0.117199  0.012500      8.000000
  0.168935  0.136741  0.012500      8.000000
  0.202722  0.156283  0.012500      8.000000
 -0.168935 -0.058678  0.012500      8.000000
 -0.135148 -0.039137  0.012500      8.000000
 -0.101361 -0.019595  0.012500      8.000000
 -0.067574 -0.000053  0.012500      8.000000
 -0.033787  0.019489  0.012500      4.000000
  0.067574  0.117147  0.012500      4.000000
  0.101361  0.136689  0.012500      8.000000
  0.135148  0.156231  0.012500      8.000000
  0.168935  0.175772  0.012500      8.000000
  0.202722  0.195314  0.012500      8.000000
 -0.168935 -0.019647  0.012500      8.000000
 -0.135148 -0.000105  0.012500      8.000000
 -0.101361  0.019437  0.012500      8.000000
 -0.067574  0.038979  0.012500      4.000000
  0.101361  0.175720  0.012500      4.000000
  0.135148  0.195262  0.012500      8.000000
  0.168935  0.214804  0.012500      8.000000
  0.202722  0.234346  0.012500      8.000000
 -0.168935  0.019384  0.012500      8.000000
 -0.135148  0.038926  0.012500      8.000000
 -0.101361  0.058468  0.012500      4.000000
  0.135148  0.234293  0.012500      4.000000
  0.168935  0.253835  0.012500      8.000000
  0.202722  0.273377  0.012500      8.000000
 -0.168935  0.058416  0.012500      8.000000
 -0.135148  0.077957  0.012500      4.000000
  0.168935  0.292866  0.012500      4.000000
  0.202722  0.312408  0.012500      8.000000
 -0.168935  0.097447  0.012500      4.000000
  0.202722  0.351440  0.012500      2.000000
  0.000000  0.000000  0.018750      2.000000
  0.033787  0.019542  0.018750      8.000000
  0.067574  0.039084  0.018750      8.000000
  0.101361  0.058626  0.018750      8.000000
  0.135148  0.078168  0.018750      8.000000
  0.168935  0.097710  0.018750      8.000000
  0.202722  0.117252  0.018750      4.000000
  0.033787  0.058573  0.018750      4.000000
  0.067574  0.078115  0.018750      8.000000
  0.101361  0.097657  0.018750      8.000000
  0.135148  0.117199  0.018750      8.000000
  0.168935  0.136741  0.018750      8.000000
  0.202722  0.156283  0.018750      8.000000
 -0.168935 -0.058678  0.018750      8.000000
 -0.135148 -0.039137  0.018750      8.000000
 -0.101361 -0.019595  0.018750      8.000000
 -0.067574 -0.000053  0.018750      8.000000
 -0.033787  0.019489  0.018750      4.000000
  0.067574  0.117147  0.018750      4.000000
  0.101361  0.136689  0.018750      8.000000
  0.135148  0.156231  0.018750      8.000000
  0.168935  0.175772  0.018750      8.000000
  0.202722  0.195314  0.018750      8.000000
 -0.168935 -0.019647  0.018750      8.000000
 -0.135148 -0.000105  0.018750      8.000000
 -0.101361  0.019437  0.018750      8.000000
 -0.067574  0.038979  0.018750      4.000000
  0.101361  0.175720  0.018750      4.000000
  0.135148  0.195262  0.018750      8.000000
  0.168935  0.214804  0.018750      8.000000
  0.202722  0.234346  0.018750      8.000000
 -0.168935  0.019384  0.018750      8.000000
 -0.135148  0.038926  0.018750      8.000000
 -0.101361  0.058468  0.018750      4.000000
  0.135148  0.234293  0.018750      4.000000
  0.168935  0.253835  0.018750      8.000000
  0.202722  0.273377  0.018750      8.000000
 -0.168935  0.058416  0.018750      8.000000
 -0.135148  0.077957  0.018750      4.000000
  0.168935  0.292866  0.018750      4.000000
  0.202722  0.312408  0.018750      8.000000
 -0.168935  0.097447  0.018750      4.000000
  0.202722  0.351440  0.018750      2.000000
  0.000000  0.000000  0.025000      1.000000
  0.033787  0.019542  0.025000      4.000000
  0.067574  0.039084  0.025000      4.000000
  0.101361  0.058626  0.025000      4.000000
  0.135148  0.078168  0.025000      4.000000
  0.168935  0.097710  0.025000      4.000000
  0.202722  0.117252  0.025000      2.000000
  0.033787  0.058573  0.025000      2.000000
  0.067574  0.078115  0.025000      4.000000
  0.101361  0.097657  0.025000      4.000000
  0.135148  0.117199  0.025000      4.000000
  0.168935  0.136741  0.025000      4.000000
  0.202722  0.156283  0.025000      4.000000
 -0.168935 -0.058678  0.025000      4.000000
 -0.135148 -0.039137  0.025000      4.000000
 -0.101361 -0.019595  0.025000      4.000000
 -0.067574 -0.000053  0.025000      4.000000
 -0.033787  0.019489  0.025000      2.000000
  0.067574  0.117147  0.025000      2.000000
  0.101361  0.136689  0.025000      4.000000
  0.135148  0.156231  0.025000      4.000000
  0.168935  0.175772  0.025000      4.000000
  0.202722  0.195314  0.025000      4.000000
 -0.168935 -0.019647  0.025000      4.000000
 -0.135148 -0.000105  0.025000      4.000000
 -0.101361  0.019437  0.025000      4.000000
 -0.067574  0.038979  0.025000      2.000000
  0.101361  0.175720  0.025000      2.000000
  0.135148  0.195262  0.025000      4.000000
  0.168935  0.214804  0.025000      4.000000
  0.202722  0.234346  0.025000      4.000000
 -0.168935  0.019384  0.025000      4.000000
 -0.135148  0.038926  0.025000      4.000000
 -0.101361  0.058468  0.025000      2.000000
  0.135148  0.234293  0.025000      2.000000
  0.168935  0.253835  0.025000      4.000000
  0.202722  0.273377  0.025000      4.000000
 -0.168935  0.058416  0.025000      4.000000
 -0.135148  0.077957  0.025000      2.000000
  0.168935  0.292866  0.025000      2.000000
  0.202722  0.312408  0.025000      4.000000
 -0.168935  0.097447  0.025000      2.000000
  0.202722  0.351440  0.025000      1.000000
 
 TETIRR: Found   1728 inequivalent tetrahedra from     6912


--------------------------------------------------------------------------------------------------------




 Dimension of arrays:
   k-points           NKPTS =    215   k-points in BZ     NKDIM =    215   number of bands    NBANDS=      8
   number of dos      NEDOS =    301   number of ions     NIONS =      2
   non local maximal  LDIM  =      4   non local SUM 2l+1 LMDIM =      8
   total plane-waves  NPLWV = 110592
   max r-space proj   IRMAX =      1   max aug-charges    IRDMAX=  12590
   dimension x,y,z NGX =    24 NGY =   24 NGZ =  192
   dimension x,y,z NGXF=    48 NGYF=   48 NGZF=  384
   support grid    NGXF=    48 NGYF=   48 NGZF=  384
   ions per type =               2
 NGX,Y,Z   is equivalent  to a cutoff of  16.18, 16.18, 15.96 a.u.
 NGXF,Y,Z  is equivalent  to a cutoff of  32.35, 32.35, 31.92 a.u.


 I would recommend the setting:
   dimension x,y,z NGX =    23 NGY =   23 NGZ =  184
 SYSTEM =  graphite                                
 POSCAR =  CIF file                                

 Startparameter for this run:
   NWRITE =      2    write-flag & timer
   PREC   = accura    normal or accurate (medium, high low for compatibility)
   ISTART =      0    job   : 0-new  1-cont  2-samecut
   ICHARG =      2    charge: 1-file 2-atom 10-const
   ISPIN  =      1    spin polarized calculation?
   LNONCOLLINEAR =      F non collinear calculations
   LSORBIT =      F    spin-orbit coupling
   INIWAV =      1    electr: 0-lowe 1-rand  2-diag
   LASPH  =      F    aspherical Exc in radial PAW
   METAGGA=      F    non-selfconsistent MetaGGA calc.

 Electronic Relaxation 1
   ENCUT  =  800.0 eV  58.80 Ry    7.67 a.u.   5.69  5.69 46.12*2*pi/ulx,y,z
   ENINI  =  800.0     initial cutoff
   ENAUG  =  644.9 eV  augmentation charge cutoff
   NELM   =    200;   NELMIN=  2; NELMDL=  0     # of ELM steps 
   EDIFF  = 0.1E-07   stopping-criterion for ELM
   LREAL  =      F    real-space projection
   NLSPLINE    = F    spline interpolate recip. space projectors
   LCOMPAT=      F    compatible to vasp.4.4
   GGA_COMPAT  = T    GGA compatible to vasp.4.4-vasp.4.6
   LMAXPAW     = -100 max onsite density
   LMAXMIX     =    2 max onsite mixed and CHGCAR
   VOSKOWN=      0    Vosko Wilk Nusair interpolation
   ROPT   =    0.00000
 Ionic relaxation
   EDIFFG = 0.1E-02   stopping-criterion for IOM
   NSW    =      0    number of steps for IOM
   NBLOCK =      1;   KBLOCK =      1    inner block; outer block 
   IBRION =     -1    ionic relax: 0-MD 1-quasi-New 2-CG
   NFREE  =      0    steps in history (QN), initial steepest desc. (CG)
   ISIF   =      2    stress and relaxation
   IWAVPR =     10    prediction:  0-non 1-charg 2-wave 3-comb
   ISYM   =      2    0-nonsym 1-usesym 2-fastsym
   LCORR  =      T    Harris-Foulkes like correction to forces

   POTIM  = 0.5000    time-step for ionic-motion
   TEIN   =    0.0    initial temperature
   TEBEG  =    0.0;   TEEND  =   0.0 temperature during run
   SMASS  =  -3.00    Nose mass-parameter (am)
   estimated Nose-frequenzy (Omega)   =  0.10E-29 period in steps =****** mass=  -0.139E-27a.u.
   SCALEE = 1.0000    scale energy and forces
   NPACO  =    256;   APACO  = 16.0  distance and # of slots for P.C.
   PSTRESS=    0.0 pullay stress

  Mass of Ions in am
   POMASS =  12.01
  Ionic Valenz
   ZVAL   =   4.00
  Atomic Wigner-Seitz radii
   RWIGS  =  -1.00
  virtual crystal weights 
   VCA    =   1.00
   NELECT =       8.0000    total number of electrons
   NUPDOWN=      -1.0000    fix difference up-down

 DOS related values:
   EMIN   =  10.00;   EMAX   =-10.00  energy-range for DOS
   EFERMI =   0.00
   ISMEAR =    -5;   SIGMA  =   0.20  broadening in eV -4-tet -1-fermi 0-gaus

 Electronic relaxation 2 (details)
   IALGO  =     38    algorithm
   LDIAG  =      T    sub-space diagonalisation (order eigenvalues)
   LSUBROT=      F    optimize rotation matrix (better conditioning)
   TURBO    =      0    0=normal 1=particle mesh
   IRESTART =      0    0=no restart 2=restart with 2 vectors
   NREBOOT  =      0    no. of reboots
   NMIN     =      0    reboot dimension
   EREF     =   0.00    reference energy to select bands
   IMIX   =      4    mixing-type and parameters
     AMIX     =   0.40;   BMIX     =  1.00
     AMIX_MAG =   1.60;   BMIX_MAG =  1.00
     AMIN     =   0.10
     WC   =   100.;   INIMIX=   1;  MIXPRE=   1;  MAXMIX= -45

 Intra band minimization:
   WEIMIN = 0.0000     energy-eigenvalue tresh-hold
   EBREAK =  0.31E-09  absolut break condition
   DEPER  =   0.30     relativ break condition  

   TIME   =   0.40     timestep for ELM

  volume/ion in A,a.u.               =      52.66       355.36
  Fermi-wavevector in a.u.,A,eV,Ry     =   0.693324  1.310193  6.540298  0.480698
  Thomas-Fermi vector in A             =   1.775506
 
 Write flags
   LWAVE  =      F    write WAVECAR
   LCHARG =      F    write CHGCAR
   LVTOT  =      F    write LOCPOT, total local potential
   LVHAR  =      F    write LOCPOT, Hartree potential only
   LELF   =      F    write electronic localiz. function (ELF)
   LORBIT =      0    0 simple, 1 ext, 2 COOP (PROOUT)


 Dipole corrections
   LMONO  =      F    monopole corrections only (constant potential shift)
   LDIPOL =      F    correct potential (dipole corrections)
   IDIPOL =      0    1-x, 2-y, 3-z, 4-all directions 
   EPSILON=  1.0000000 bulk dielectric constant

 Exchange correlation treatment:
   GGA     =    PE    GGA type
   LEXCH   =     8    internal setting for exchange type
   VOSKOWN=      0    Vosko Wilk Nusair interpolation
   LHFCALC =     F    Hartree Fock is set to
   LHFONE  =     F    Hartree Fock one center treatment
   AEXX    =    0.0000 exact exchange contribution

 Linear response parameters
   LEPSILON=     F    determine dielectric tensor
   LRPA    =     F    only Hartree local field effects (RPA)
   LNABLA  =     F    use nabla operator in PAW spheres
   LVEL    =     F    velocity operator in full k-point grid
   LINTERFAST=   F  fast interpolation
   KINTER  =     0    interpolate to denser k-point grid
   CSHIFT  =0.1000    complex shift for real part using Kramers Kronig
   OMEGAMAX=  -1.0    maximum frequency
   DEG_THRESHOLD= 0.2000000E-02 threshold for treating states as degnerate
   RTIME   =    0.100 relaxation time in fs

 Orbital magnetization related:
   ORBITALMAG=     F  switch on orbital magnetization
   LCHIMAG   =     F  perturbation theory with respect to B field
   DQ        =  0.001000  dq finite difference perturbation B field



--------------------------------------------------------------------------------------------------------


 Static calculation
 charge density and potential will be updated during run
 non-spin polarized calculation
 Variant of blocked Davidson
 Davidson routine will perform the subspace rotation
 perform sub-space diagonalisation
    after iterative eigenvector-optimisation
 modified Broyden-mixing scheme, WC =      100.0
 initial mixing is a Kerker type mixing with AMIX =  0.4000 and BMIX =      1.0000
 Hartree-type preconditioning will be used
 using additional bands            4
 reciprocal scheme for non local part
 calculate Harris-corrections to forces 
   (improved forces if not selfconsistent)
 use gradient corrections 
 use of overlap-Matrix (Vanderbilt PP)
 Fermi weights with tetrahedron method with Bloechl corrections


--------------------------------------------------------------------------------------------------------


  energy-cutoff  :      800.00
  volume of cell :      105.32
      direct lattice vectors                 reciprocal lattice vectors
     2.466437340  0.000000000  0.000000000     0.405443100  0.234503546  0.000000000
    -1.234880477  2.135037086  0.000000000     0.000000000  0.468375939  0.000000000
     0.000000000  0.000000000 20.000000000     0.000000000  0.000000000  0.050000000

  length of vectors
     2.466437340  2.466437340 20.000000000     0.468375939  0.468375939  0.050000000


 
 k-points in units of 2pi/SCALE and weight: B4C B11C-CBC                            
   0.00000000  0.00000000  0.00000000       0.001
   0.03378692  0.01954196  0.00000000       0.003
   0.06757385  0.03908392  0.00000000       0.003
   0.10136077  0.05862589  0.00000000       0.003
   0.13514770  0.07816785  0.00000000       0.003
   0.16893462  0.09770981  0.00000000       0.003
   0.20272155  0.11725177  0.00000000       0.002
   0.03378692  0.05857329  0.00000000       0.002
   0.06757385  0.07811525  0.00000000       0.003
   0.10136077  0.09765721  0.00000000       0.003
   0.13514770  0.11719918  0.00000000       0.003
   0.16893462  0.13674114  0.00000000       0.003
   0.20272155  0.15628310  0.00000000       0.003
  -0.16893462 -0.05867848  0.00000000       0.003
  -0.13514770 -0.03913652  0.00000000       0.003
  -0.10136077 -0.01959456  0.00000000       0.003
  -0.06757385 -0.00005260  0.00000000       0.003
  -0.03378692  0.01948937  0.00000000       0.002
   0.06757385  0.11714658  0.00000000       0.002
   0.10136077  0.13668854  0.00000000       0.003
   0.13514770  0.15623051  0.00000000       0.003
   0.16893462  0.17577247  0.00000000       0.003
   0.20272155  0.19531443  0.00000000       0.003
  -0.16893462 -0.01964715  0.00000000       0.003
  -0.13514770 -0.00010519  0.00000000       0.003
  -0.10136077  0.01943677  0.00000000       0.003
  -0.06757385  0.03897873  0.00000000       0.002
   0.10136077  0.17571987  0.00000000       0.002
   0.13514770  0.19526183  0.00000000       0.003
   0.16893462  0.21480380  0.00000000       0.003
   0.20272155  0.23434576  0.00000000       0.003
  -0.16893462  0.01938417  0.00000000       0.003
  -0.13514770  0.03892614  0.00000000       0.003
  -0.10136077  0.05846810  0.00000000       0.002
   0.13514770  0.23429316  0.00000000       0.002
   0.16893462  0.25383512  0.00000000       0.003
   0.20272155  0.27337709  0.00000000       0.003
  -0.16893462  0.05841550  0.00000000       0.003
  -0.13514770  0.07795746  0.00000000       0.002
   0.16893462  0.29286645  0.00000000       0.002
   0.20272155  0.31240841  0.00000000       0.003
  -0.16893462  0.09744683  0.00000000       0.002
   0.20272155  0.35143974  0.00000000       0.001
   0.00000000  0.00000000  0.00625000       0.002
   0.03378692  0.01954196  0.00625000       0.007
   0.06757385  0.03908392  0.00625000       0.007
   0.10136077  0.05862589  0.00625000       0.007
   0.13514770  0.07816785  0.00625000       0.007
   0.16893462  0.09770981  0.00625000       0.007
   0.20272155  0.11725177  0.00625000       0.003
   0.03378692  0.05857329  0.00625000       0.003
   0.06757385  0.07811525  0.00625000       0.007
   0.10136077  0.09765721  0.00625000       0.007
   0.13514770  0.11719918  0.00625000       0.007
   0.16893462  0.13674114  0.00625000       0.007
   0.20272155  0.15628310  0.00625000       0.007
  -0.16893462 -0.05867848  0.00625000       0.007
  -0.13514770 -0.03913652  0.00625000       0.007
  -0.10136077 -0.01959456  0.00625000       0.007
  -0.06757385 -0.00005260  0.00625000       0.007
  -0.03378692  0.01948937  0.00625000       0.003
   0.06757385  0.11714658  0.00625000       0.003
   0.10136077  0.13668854  0.00625000       0.007
   0.13514770  0.15623051  0.00625000       0.007
   0.16893462  0.17577247  0.00625000       0.007
   0.20272155  0.19531443  0.00625000       0.007
  -0.16893462 -0.01964715  0.00625000       0.007
  -0.13514770 -0.00010519  0.00625000       0.007
  -0.10136077  0.01943677  0.00625000       0.007
  -0.06757385  0.03897873  0.00625000       0.003
   0.10136077  0.17571987  0.00625000       0.003
   0.13514770  0.19526183  0.00625000       0.007
   0.16893462  0.21480380  0.00625000       0.007
   0.20272155  0.23434576  0.00625000       0.007
  -0.16893462  0.01938417  0.00625000       0.007
  -0.13514770  0.03892614  0.00625000       0.007
  -0.10136077  0.05846810  0.00625000       0.003
   0.13514770  0.23429316  0.00625000       0.003
   0.16893462  0.25383512  0.00625000       0.007
   0.20272155  0.27337709  0.00625000       0.007
  -0.16893462  0.05841550  0.00625000       0.007
  -0.13514770  0.07795746  0.00625000       0.003
   0.16893462  0.29286645  0.00625000       0.003
   0.20272155  0.31240841  0.00625000       0.007
  -0.16893462  0.09744683  0.00625000       0.003
   0.20272155  0.35143974  0.00625000       0.002
   0.00000000  0.00000000  0.01250000       0.002
   0.03378692  0.01954196  0.01250000       0.007
   0.06757385  0.03908392  0.01250000       0.007
   0.10136077  0.05862589  0.01250000       0.007
   0.13514770  0.07816785  0.01250000       0.007
   0.16893462  0.09770981  0.01250000       0.007
   0.20272155  0.11725177  0.01250000       0.003
   0.03378692  0.05857329  0.01250000       0.003
   0.06757385  0.07811525  0.01250000       0.007
   0.10136077  0.09765721  0.01250000       0.007
   0.13514770  0.11719918  0.01250000       0.007
   0.16893462  0.13674114  0.01250000       0.007
   0.20272155  0.15628310  0.01250000       0.007
  -0.16893462 -0.05867848  0.01250000       0.007
  -0.13514770 -0.03913652  0.01250000       0.007
  -0.10136077 -0.01959456  0.01250000       0.007
  -0.06757385 -0.00005260  0.01250000       0.007
  -0.03378692  0.01948937  0.01250000       0.003
   0.06757385  0.11714658  0.01250000       0.003
   0.10136077  0.13668854  0.01250000       0.007
   0.13514770  0.15623051  0.01250000       0.007
   0.16893462  0.17577247  0.01250000       0.007
   0.20272155  0.19531443  0.01250000       0.007
  -0.16893462 -0.01964715  0.01250000       0.007
  -0.13514770 -0.00010519  0.01250000       0.007
  -0.10136077  0.01943677  0.01250000       0.007
  -0.06757385  0.03897873  0.01250000       0.003
   0.10136077  0.17571987  0.01250000       0.003
   0.13514770  0.19526183  0.01250000       0.007
   0.16893462  0.21480380  0.01250000       0.007
   0.20272155  0.23434576  0.01250000       0.007
  -0.16893462  0.01938417  0.01250000       0.007
  -0.13514770  0.03892614  0.01250000       0.007
  -0.10136077  0.05846810  0.01250000       0.003
   0.13514770  0.23429316  0.01250000       0.003
   0.16893462  0.25383512  0.01250000       0.007
   0.20272155  0.27337709  0.01250000       0.007
  -0.16893462  0.05841550  0.01250000       0.007
  -0.13514770  0.07795746  0.01250000       0.003
   0.16893462  0.29286645  0.01250000       0.003
   0.20272155  0.31240841  0.01250000       0.007
  -0.16893462  0.09744683  0.01250000       0.003
   0.20272155  0.35143974  0.01250000       0.002
   0.00000000  0.00000000  0.01875000       0.002
   0.03378692  0.01954196  0.01875000       0.007
   0.06757385  0.03908392  0.01875000       0.007
   0.10136077  0.05862589  0.01875000       0.007
   0.13514770  0.07816785  0.01875000       0.007
   0.16893462  0.09770981  0.01875000       0.007
   0.20272155  0.11725177  0.01875000       0.003
   0.03378692  0.05857329  0.01875000       0.003
   0.06757385  0.07811525  0.01875000       0.007
   0.10136077  0.09765721  0.01875000       0.007
   0.13514770  0.11719918  0.01875000       0.007
   0.16893462  0.13674114  0.01875000       0.007
   0.20272155  0.15628310  0.01875000       0.007
  -0.16893462 -0.05867848  0.01875000       0.007
  -0.13514770 -0.03913652  0.01875000       0.007
  -0.10136077 -0.01959456  0.01875000       0.007
  -0.06757385 -0.00005260  0.01875000       0.007
  -0.03378692  0.01948937  0.01875000       0.003
   0.06757385  0.11714658  0.01875000       0.003
   0.10136077  0.13668854  0.01875000       0.007
   0.13514770  0.15623051  0.01875000       0.007
   0.16893462  0.17577247  0.01875000       0.007
   0.20272155  0.19531443  0.01875000       0.007
  -0.16893462 -0.01964715  0.01875000       0.007
  -0.13514770 -0.00010519  0.01875000       0.007
  -0.10136077  0.01943677  0.01875000       0.007
  -0.06757385  0.03897873  0.01875000       0.003
   0.10136077  0.17571987  0.01875000       0.003
   0.13514770  0.19526183  0.01875000       0.007
   0.16893462  0.21480380  0.01875000       0.007
   0.20272155  0.23434576  0.01875000       0.007
  -0.16893462  0.01938417  0.01875000       0.007
  -0.13514770  0.03892614  0.01875000       0.007
  -0.10136077  0.05846810  0.01875000       0.003
   0.13514770  0.23429316  0.01875000       0.003
   0.16893462  0.25383512  0.01875000       0.007
   0.20272155  0.27337709  0.01875000       0.007
  -0.16893462  0.05841550  0.01875000       0.007
  -0.13514770  0.07795746  0.01875000       0.003
   0.16893462  0.29286645  0.01875000       0.003
   0.20272155  0.31240841  0.01875000       0.007
  -0.16893462  0.09744683  0.01875000       0.003
   0.20272155  0.35143974  0.01875000       0.002
   0.00000000  0.00000000  0.02500000       0.001
   0.03378692  0.01954196  0.02500000       0.003
   0.06757385  0.03908392  0.02500000       0.003
   0.10136077  0.05862589  0.02500000       0.003
   0.13514770  0.07816785  0.02500000       0.003
   0.16893462  0.09770981  0.02500000       0.003
   0.20272155  0.11725177  0.02500000       0.002
   0.03378692  0.05857329  0.02500000       0.002
   0.06757385  0.07811525  0.02500000       0.003
   0.10136077  0.09765721  0.02500000       0.003
   0.13514770  0.11719918  0.02500000       0.003
   0.16893462  0.13674114  0.02500000       0.003
   0.20272155  0.15628310  0.02500000       0.003
  -0.16893462 -0.05867848  0.02500000       0.003
  -0.13514770 -0.03913652  0.02500000       0.003
  -0.10136077 -0.01959456  0.02500000       0.003
  -0.06757385 -0.00005260  0.02500000       0.003
  -0.03378692  0.01948937  0.02500000       0.002
   0.06757385  0.11714658  0.02500000       0.002
   0.10136077  0.13668854  0.02500000       0.003
   0.13514770  0.15623051  0.02500000       0.003
   0.16893462  0.17577247  0.02500000       0.003
   0.20272155  0.19531443  0.02500000       0.003
  -0.16893462 -0.01964715  0.02500000       0.003
  -0.13514770 -0.00010519  0.02500000       0.003
  -0.10136077  0.01943677  0.02500000       0.003
  -0.06757385  0.03897873  0.02500000       0.002
   0.10136077  0.17571987  0.02500000       0.002
   0.13514770  0.19526183  0.02500000       0.003
   0.16893462  0.21480380  0.02500000       0.003
   0.20272155  0.23434576  0.02500000       0.003
  -0.16893462  0.01938417  0.02500000       0.003
  -0.13514770  0.03892614  0.02500000       0.003
  -0.10136077  0.05846810  0.02500000       0.002
   0.13514770  0.23429316  0.02500000       0.002
   0.16893462  0.25383512  0.02500000       0.003
   0.20272155  0.27337709  0.02500000       0.003
  -0.16893462  0.05841550  0.02500000       0.003
  -0.13514770  0.07795746  0.02500000       0.002
   0.16893462  0.29286645  0.02500000       0.002
   0.20272155  0.31240841  0.02500000       0.003
  -0.16893462  0.09744683  0.02500000       0.002
   0.20272155  0.35143974  0.02500000       0.001
 
 k-points in reciprocal lattice and weights: B4C B11C-CBC                            
   0.00000000  0.00000000  0.00000000       0.001
   0.08333333  0.00000000  0.00000000       0.003
   0.16666667  0.00000000  0.00000000       0.003
   0.25000000  0.00000000  0.00000000       0.003
   0.33333333  0.00000000  0.00000000       0.003
   0.41666667  0.00000000  0.00000000       0.003
   0.50000000  0.00000000  0.00000000       0.002
   0.08333333  0.08333333  0.00000000       0.002
   0.16666667  0.08333333  0.00000000       0.003
   0.25000000  0.08333333  0.00000000       0.003
   0.33333333  0.08333333  0.00000000       0.003
   0.41666667  0.08333333  0.00000000       0.003
   0.50000000  0.08333333  0.00000000       0.003
  -0.41666667  0.08333333  0.00000000       0.003
  -0.33333333  0.08333333  0.00000000       0.003
  -0.25000000  0.08333333  0.00000000       0.003
  -0.16666667  0.08333333  0.00000000       0.003
  -0.08333333  0.08333333  0.00000000       0.002
   0.16666667  0.16666667  0.00000000       0.002
   0.25000000  0.16666667  0.00000000       0.003
   0.33333333  0.16666667  0.00000000       0.003
   0.41666667  0.16666667  0.00000000       0.003
   0.50000000  0.16666667  0.00000000       0.003
  -0.41666667  0.16666667  0.00000000       0.003
  -0.33333333  0.16666667  0.00000000       0.003
  -0.25000000  0.16666667  0.00000000       0.003
  -0.16666667  0.16666667  0.00000000       0.002
   0.25000000  0.25000000  0.00000000       0.002
   0.33333333  0.25000000  0.00000000       0.003
   0.41666667  0.25000000  0.00000000       0.003
   0.50000000  0.25000000  0.00000000       0.003
  -0.41666667  0.25000000  0.00000000       0.003
  -0.33333333  0.25000000  0.00000000       0.003
  -0.25000000  0.25000000  0.00000000       0.002
   0.33333333  0.33333333  0.00000000       0.002
   0.41666667  0.33333333  0.00000000       0.003
   0.50000000  0.33333333  0.00000000       0.003
  -0.41666667  0.33333333  0.00000000       0.003
  -0.33333333  0.33333333  0.00000000       0.002
   0.41666667  0.41666667  0.00000000       0.002
   0.50000000  0.41666667  0.00000000       0.003
  -0.41666667  0.41666667  0.00000000       0.002
   0.50000000  0.50000000  0.00000000       0.001
   0.00000000  0.00000000  0.12500000       0.002
   0.08333333  0.00000000  0.12500000       0.007
   0.16666667  0.00000000  0.12500000       0.007
   0.25000000  0.00000000  0.12500000       0.007
   0.33333333  0.00000000  0.12500000       0.007
   0.41666667  0.00000000  0.12500000       0.007
   0.50000000  0.00000000  0.12500000       0.003
   0.08333333  0.08333333  0.12500000       0.003
   0.16666667  0.08333333  0.12500000       0.007
   0.25000000  0.08333333  0.12500000       0.007
   0.33333333  0.08333333  0.12500000       0.007
   0.41666667  0.08333333  0.12500000       0.007
   0.50000000  0.08333333  0.12500000       0.007
  -0.41666667  0.08333333  0.12500000       0.007
  -0.33333333  0.08333333  0.12500000       0.007
  -0.25000000  0.08333333  0.12500000       0.007
  -0.16666667  0.08333333  0.12500000       0.007
  -0.08333333  0.08333333  0.12500000       0.003
   0.16666667  0.16666667  0.12500000       0.003
   0.25000000  0.16666667  0.12500000       0.007
   0.33333333  0.16666667  0.12500000       0.007
   0.41666667  0.16666667  0.12500000       0.007
   0.50000000  0.16666667  0.12500000       0.007
  -0.41666667  0.16666667  0.12500000       0.007
  -0.33333333  0.16666667  0.12500000       0.007
  -0.25000000  0.16666667  0.12500000       0.007
  -0.16666667  0.16666667  0.12500000       0.003
   0.25000000  0.25000000  0.12500000       0.003
   0.33333333  0.25000000  0.12500000       0.007
   0.41666667  0.25000000  0.12500000       0.007
   0.50000000  0.25000000  0.12500000       0.007
  -0.41666667  0.25000000  0.12500000       0.007
  -0.33333333  0.25000000  0.12500000       0.007
  -0.25000000  0.25000000  0.12500000       0.003
   0.33333333  0.33333333  0.12500000       0.003
   0.41666667  0.33333333  0.12500000       0.007
   0.50000000  0.33333333  0.12500000       0.007
  -0.41666667  0.33333333  0.12500000       0.007
  -0.33333333  0.33333333  0.12500000       0.003
   0.41666667  0.41666667  0.12500000       0.003
   0.50000000  0.41666667  0.12500000       0.007
  -0.41666667  0.41666667  0.12500000       0.003
   0.50000000  0.50000000  0.12500000       0.002
   0.00000000  0.00000000  0.25000000       0.002
   0.08333333  0.00000000  0.25000000       0.007
   0.16666667  0.00000000  0.25000000       0.007
   0.25000000  0.00000000  0.25000000       0.007
   0.33333333  0.00000000  0.25000000       0.007
   0.41666667  0.00000000  0.25000000       0.007
   0.50000000  0.00000000  0.25000000       0.003
   0.08333333  0.08333333  0.25000000       0.003
   0.16666667  0.08333333  0.25000000       0.007
   0.25000000  0.08333333  0.25000000       0.007
   0.33333333  0.08333333  0.25000000       0.007
   0.41666667  0.08333333  0.25000000       0.007
   0.50000000  0.08333333  0.25000000       0.007
  -0.41666667  0.08333333  0.25000000       0.007
  -0.33333333  0.08333333  0.25000000       0.007
  -0.25000000  0.08333333  0.25000000       0.007
  -0.16666667  0.08333333  0.25000000       0.007
  -0.08333333  0.08333333  0.25000000       0.003
   0.16666667  0.16666667  0.25000000       0.003
   0.25000000  0.16666667  0.25000000       0.007
   0.33333333  0.16666667  0.25000000       0.007
   0.41666667  0.16666667  0.25000000       0.007
   0.50000000  0.16666667  0.25000000       0.007
  -0.41666667  0.16666667  0.25000000       0.007
  -0.33333333  0.16666667  0.25000000       0.007
  -0.25000000  0.16666667  0.25000000       0.007
  -0.16666667  0.16666667  0.25000000       0.003
   0.25000000  0.25000000  0.25000000       0.003
   0.33333333  0.25000000  0.25000000       0.007
   0.41666667  0.25000000  0.25000000       0.007
   0.50000000  0.25000000  0.25000000       0.007
  -0.41666667  0.25000000  0.25000000       0.007
  -0.33333333  0.25000000  0.25000000       0.007
  -0.25000000  0.25000000  0.25000000       0.003
   0.33333333  0.33333333  0.25000000       0.003
   0.41666667  0.33333333  0.25000000       0.007
   0.50000000  0.33333333  0.25000000       0.007
  -0.41666667  0.33333333  0.25000000       0.007
  -0.33333333  0.33333333  0.25000000       0.003
   0.41666667  0.41666667  0.25000000       0.003
   0.50000000  0.41666667  0.25000000       0.007
  -0.41666667  0.41666667  0.25000000       0.003
   0.50000000  0.50000000  0.25000000       0.002
   0.00000000  0.00000000  0.37500000       0.002
   0.08333333  0.00000000  0.37500000       0.007
   0.16666667  0.00000000  0.37500000       0.007
   0.25000000  0.00000000  0.37500000       0.007
   0.33333333  0.00000000  0.37500000       0.007
   0.41666667  0.00000000  0.37500000       0.007
   0.50000000  0.00000000  0.37500000       0.003
   0.08333333  0.08333333  0.37500000       0.003
   0.16666667  0.08333333  0.37500000       0.007
   0.25000000  0.08333333  0.37500000       0.007
   0.33333333  0.08333333  0.37500000       0.007
   0.41666667  0.08333333  0.37500000       0.007
   0.50000000  0.08333333  0.37500000       0.007
  -0.41666667  0.08333333  0.37500000       0.007
  -0.33333333  0.08333333  0.37500000       0.007
  -0.25000000  0.08333333  0.37500000       0.007
  -0.16666667  0.08333333  0.37500000       0.007
  -0.08333333  0.08333333  0.37500000       0.003
   0.16666667  0.16666667  0.37500000       0.003
   0.25000000  0.16666667  0.37500000       0.007
   0.33333333  0.16666667  0.37500000       0.007
   0.41666667  0.16666667  0.37500000       0.007
   0.50000000  0.16666667  0.37500000       0.007
  -0.41666667  0.16666667  0.37500000       0.007
  -0.33333333  0.16666667  0.37500000       0.007
  -0.25000000  0.16666667  0.37500000       0.007
  -0.16666667  0.16666667  0.37500000       0.003
   0.25000000  0.25000000  0.37500000       0.003
   0.33333333  0.25000000  0.37500000       0.007
   0.41666667  0.25000000  0.37500000       0.007
   0.50000000  0.25000000  0.37500000       0.007
  -0.41666667  0.25000000  0.37500000       0.007
  -0.33333333  0.25000000  0.37500000       0.007
  -0.25000000  0.25000000  0.37500000       0.003
   0.33333333  0.33333333  0.37500000       0.003
   0.41666667  0.33333333  0.37500000       0.007
   0.50000000  0.33333333  0.37500000       0.007
  -0.41666667  0.33333333  0.37500000       0.007
  -0.33333333  0.33333333  0.37500000       0.003
   0.41666667  0.41666667  0.37500000       0.003
   0.50000000  0.41666667  0.37500000       0.007
  -0.41666667  0.41666667  0.37500000       0.003
   0.50000000  0.50000000  0.37500000       0.002
   0.00000000  0.00000000  0.50000000       0.001
   0.08333333  0.00000000  0.50000000       0.003
   0.16666667  0.00000000  0.50000000       0.003
   0.25000000  0.00000000  0.50000000       0.003
   0.33333333  0.00000000  0.50000000       0.003
   0.41666667  0.00000000  0.50000000       0.003
   0.50000000  0.00000000  0.50000000       0.002
   0.08333333  0.08333333  0.50000000       0.002
   0.16666667  0.08333333  0.50000000       0.003
   0.25000000  0.08333333  0.50000000       0.003
   0.33333333  0.08333333  0.50000000       0.003
   0.41666667  0.08333333  0.50000000       0.003
   0.50000000  0.08333333  0.50000000       0.003
  -0.41666667  0.08333333  0.50000000       0.003
  -0.33333333  0.08333333  0.50000000       0.003
  -0.25000000  0.08333333  0.50000000       0.003
  -0.16666667  0.08333333  0.50000000       0.003
  -0.08333333  0.08333333  0.50000000       0.002
   0.16666667  0.16666667  0.50000000       0.002
   0.25000000  0.16666667  0.50000000       0.003
   0.33333333  0.16666667  0.50000000       0.003
   0.41666667  0.16666667  0.50000000       0.003
   0.50000000  0.16666667  0.50000000       0.003
  -0.41666667  0.16666667  0.50000000       0.003
  -0.33333333  0.16666667  0.50000000       0.003
  -0.25000000  0.16666667  0.50000000       0.003
  -0.16666667  0.16666667  0.50000000       0.002
   0.25000000  0.25000000  0.50000000       0.002
   0.33333333  0.25000000  0.50000000       0.003
   0.41666667  0.25000000  0.50000000       0.003
   0.50000000  0.25000000  0.50000000       0.003
  -0.41666667  0.25000000  0.50000000       0.003
  -0.33333333  0.25000000  0.50000000       0.003
  -0.25000000  0.25000000  0.50000000       0.002
   0.33333333  0.33333333  0.50000000       0.002
   0.41666667  0.33333333  0.50000000       0.003
   0.50000000  0.33333333  0.50000000       0.003
  -0.41666667  0.33333333  0.50000000       0.003
  -0.33333333  0.33333333  0.50000000       0.002
   0.41666667  0.41666667  0.50000000       0.002
   0.50000000  0.41666667  0.50000000       0.003
  -0.41666667  0.41666667  0.50000000       0.002
   0.50000000  0.50000000  0.50000000       0.001
 
 position of ions in fractional coordinates (direct lattice) 
   0.99934661  0.00065344  0.08289688
   0.33258492  0.66741508  0.08289688
 
 position of ions in cartesian coordinates  (Angst):
   2.46401889  0.00139511  1.65793765
  -0.00387800  1.42495595  1.65793765
 


--------------------------------------------------------------------------------------------------------


 k-point  1 :   0.0000 0.0000 0.0000  plane waves:    5409
 k-point  2 :   0.0833 0.0000 0.0000  plane waves:    5424
 k-point  3 :   0.1667 0.0000 0.0000  plane waves:    5422
 k-point  4 :   0.2500 0.0000 0.0000  plane waves:    5434
 k-point  5 :   0.3333 0.0000 0.0000  plane waves:    5420
 k-point  6 :   0.4167 0.0000 0.0000  plane waves:    5424
 k-point  7 :   0.5000 0.0000 0.0000  plane waves:    5406
 k-point  8 :   0.0833 0.0833 0.0000  plane waves:    5435
 k-point  9 :   0.1667 0.0833 0.0000  plane waves:    5433
 k-point 10 :   0.2500 0.0833 0.0000  plane waves:    5413
 k-point 11 :   0.3333 0.0833 0.0000  plane waves:    5397
 k-point 12 :   0.4167 0.0833 0.0000  plane waves:    5428
 k-point 13 :   0.5000 0.0833 0.0000  plane waves:    5428
 k-point 14 :  -0.4167 0.0833 0.0000  plane waves:    5401
 k-point 15 :  -0.3333 0.0833 0.0000  plane waves:    5412
 k-point 16 :  -0.2500 0.0833 0.0000  plane waves:    5435
 k-point 17 :  -0.1667 0.0833 0.0000  plane waves:    5437
 k-point 18 :  -0.0833 0.0833 0.0000  plane waves:    5424
 k-point 19 :   0.1667 0.1667 0.0000  plane waves:    5434
 k-point 20 :   0.2500 0.1667 0.0000  plane waves:    5389
 k-point 21 :   0.3333 0.1667 0.0000  plane waves:    5386
 k-point 22 :   0.4167 0.1667 0.0000  plane waves:    5422
 k-point 23 :   0.5000 0.1667 0.0000  plane waves:    5392
 k-point 24 :  -0.4167 0.1667 0.0000  plane waves:    5387
 k-point 25 :  -0.3333 0.1667 0.0000  plane waves:    5434
 k-point 26 :  -0.2500 0.1667 0.0000  plane waves:    5437
 k-point 27 :  -0.1667 0.1667 0.0000  plane waves:    5424
 k-point 28 :   0.2500 0.2500 0.0000  plane waves:    5394
 k-point 29 :   0.3333 0.2500 0.0000  plane waves:    5377
 k-point 30 :   0.4167 0.2500 0.0000  plane waves:    5374
 k-point 31 :   0.5000 0.2500 0.0000  plane waves:    5396
 k-point 32 :  -0.4167 0.2500 0.0000  plane waves:    5387
 k-point 33 :  -0.3333 0.2500 0.0000  plane waves:    5410
 k-point 34 :  -0.2500 0.2500 0.0000  plane waves:    5434
 k-point 35 :   0.3333 0.3333 0.0000  plane waves:    5342
 k-point 36 :   0.4167 0.3333 0.0000  plane waves:    5379
 k-point 37 :   0.5000 0.3333 0.0000  plane waves:    5392
 k-point 38 :  -0.4167 0.3333 0.0000  plane waves:    5401
 k-point 39 :  -0.3333 0.3333 0.0000  plane waves:    5422
 k-point 40 :   0.4167 0.4167 0.0000  plane waves:    5426
 k-point 41 :   0.5000 0.4167 0.0000  plane waves:    5428
 k-point 42 :  -0.4167 0.4167 0.0000  plane waves:    5426
 k-point 43 :   0.5000 0.5000 0.0000  plane waves:    5404
 k-point 44 :   0.0000 0.0000 0.1250  plane waves:    5434
 k-point 45 :   0.0833 0.0000 0.1250  plane waves:    5426
 k-point 46 :   0.1667 0.0000 0.1250  plane waves:    5426
 k-point 47 :   0.2500 0.0000 0.1250  plane waves:    5421
 k-point 48 :   0.3333 0.0000 0.1250  plane waves:    5415
 k-point 49 :   0.4167 0.0000 0.1250  plane waves:    5422
 k-point 50 :   0.5000 0.0000 0.1250  plane waves:    5416
 k-point 51 :   0.0833 0.0833 0.1250  plane waves:    5439
 k-point 52 :   0.1667 0.0833 0.1250  plane waves:    5430
 k-point 53 :   0.2500 0.0833 0.1250  plane waves:    5413
 k-point 54 :   0.3333 0.0833 0.1250  plane waves:    5401
 k-point 55 :   0.4167 0.0833 0.1250  plane waves:    5424
 k-point 56 :   0.5000 0.0833 0.1250  plane waves:    5424
 k-point 57 :  -0.4167 0.0833 0.1250  plane waves:    5399
 k-point 58 :  -0.3333 0.0833 0.1250  plane waves:    5413
 k-point 59 :  -0.2500 0.0833 0.1250  plane waves:    5433
 k-point 60 :  -0.1667 0.0833 0.1250  plane waves:    5437
 k-point 61 :  -0.0833 0.0833 0.1250  plane waves:    5425
 k-point 62 :   0.1667 0.1667 0.1250  plane waves:    5425
 k-point 63 :   0.2500 0.1667 0.1250  plane waves:    5388
 k-point 64 :   0.3333 0.1667 0.1250  plane waves:    5400
 k-point 65 :   0.4167 0.1667 0.1250  plane waves:    5420
 k-point 66 :   0.5000 0.1667 0.1250  plane waves:    5400
 k-point 67 :  -0.4167 0.1667 0.1250  plane waves:    5387
 k-point 68 :  -0.3333 0.1667 0.1250  plane waves:    5430
 k-point 69 :  -0.2500 0.1667 0.1250  plane waves:    5431
 k-point 70 :  -0.1667 0.1667 0.1250  plane waves:    5427
 k-point 71 :   0.2500 0.2500 0.1250  plane waves:    5393
 k-point 72 :   0.3333 0.2500 0.1250  plane waves:    5376
 k-point 73 :   0.4167 0.2500 0.1250  plane waves:    5375
 k-point 74 :   0.5000 0.2500 0.1250  plane waves:    5396
 k-point 75 :  -0.4167 0.2500 0.1250  plane waves:    5391
 k-point 76 :  -0.3333 0.2500 0.1250  plane waves:    5413
 k-point 77 :  -0.2500 0.2500 0.1250  plane waves:    5426
 k-point 78 :   0.3333 0.3333 0.1250  plane waves:    5349
 k-point 79 :   0.4167 0.3333 0.1250  plane waves:    5375
 k-point 80 :   0.5000 0.3333 0.1250  plane waves:    5401
 k-point 81 :  -0.4167 0.3333 0.1250  plane waves:    5401
 k-point 82 :  -0.3333 0.3333 0.1250  plane waves:    5415
 k-point 83 :   0.4167 0.4167 0.1250  plane waves:    5419
 k-point 84 :   0.5000 0.4167 0.1250  plane waves:    5426
 k-point 85 :  -0.4167 0.4167 0.1250  plane waves:    5422
 k-point 86 :   0.5000 0.5000 0.1250  plane waves:    5410
 k-point 87 :   0.0000 0.0000 0.2500  plane waves:    5426
 k-point 88 :   0.0833 0.0000 0.2500  plane waves:    5426
 k-point 89 :   0.1667 0.0000 0.2500  plane waves:    5434
 k-point 90 :   0.2500 0.0000 0.2500  plane waves:    5427
 k-point 91 :   0.3333 0.0000 0.2500  plane waves:    5414
 k-point 92 :   0.4167 0.0000 0.2500  plane waves:    5424
 k-point 93 :   0.5000 0.0000 0.2500  plane waves:    5418
 k-point 94 :   0.0833 0.0833 0.2500  plane waves:    5435
 k-point 95 :   0.1667 0.0833 0.2500  plane waves:    5429
 k-point 96 :   0.2500 0.0833 0.2500  plane waves:    5422
 k-point 97 :   0.3333 0.0833 0.2500  plane waves:    5405
 k-point 98 :   0.4167 0.0833 0.2500  plane waves:    5421
 k-point 99 :   0.5000 0.0833 0.2500  plane waves:    5419
 k-point ** :  -0.4167 0.0833 0.2500  plane waves:    5403
 k-point ** :  -0.3333 0.0833 0.2500  plane waves:    5421
 k-point ** :  -0.2500 0.0833 0.2500  plane waves:    5431
 k-point ** :  -0.1667 0.0833 0.2500  plane waves:    5435
 k-point ** :  -0.0833 0.0833 0.2500  plane waves:    5428
 k-point ** :   0.1667 0.1667 0.2500  plane waves:    5421
 k-point ** :   0.2500 0.1667 0.2500  plane waves:    5390
 k-point ** :   0.3333 0.1667 0.2500  plane waves:    5396
 k-point ** :   0.4167 0.1667 0.2500  plane waves:    5422
 k-point ** :   0.5000 0.1667 0.2500  plane waves:    5395
 k-point ** :  -0.4167 0.1667 0.2500  plane waves:    5393
 k-point ** :  -0.3333 0.1667 0.2500  plane waves:    5423
 k-point ** :  -0.2500 0.1667 0.2500  plane waves:    5429
 k-point ** :  -0.1667 0.1667 0.2500  plane waves:    5427
 k-point ** :   0.2500 0.2500 0.2500  plane waves:    5386
 k-point ** :   0.3333 0.2500 0.2500  plane waves:    5384
 k-point ** :   0.4167 0.2500 0.2500  plane waves:    5383
 k-point ** :   0.5000 0.2500 0.2500  plane waves:    5390
 k-point ** :  -0.4167 0.2500 0.2500  plane waves:    5391
 k-point ** :  -0.3333 0.2500 0.2500  plane waves:    5421
 k-point ** :  -0.2500 0.2500 0.2500  plane waves:    5428
 k-point ** :   0.3333 0.3333 0.2500  plane waves:    5361
 k-point ** :   0.4167 0.3333 0.2500  plane waves:    5385
 k-point ** :   0.5000 0.3333 0.2500  plane waves:    5394
 k-point ** :  -0.4167 0.3333 0.2500  plane waves:    5404
 k-point ** :  -0.3333 0.3333 0.2500  plane waves:    5416
 k-point ** :   0.4167 0.4167 0.2500  plane waves:    5419
 k-point ** :   0.5000 0.4167 0.2500  plane waves:    5421
 k-point ** :  -0.4167 0.4167 0.2500  plane waves:    5424
 k-point ** :   0.5000 0.5000 0.2500  plane waves:    5418
 k-point ** :   0.0000 0.0000 0.3750  plane waves:    5426
 k-point ** :   0.0833 0.0000 0.3750  plane waves:    5419
 k-point ** :   0.1667 0.0000 0.3750  plane waves:    5438
 k-point ** :   0.2500 0.0000 0.3750  plane waves:    5434
 k-point ** :   0.3333 0.0000 0.3750  plane waves:    5420
 k-point ** :   0.4167 0.0000 0.3750  plane waves:    5423
 k-point ** :   0.5000 0.0000 0.3750  plane waves:    5418
 k-point ** :   0.0833 0.0833 0.3750  plane waves:    5440
 k-point ** :   0.1667 0.0833 0.3750  plane waves:    5428
 k-point ** :   0.2500 0.0833 0.3750  plane waves:    5416
 k-point ** :   0.3333 0.0833 0.3750  plane waves:    5409
 k-point ** :   0.4167 0.0833 0.3750  plane waves:    5424
 k-point ** :   0.5000 0.0833 0.3750  plane waves:    5425
 k-point ** :  -0.4167 0.0833 0.3750  plane waves:    5409
 k-point ** :  -0.3333 0.0833 0.3750  plane waves:    5417
 k-point ** :  -0.2500 0.0833 0.3750  plane waves:    5427
 k-point ** :  -0.1667 0.0833 0.3750  plane waves:    5441
 k-point ** :  -0.0833 0.0833 0.3750  plane waves:    5419
 k-point ** :   0.1667 0.1667 0.3750  plane waves:    5406
 k-point ** :   0.2500 0.1667 0.3750  plane waves:    5393
 k-point ** :   0.3333 0.1667 0.3750  plane waves:    5393
 k-point ** :   0.4167 0.1667 0.3750  plane waves:    5419
 k-point ** :   0.5000 0.1667 0.3750  plane waves:    5393
 k-point ** :  -0.4167 0.1667 0.3750  plane waves:    5396
 k-point ** :  -0.3333 0.1667 0.3750  plane waves:    5408
 k-point ** :  -0.2500 0.1667 0.3750  plane waves:    5428
 k-point ** :  -0.1667 0.1667 0.3750  plane waves:    5441
 k-point ** :   0.2500 0.2500 0.3750  plane waves:    5386
 k-point ** :   0.3333 0.2500 0.3750  plane waves:    5385
 k-point ** :   0.4167 0.2500 0.3750  plane waves:    5382
 k-point ** :   0.5000 0.2500 0.3750  plane waves:    5386
 k-point ** :  -0.4167 0.2500 0.3750  plane waves:    5396
 k-point ** :  -0.3333 0.2500 0.3750  plane waves:    5417
 k-point ** :  -0.2500 0.2500 0.3750  plane waves:    5432
 k-point ** :   0.3333 0.3333 0.3750  plane waves:    5358
 k-point ** :   0.4167 0.3333 0.3750  plane waves:    5387
 k-point ** :   0.5000 0.3333 0.3750  plane waves:    5393
 k-point ** :  -0.4167 0.3333 0.3750  plane waves:    5409
 k-point ** :  -0.3333 0.3333 0.3750  plane waves:    5419
 k-point ** :   0.4167 0.4167 0.3750  plane waves:    5418
 k-point ** :   0.5000 0.4167 0.3750  plane waves:    5422
 k-point ** :  -0.4167 0.4167 0.3750  plane waves:    5425
 k-point ** :   0.5000 0.5000 0.3750  plane waves:    5420
 k-point ** :   0.0000 0.0000 0.5000  plane waves:    5408
 k-point ** :   0.0833 0.0000 0.5000  plane waves:    5416
 k-point ** :   0.1667 0.0000 0.5000  plane waves:    5436
 k-point ** :   0.2500 0.0000 0.5000  plane waves:    5442
 k-point ** :   0.3333 0.0000 0.5000  plane waves:    5420
 k-point ** :   0.4167 0.0000 0.5000  plane waves:    5422
 k-point ** :   0.5000 0.0000 0.5000  plane waves:    5400
 k-point ** :   0.0833 0.0833 0.5000  plane waves:    5428
 k-point ** :   0.1667 0.0833 0.5000  plane waves:    5430
 k-point ** :   0.2500 0.0833 0.5000  plane waves:    5420
 k-point ** :   0.3333 0.0833 0.5000  plane waves:    5414
 k-point ** :   0.4167 0.0833 0.5000  plane waves:    5422
 k-point ** :   0.5000 0.0833 0.5000  plane waves:    5428
 k-point ** :  -0.4167 0.0833 0.5000  plane waves:    5414
 k-point ** :  -0.3333 0.0833 0.5000  plane waves:    5418
 k-point ** :  -0.2500 0.0833 0.5000  plane waves:    5426
 k-point ** :  -0.1667 0.0833 0.5000  plane waves:    5426
 k-point ** :  -0.0833 0.0833 0.5000  plane waves:    5416
 k-point ** :   0.1667 0.1667 0.5000  plane waves:    5414
 k-point ** :   0.2500 0.1667 0.5000  plane waves:    5400
 k-point ** :   0.3333 0.1667 0.5000  plane waves:    5390
 k-point ** :   0.4167 0.1667 0.5000  plane waves:    5406
 k-point ** :   0.5000 0.1667 0.5000  plane waves:    5390
 k-point ** :  -0.4167 0.1667 0.5000  plane waves:    5402
 k-point ** :  -0.3333 0.1667 0.5000  plane waves:    5414
 k-point ** :  -0.2500 0.1667 0.5000  plane waves:    5426
 k-point ** :  -0.1667 0.1667 0.5000  plane waves:    5436
 k-point ** :   0.2500 0.2500 0.5000  plane waves:    5386
 k-point ** :   0.3333 0.2500 0.5000  plane waves:    5386
 k-point ** :   0.4167 0.2500 0.5000  plane waves:    5384
 k-point ** :   0.5000 0.2500 0.5000  plane waves:    5386
 k-point ** :  -0.4167 0.2500 0.5000  plane waves:    5398
 k-point ** :  -0.3333 0.2500 0.5000  plane waves:    5422
 k-point ** :  -0.2500 0.2500 0.5000  plane waves:    5442
 k-point ** :   0.3333 0.3333 0.5000  plane waves:    5366
 k-point ** :   0.4167 0.3333 0.5000  plane waves:    5388
 k-point ** :   0.5000 0.3333 0.5000  plane waves:    5388
 k-point ** :  -0.4167 0.3333 0.5000  plane waves:    5416
 k-point ** :  -0.3333 0.3333 0.5000  plane waves:    5422
 k-point ** :   0.4167 0.4167 0.5000  plane waves:    5404
 k-point ** :   0.5000 0.4167 0.5000  plane waves:    5426
 k-point ** :  -0.4167 0.4167 0.5000  plane waves:    5426
 k-point ** :   0.5000 0.5000 0.5000  plane waves:    5404

 maximum and minimum number of plane-waves per node :      5442     5342

 maximum number of plane-waves:      5442
 maximum index in each direction: 
   IXMAX=    6   IYMAX=    5   IZMAX=   46
   IXMIN=   -6   IYMIN=   -6   IZMIN=  -46

 WARNING: aliasing errors must be expected set NGX to  26 to avoid them
 NGY is ok and might be reduce to  24
 NGZ is ok and might be reduce to 186
 aliasing errors are usually negligible using standard VASP settings
 and one can safely disregard these warnings

 serial   3D FFT for wavefunctions
 parallel 3D FFT for charge:
    minimum data exchange during FFTs selected (reduces bandwidth)


 total amount of memory used by VASP on root node   332557. kBytes
========================================================================

   base      :      30000. kBytes
   nonl-proj :      75056. kBytes
   fftplans  :      30244. kBytes
   grid      :      47047. kBytes
   one-center:          6. kBytes
   wavefun   :     150204. kBytes
 
     INWAV:  cpu time    0.00: real time    0.00
 Broyden mixing: mesh for mixing (old mesh)
   NGX = 11   NGY = 11   NGZ = 93
  (NGX  = 48   NGY  = 48   NGZ  =384)
  gives a total of  11253 points

 initial charge density was supplied:
 charge density of overlapping atoms calculated
 number of electron       8.0000000 magnetization 
 keeping initial charge density in first step


--------------------------------------------------------------------------------------------------------


 Maximum index for augmentation-charges        12046 (set IRDMAX)


--------------------------------------------------------------------------------------------------------


 First call to EWALD:  gamma=   0.375
 Maximum number of real-space cells 5x 5x 1
 Maximum number of reciprocal cells 2x 2x10

 FEWALD executed in parallel
    FEWALD:  cpu time    0.00: real time    0.00


----------------------------------------- Iteration    1(   1)  ---------------------------------------


    POTLOK:  cpu time    0.44: real time    0.44
    SETDIJ:  cpu time    0.00: real time    0.00
     EDDAV:  cpu time   19.16: real time   19.20
 BZINTS: Fermi energy:  4.782347;  8.000000 electrons
         Band energy: -42.877626;  BLOECHL correction: -0.294463
       DOS:  cpu time    0.02: real time    0.02
    --------------------------------------------
      LOOP:  cpu time   19.63: real time   19.67

 eigenvalue-minimisations  :  3440
 total energy-change (2. order) : 0.6716865E+02  (-0.3920298E+03)
 number of electron       8.0000000 magnetization 
 augmentation part        8.0000000 magnetization 

 Free energy of the ion-electron system (eV)
  ---------------------------------------------------
  alpha Z        PSCENC =         3.09461325
  Ewald energy   TEWEN  =      1294.91951791
  -Hartree energ DENC   =     -1507.53105140
  -exchange      EXHF   =         0.00000000
  -V(xc)+E(xc)   XCENC  =        27.55531212
  PAW double counting   =        75.66288619      -77.96384553
  entropy T*S    EENTRO =         0.00000000
  eigenvalues    EBANDS =       -42.87762589
  atomic energy  EATOM  =       294.30884690
  ---------------------------------------------------
  free energy    TOTEN  =        67.16865355 eV

  energy without entropy =       67.16865355  energy(sigma->0) =       67.16865355


--------------------------------------------------------------------------------------------------------




----------------------------------------- Iteration    1(   2)  ---------------------------------------


     EDDAV:  cpu time   25.31: real time   25.32
 BZINTS: Fermi energy: -4.208349;  8.000000 electrons
         Band energy:-124.225699;  BLOECHL correction: -0.024324
       DOS:  cpu time    0.02: real time    0.03
    --------------------------------------------
      LOOP:  cpu time   25.34: real time   25.35

 eigenvalue-minimisations  :  5032
 total energy-change (2. order) :-0.8134807E+02  (-0.6890950E+02)
 number of electron       8.0000000 magnetization 
 augmentation part        8.0000000 magnetization 

 Free energy of the ion-electron system (eV)
  ---------------------------------------------------
  alpha Z        PSCENC =         3.09461325
  Ewald energy   TEWEN  =      1294.91951791
  -Hartree energ DENC   =     -1507.53105140
  -exchange      EXHF   =         0.00000000
  -V(xc)+E(xc)   XCENC  =        27.55531212
  PAW double counting   =        75.66288619      -77.96384553
  entropy T*S    EENTRO =         0.00000000
  eigenvalues    EBANDS =      -124.22569912
  atomic energy  EATOM  =       294.30884690
  ---------------------------------------------------
  free energy    TOTEN  =       -14.17941968 eV

  energy without entropy =      -14.17941968  energy(sigma->0) =      -14.17941968


--------------------------------------------------------------------------------------------------------




----------------------------------------- Iteration    1(   3)  ---------------------------------------


     EDDAV:  cpu time   24.93: real time   24.94
 BZINTS: Fermi energy: -6.346445;  8.000000 electrons
         Band energy:-129.733690;  BLOECHL correction: -0.000000
       DOS:  cpu time    0.01: real time    0.01
    --------------------------------------------
      LOOP:  cpu time   24.94: real time   24.96

 eigenvalue-minimisations  :  4960
 total energy-change (2. order) :-0.5507991E+01  (-0.5491798E+01)
 number of electron       8.0000000 magnetization 
 augmentation part        8.0000000 magnetization 

 Free energy of the ion-electron system (eV)
  ---------------------------------------------------
  alpha Z        PSCENC =         3.09461325
  Ewald energy   TEWEN  =      1294.91951791
  -Hartree energ DENC   =     -1507.53105140
  -exchange      EXHF   =         0.00000000
  -V(xc)+E(xc)   XCENC  =        27.55531212
  PAW double counting   =        75.66288619      -77.96384553
  entropy T*S    EENTRO =         0.00000000
  eigenvalues    EBANDS =      -129.73368969
  atomic energy  EATOM  =       294.30884690
  ---------------------------------------------------
  free energy    TOTEN  =       -19.68741025 eV

  energy without entropy =      -19.68741025  energy(sigma->0) =      -19.68741025


--------------------------------------------------------------------------------------------------------




----------------------------------------- Iteration    1(   4)  ---------------------------------------


     EDDAV:  cpu time   26.86: real time   26.88
 BZINTS: Fermi energy: -6.351100;  8.000000 electrons
         Band energy:-129.778811;  BLOECHL correction:  0.000000
       DOS:  cpu time    0.01: real time    0.01
    --------------------------------------------
      LOOP:  cpu time   26.87: real time   26.89

 eigenvalue-minimisations  :  5456
 total energy-change (2. order) :-0.4512158E-01  (-0.4512164E-01)
 number of electron       8.0000000 magnetization 
 augmentation part        8.0000000 magnetization 

 Free energy of the ion-electron system (eV)
  ---------------------------------------------------
  alpha Z        PSCENC =         3.09461325
  Ewald energy   TEWEN  =      1294.91951791
  -Hartree energ DENC   =     -1507.53105140
  -exchange      EXHF   =         0.00000000
  -V(xc)+E(xc)   XCENC  =        27.55531212
  PAW double counting   =        75.66288619      -77.96384553
  entropy T*S    EENTRO =         0.00000000
  eigenvalues    EBANDS =      -129.77881127
  atomic energy  EATOM  =       294.30884690
  ---------------------------------------------------
  free energy    TOTEN  =       -19.73253183 eV

  energy without entropy =      -19.73253183  energy(sigma->0) =      -19.73253183


--------------------------------------------------------------------------------------------------------




----------------------------------------- Iteration    1(   5)  ---------------------------------------


     EDDAV:  cpu time   25.42: real time   25.43
 BZINTS: Fermi energy: -6.351993;  8.000000 electrons
         Band energy:-129.779107;  BLOECHL correction:  0.000000
       DOS:  cpu time    0.01: real time    0.01
    CHARGE:  cpu time    1.22: real time    1.23
    MIXING:  cpu time    0.01: real time    0.02
    --------------------------------------------
      LOOP:  cpu time   26.67: real time   26.69

 eigenvalue-minimisations  :  5088
 total energy-change (2. order) :-0.2956240E-03  (-0.2956240E-03)
 number of electron       7.9999999 magnetization 
 augmentation part        0.2131432 magnetization 

 Broyden mixing:
  rms(total) = 0.55278E+00    rms(broyden)= 0.55277E+00
  rms(prec ) = 0.60247E+00
  weight for this iteration     100.00

 Free energy of the ion-electron system (eV)
  ---------------------------------------------------
  alpha Z        PSCENC =         3.09461325
  Ewald energy   TEWEN  =      1294.91951791
  -Hartree energ DENC   =     -1507.53105140
  -exchange      EXHF   =         0.00000000
  -V(xc)+E(xc)   XCENC  =        27.55531212
  PAW double counting   =        75.66288619      -77.96384553
  entropy T*S    EENTRO =         0.00000000
  eigenvalues    EBANDS =      -129.77910690
  atomic energy  EATOM  =       294.30884690
  ---------------------------------------------------
  free energy    TOTEN  =       -19.73282746 eV

  energy without entropy =      -19.73282746  energy(sigma->0) =      -19.73282746


--------------------------------------------------------------------------------------------------------




----------------------------------------- Iteration    1(   6)  ---------------------------------------


    POTLOK:  cpu time    0.39: real time    0.40
    SETDIJ:  cpu time    0.00: real time    0.00
     EDDAV:  cpu time   23.82: real time   23.84
 BZINTS: Fermi energy: -5.192555;  8.000000 electrons
         Band energy:-117.986399;  BLOECHL correction:  0.000000
       DOS:  cpu time    0.01: real time    0.01
    CHARGE:  cpu time    1.20: real time    1.20
    MIXING:  cpu time    0.01: real time    0.01
    --------------------------------------------
      LOOP:  cpu time   25.45: real time   25.46

 eigenvalue-minimisations  :  4648
 total energy-change (2. order) : 0.9168866E+00  (-0.8978776E-01)
 number of electron       7.9999999 magnetization 
 augmentation part        0.2032718 magnetization 

 Broyden mixing:
  rms(total) = 0.29119E+00    rms(broyden)= 0.29119E+00
  rms(prec ) = 0.31871E+00
  weight for this iteration     100.00

 eigenvalues of (default mixing * dielectric matrix)
  average eigenvalue GAMMA=   2.0419
  2.0419

 Free energy of the ion-electron system (eV)
  ---------------------------------------------------
  alpha Z        PSCENC =         3.09461325
  Ewald energy   TEWEN  =      1294.91951791
  -Hartree energ DENC   =     -1518.72354717
[...]
      6       2.8524      0.00000
      7       3.4695      0.00000
      8       3.8427      0.00000

 k-point   182 :       0.2500    0.0833    0.5000
  band No.  band energies     occupation 
      1     -20.1525      2.00000
      2     -11.2462      2.00000
      3      -8.6853      2.00000
      4      -7.8966      2.00000
      5       3.1710      0.00000
      6       3.4176      0.00000
      7       4.2211      0.00000
      8       4.8362      0.00000

 k-point   183 :       0.3333    0.0833    0.5000
  band No.  band energies     occupation 
      1     -18.8912      2.00000
      2     -13.3706      2.00000
      3      -9.3200      2.00000
      4      -6.5188      2.00000
      5       0.9742      0.00000
      6       5.1568      0.00000
      7       5.5595      0.00000
      8       6.0004      0.00000

 k-point   184 :       0.4167    0.0833    0.5000
  band No.  band energies     occupation 
      1     -17.4121      2.00000
      2     -15.3117      2.00000
      3      -9.6488      2.00000
      4      -5.2120      2.00000
      5      -0.7912      0.00000
      6       5.3552      0.00000
      7       7.3782      0.00000
      8       8.1820      0.00000

 k-point   185 :       0.5000    0.0833    0.5000
  band No.  band energies     occupation 
      1     -17.4143      2.00000
      2     -15.3094      2.00000
      3      -9.6493      2.00000
      4      -5.2130      2.00000
      5      -0.7904      0.00000
      6       5.3562      0.00000
      7       7.3746      0.00000
      8       8.1791      0.00000

 k-point   186 :      -0.4167    0.0833    0.5000
  band No.  band energies     occupation 
      1     -18.8932      2.00000
      2     -13.3681      2.00000
      3      -9.3214      2.00000
      4      -6.5204      2.00000
      5       0.9751      0.00000
      6       5.1546      0.00000
      7       5.5618      0.00000
      8       5.9977      0.00000

 k-point   187 :      -0.3333    0.0833    0.5000
  band No.  band energies     occupation 
      1     -20.1541      2.00000
      2     -11.2448      2.00000
      3      -8.6864      2.00000
      4      -7.8980      2.00000
      5       3.1709      0.00000
      6       3.4154      0.00000
      7       4.2190      0.00000
      8       4.8341      0.00000

 k-point   188 :      -0.2500    0.0833    0.5000
  band No.  band energies     occupation 
      1     -21.1194      2.00000
      2      -9.1732      2.00000
      3      -9.0124      2.00000
      4      -7.7974      2.00000
      5       2.0843      0.00000
      6       2.8509      0.00000
      7       3.4680      0.00000
      8       3.8411      0.00000

 k-point   189 :      -0.1667    0.0833    0.5000
  band No.  band energies     occupation 
      1     -21.7700      2.00000
      2      -9.7793      2.00000
      3      -7.4706      2.00000
      4      -6.7905      2.00000
      5       1.1939      0.00000
      6       1.9495      0.00000
      7       2.5616      0.00000
      8       2.9326      0.00000

 k-point   190 :      -0.0833    0.0833    0.5000
  band No.  band energies     occupation 
      1     -22.0971      2.00000
      2     -10.1683      2.00000
      3      -6.4432      2.00000
      4      -6.1055      2.00000
      5       0.7485      0.00000
      6       1.4975      0.00000
      7       2.1076      0.00000
      8       2.4784      0.00000

 k-point   191 :       0.1667    0.1667    0.5000
  band No.  band energies     occupation 
      1     -20.3125      2.00000
      2     -10.5024      2.00000
      3      -9.1622      2.00000
      4      -8.0749      2.00000
      5       3.1982      0.00000
      6       3.6260      0.00000
      7       3.9747      0.00000
      8       4.6014      0.00000

 k-point   192 :       0.2500    0.1667    0.5000
  band No.  band energies     occupation 
      1     -19.2035      2.00000
      2     -12.2327      2.00000
      3     -10.2176      2.00000
      4      -6.8233      2.00000
      5       1.6805      0.00000
      6       4.7461      0.00000
      7       5.5269      0.00000
      8       6.1775      0.00000

 k-point   193 :       0.3333    0.1667    0.5000
  band No.  band energies     occupation 
      1     -17.8268      2.00000
      2     -14.1449      2.00000
      3     -10.7936      2.00000
      4      -5.3986      2.00000
      5      -0.2291      0.00000
      6       6.7003      0.00000
      7       7.2740      0.00000
      8       7.4355      0.00000

 k-point   194 :       0.4167    0.1667    0.5000
  band No.  band energies     occupation 
      1     -16.5974      2.00000
      2     -15.5747      2.00000
      3     -10.9790      2.00000
      4      -4.5089      2.00000
      5      -1.2944      0.00000
      6       7.1654      0.00000
      7       8.8644      0.00000
      8       8.9393      0.00000

 k-point   195 :       0.5000    0.1667    0.5000
  band No.  band energies     occupation 
      1     -17.8311      2.00000
      2     -14.1405      2.00000
      3     -10.7943      2.00000
      4      -5.4015      2.00000
      5      -0.2277      0.00000
      6       6.6942      0.00000
      7       7.2766      0.00000
      8       7.4305      0.00000

 k-point   196 :      -0.4167    0.1667    0.5000
  band No.  band energies     occupation 
      1     -19.2071      2.00000
      2     -12.2312      2.00000
      3     -10.2165      2.00000
      4      -6.8263      2.00000
      5       1.6802      0.00000
      6       4.7412      0.00000
      7       5.5223      0.00000
      8       6.1727      0.00000

 k-point   197 :      -0.3333    0.1667    0.5000
  band No.  band energies     occupation 
      1     -20.3153      2.00000
      2     -10.5107      2.00000
      3      -9.1523      2.00000
      4      -8.0774      2.00000
      5       3.1946      0.00000
      6       3.6229      0.00000
      7       3.9712      0.00000
      8       4.5978      0.00000

 k-point   198 :      -0.2500    0.1667    0.5000
  band No.  band energies     occupation 
      1     -21.1201      2.00000
      2      -9.1866      2.00000
      3      -9.0131      2.00000
      4      -7.7825      2.00000
      5       2.0834      0.00000
      6       2.8500      0.00000
      7       3.4671      0.00000
      8       3.8402      0.00000

 k-point   199 :      -0.1667    0.1667    0.5000
  band No.  band energies     occupation 
      1     -21.6072      2.00000
      2      -9.5867      2.00000
      3      -8.0823      2.00000
      4      -6.8972      2.00000
      5       1.4158      0.00000
      6       2.1746      0.00000
      7       2.7878      0.00000
      8       3.1590      0.00000

 k-point   200 :       0.2500    0.2500    0.5000
  band No.  band energies     occupation 
      1     -17.9741      2.00000
      2     -13.2705      2.00000
      3     -11.7006      2.00000
      4      -5.4822      2.00000
      5       0.0667      0.00000
      6       6.4938      0.00000
      7       7.1524      0.00000
      8       7.9282      0.00000

 k-point   201 :       0.3333    0.2500    0.5000
  band No.  band energies     occupation 
      1     -16.5521      2.00000
      2     -14.6927      2.00000
      3     -12.4076      2.00000
      4      -4.0992      2.00000
      5      -1.4519      0.00000
      6       8.1331      0.00000
      7       8.5848      0.00000
      8       9.4382      0.00000

 k-point   202 :       0.4167    0.2500    0.5000
  band No.  band energies     occupation 
      1     -16.5578      2.00000
      2     -14.6885      2.00000
      3     -12.4061      2.00000
      4      -4.1023      2.00000
      5      -1.4503      0.00000
      6       8.1325      0.00000
      7       8.5737      0.00000
      8       9.4395      0.00000

 k-point   203 :       0.5000    0.2500    0.5000
  band No.  band energies     occupation 
      1     -17.9799      2.00000
      2     -13.2736      2.00000
      3     -11.6918      2.00000
      4      -5.4867      2.00000
      5       0.0663      0.00000
      6       6.4854      0.00000
      7       7.1464      0.00000
      8       7.9205      0.00000

 k-point   204 :      -0.4167    0.2500    0.5000
  band No.  band energies     occupation 
      1     -19.2082      2.00000
      2     -12.2434      2.00000
      3     -10.2020      2.00000
      4      -6.8274      2.00000
      5       1.6764      0.00000
      6       4.7397      0.00000
      7       5.5210      0.00000
      8       6.1713      0.00000

 k-point   205 :      -0.3333    0.2500    0.5000
  band No.  band energies     occupation 
      1     -20.1560      2.00000
      2     -11.2607      2.00000
      3      -8.6666      2.00000
      4      -7.8998      2.00000
      5       3.1639      0.00000
      6       3.4131      0.00000
      7       4.2167      0.00000
      8       4.8317      0.00000

 k-point   206 :      -0.2500    0.2500    0.5000
  band No.  band energies     occupation 
      1     -20.7973      2.00000
      2     -10.1810      2.00000
      3      -8.6382      2.00000
      4      -7.7759      2.00000
      5       2.5258      0.00000
      6       3.2898      0.00000
      7       3.9072      0.00000
      8       4.2910      0.00000

 k-point   207 :       0.3333    0.3333    0.5000
  band No.  band energies     occupation 
      1     -15.3395      2.00000
      2     -15.3386      2.00000
      3     -13.2958      2.00000
      4      -2.7497      2.00000
      5      -2.7463      0.00000
      6       7.8741      0.00000
      7      10.1316      0.00000
      8      10.1499      0.00000

 k-point   208 :       0.4167    0.3333    0.5000
  band No.  band energies     occupation 
      1     -16.5586      2.00000
      2     -14.6993      2.00000
      3     -12.3938      2.00000
      4      -4.1042      2.00000
      5      -1.4523      0.00000
      6       8.1352      0.00000
      7       8.5722      0.00000
      8       9.4793      0.00000

 k-point   209 :       0.5000    0.3333    0.5000
  band No.  band energies     occupation 
      1     -17.8334      2.00000
      2     -14.1543      2.00000
      3     -10.7760      2.00000
      4      -5.4040      2.00000
      5      -0.2336      0.00000
      6       6.6919      0.00000
      7       7.3158      0.00000
      8       7.4283      0.00000

 k-point   210 :      -0.4167    0.3333    0.5000
  band No.  band energies     occupation 
      1     -18.8964      2.00000
      2     -13.3828      2.00000
      3      -9.3002      2.00000
      4      -6.5235      2.00000
      5       0.9665      0.00000
      6       5.1534      0.00000
      7       5.5960      0.00000
      8       5.9936      0.00000

 k-point   211 :      -0.3333    0.3333    0.5000
  band No.  band energies     occupation 
      1     -19.6793      2.00000
      2     -12.3836      2.00000
      3      -8.5082      2.00000
      4      -7.3729      2.00000
      5       2.1525      0.00000
      6       4.0661      0.00000
      7       4.8926      0.00000
      8       4.9943      0.00000

 k-point   212 :       0.4167    0.4167    0.5000
  band No.  band energies     occupation 
      1     -16.6004      2.00000
      2     -15.5879      2.00000
      3     -10.9605      2.00000
      4      -4.5137      2.00000
      5      -1.2997      0.00000
      6       7.2080      0.00000
      7       8.8679      0.00000
      8       8.9269      0.00000

 k-point   213 :       0.5000    0.4167    0.5000
  band No.  band energies     occupation 
      1     -17.4183      2.00000
      2     -15.3229      2.00000
      3      -9.6281      2.00000
      4      -5.2176      2.00000
      5      -0.7989      0.00000
      6       5.3961      0.00000
      7       7.3673      0.00000
      8       8.1734      0.00000

 k-point   214 :      -0.4167    0.4167    0.5000
  band No.  band energies     occupation 
      1     -18.2845      2.00000
      2     -14.4825      2.00000
      3      -8.9803      2.00000
      4      -5.9538      2.00000
      5       0.0208      0.00000
      6       4.7348      0.00000
      7       6.0726      0.00000
      8       6.8967      0.00000

 k-point   215 :       0.5000    0.5000    0.5000
  band No.  band energies     occupation 
      1     -17.0228      2.00000
      2     -15.9868      2.00000
      3      -9.1424      2.00000
      4      -5.1115      2.00000
      5      -1.0746      0.00000
      6       4.6559      0.00000
      7       8.3668      0.00000
      8       8.5234      0.00000


--------------------------------------------------------------------------------------------------------


 soft charge-density along one line, spin component           1
         0         1         2         3         4         5         6         7         8         9
 total charge-density along one line
 
 pseudopotential strength for first ion, spin component:           1
 10.227   0.019  -0.000   0.000   0.000   0.000  -0.000  -0.000
  0.019  -0.002   0.000  -0.000  -0.000   0.000  -0.000  -0.000
 -0.000   0.000  -4.344   0.000   0.000  -0.018   0.000   0.000
  0.000  -0.000   0.000  -4.337  -0.000   0.000  -0.015  -0.000
  0.000  -0.000   0.000  -0.000  -4.344   0.000  -0.000  -0.018
  0.000   0.000  -0.018   0.000   0.000  -0.772   0.000   0.000
 -0.000  -0.000   0.000  -0.015  -0.000   0.000  -0.772  -0.000
 -0.000  -0.000   0.000  -0.000  -0.018   0.000  -0.000  -0.772
 total augmentation occupancy for first ion, spin component:           1
  1.467  -1.123  -0.000   0.000   0.000   0.000   0.000  -0.000
 -1.123   1.060  -0.000   0.000   0.000  -0.000  -0.000   0.000
 -0.000  -0.000   1.221   0.000   0.000   0.228  -0.000  -0.000
  0.000   0.000   0.000   0.931   0.000   0.000   0.105   0.000
  0.000   0.000   0.000  -0.000   1.221  -0.000   0.000   0.228
  0.000  -0.000   0.228   0.000  -0.000   0.049   0.000  -0.000
  0.000   0.000   0.000   0.105   0.000   0.000   0.013   0.000
 -0.000   0.000  -0.000   0.000   0.228  -0.000   0.000   0.049


------------------------ aborting loop because EDIFF is reached ----------------------------------------


    CHARGE:  cpu time    1.24: real time    1.24
    FORLOC:  cpu time    0.02: real time    0.02
    FORNL :  cpu time    0.84: real time    0.84
    STRESS:  cpu time    3.79: real time    3.79
    FORHAR:  cpu time    0.08: real time    0.08
    MIXING:  cpu time    0.02: real time    0.02
    OFIELD:  cpu time    0.00: real time    0.00

 ---------------------------------------------------------------------------------------------

         DFTD3 V3.0 Rev 1        
 IVDW         = 12
 DF pbe       
 parameters
 VDW_S6       =    1.0000
 VDW_S8       =    0.7875
 VDW_A1       =    0.4289
 VDW_A2       =    4.4407
 k1-k3        =   16.0000    1.3333   -4.0000
 VDW_RADIUS   =   50.2022 A
 VDW_CNRADIUS =   21.1671 A
 Edisp (eV)   -0.17722

 E6    (eV) :    -0.1218
 E8    (eV) :    -0.0555
 % E8        : 31.29
    FORVDW:  cpu time    0.01: real time    0.01

  FORCE on cell =-STRESS in cart. coord.  units (eV):
  Direction    XX          YY          ZZ          XY          YZ          ZX
  --------------------------------------------------------------------------------------
  Alpha Z     3.09461     3.09461     3.09461
  Ewald    1563.81939  1563.79068 -1832.69059    -0.02485     0.00000    -0.00000
  Hartree  1530.56262  1530.59117 -1519.25792     0.02468    -0.00000     0.00000
  E(xc)     -29.17920   -29.17848   -30.34888     0.00063    -0.00000     0.00000
  Local   -3180.55499 -3180.60878  3248.83053    -0.04649     0.00000    -0.00000
  n-local    -7.17914    -6.81762    -6.39128    -0.12117    -0.00000     0.00000
  augment    -0.77286    -0.77255    -0.70832     0.00027     0.00000    -0.00001
  Kinetic   121.96002   118.28989   137.44937     0.97789    -0.00000    -0.00000
  Fock        0.00000     0.00000     0.00000     0.00000     0.00000     0.00000
  vdW        -0.04314    -0.04282    -0.00045     0.00028    -0.00000     0.00000
  -------------------------------------------------------------------------------------
  Total       0.09639    -0.04297    -0.02294    -0.12048     0.00000    -0.00000
  in kB       1.46642    -0.65375    -0.34891    -1.83282     0.00000    -0.00000
  external pressure =        0.15 kB  Pullay stress =        0.00 kB


 VOLUME and BASIS-vectors are now :
 -----------------------------------------------------------------------------
  energy-cutoff  :      800.00
  volume of cell :      105.32
      direct lattice vectors                 reciprocal lattice vectors
     2.466437340  0.000000000  0.000000000     0.405443100  0.234503546  0.000000000
    -1.234880477  2.135037086  0.000000000     0.000000000  0.468375939  0.000000000
     0.000000000  0.000000000 20.000000000     0.000000000  0.000000000  0.050000000

  length of vectors
     2.466437340  2.466437340 20.000000000     0.468375939  0.468375939  0.050000000


 FORCES acting on ions
    electron-ion (+dipol)            ewald-force                    non-local-force                 convergence-correction
 -----------------------------------------------------------------------------------------------
   -.236E+00 0.136E+00 0.330E-05   0.108E+00 -.624E-01 0.106E-21   -.430E-01 0.248E-01 0.000E+00   0.719E-06 -.415E-06 -.338E-11
   0.236E+00 -.136E+00 0.330E-05   -.108E+00 0.624E-01 -.106E-21   0.430E-01 -.248E-01 0.000E+00   -.719E-06 0.415E-06 -.340E-11
 -----------------------------------------------------------------------------------------------
   0.165E-05 -.144E-04 0.660E-05   0.150E-14 -.373E-14 0.000E+00   0.111E-15 0.111E-15 0.000E+00   0.127E-12 0.272E-12 -.678E-11
 
 
 POSITION                                       TOTAL-FORCE (eV/Angst)
 -----------------------------------------------------------------------------------
      2.46402      0.00140      1.65794        -0.170927      0.098596      0.000000
     -0.00388      1.42496      1.65794         0.170927     -0.098596      0.000000
 -----------------------------------------------------------------------------------
    total drift:                                0.000002     -0.000014      0.000007


--------------------------------------------------------------------------------------------------------



  FREE ENERGIE OF THE ION-ELECTRON SYSTEM (eV)
  ---------------------------------------------------
  free  energy   TOTEN  =       -18.63022557 eV

  energy  without entropy=      -18.63022557  energy(sigma->0) =      -18.63022557
 


--------------------------------------------------------------------------------------------------------


    POTLOK:  cpu time    0.46: real time    0.46


--------------------------------------------------------------------------------------------------------


     LOOP+:  cpu time  567.76: real time  568.14
    4ORBIT:  cpu time    0.00: real time    0.00
 BZINTS: Fermi energy: -2.748622;  8.000000 electrons
         Band energy: -95.074354;  BLOECHL correction:  0.000000

 total amount of memory used by VASP on root node   332557. kBytes
========================================================================

   base      :      30000. kBytes
   nonl-proj :      75056. kBytes
   fftplans  :      30244. kBytes
   grid      :      47047. kBytes
   one-center:          6. kBytes
   wavefun   :     150204. kBytes
 
  
  
 General timing and accounting informations for this job:
 ========================================================
  
                  Total CPU time used (sec):      569.887
                            User time (sec):      516.896
                          System time (sec):       52.991
                         Elapsed time (sec):      570.412
  
                   Maximum memory used (kb):      403224.
                   Average memory used (kb):           0.
  
                          Minor page faults:      7110046
                          Major page faults:            0
                 Voluntary context switches:          655
