ethylene                                
           1
    20.000000    0.000000    0.000000
     0.000000   20.000000    0.000000
     0.000000    0.000000   20.000000
   C    H 
   2   4
Direct configuration=     1
   0.14925000  0.17893000  0.11085000
   0.09425000  0.14407000  0.09615000
   0.16865000  0.21810000  0.07806000
   0.07485000  0.10490000  0.12894000
   0.17763001  0.16990000  0.15661000
   0.06587000  0.15310000  0.05039000
Direct configuration=     2
   0.14917541  0.17882757  0.11090817
   0.09432459  0.14417243  0.09609184
   0.16848125  0.21797131  0.07804667
   0.07501875  0.10502869  0.12895333
   0.17755900  0.16985407  0.15659235
   0.06594101  0.15314593  0.05040764
Direct configuration=     3
   0.14918778  0.17884455  0.11089852
   0.09431223  0.14415545  0.09610148
   0.16850922  0.21799264  0.07804888
   0.07499078  0.10500736  0.12895112
   0.17757077  0.16986168  0.15659528
   0.06592924  0.15313832  0.05040472
