   4   4   0   0
  0.8948858E+01  0.2466437E-09  0.2466437E-09  0.6797545E-09  0.5000000E-15
  1.000000000000000E-004
  CAR 
 graphite                                
     18.36964011    -17.05466057  301      4.56251601      1.00000000
    -17.055  0.0000E+00  0.0000E+00
    -16.937  0.0000E+00  0.0000E+00
    -16.818  0.0000E+00  0.0000E+00
    -16.700  0.0000E+00  0.0000E+00
    -16.582  0.0000E+00  0.0000E+00
    -16.464  0.0000E+00  0.0000E+00
    -16.346  0.0000E+00  0.0000E+00
    -16.228  0.0000E+00  0.0000E+00
    -16.110  0.0000E+00  0.0000E+00
    -15.992  0.0000E+00  0.0000E+00
    -15.874  0.0000E+00  0.0000E+00
    -15.756  0.0000E+00  0.0000E+00
    -15.638  0.0000E+00  0.0000E+00
    -15.520  0.0000E+00  0.0000E+00
    -15.402  0.0000E+00  0.0000E+00
    -15.283  0.0000E+00  0.0000E+00
    -15.165  0.0000E+00  0.0000E+00
    -15.047  0.2407E-04  0.5919E-07
    -14.929  0.1304E-02  0.9258E-04
    -14.811  0.2325E-02  0.3035E-03
    -14.693  0.2969E-02  0.6431E-03
    -14.575  0.3141E-02  0.1006E-02
    -14.457  0.3068E-02  0.1370E-02
    -14.339  0.3095E-02  0.1734E-02
    -14.221  0.3078E-02  0.2098E-02
    -14.103  0.3109E-02  0.2464E-02
    -13.985  0.3112E-02  0.2831E-02
    -13.866  0.3068E-02  0.3197E-02
    -13.748  0.3106E-02  0.3561E-02
    -13.630  0.3139E-02  0.3930E-02
    -13.512  0.3133E-02  0.4301E-02
    -13.394  0.3101E-02  0.4669E-02
    -13.276  0.3108E-02  0.5036E-02
    -13.158  0.3143E-02  0.5405E-02
    -13.040  0.3171E-02  0.5778E-02
    -12.922  0.3164E-02  0.6152E-02
    -12.804  0.3136E-02  0.6524E-02
    -12.686  0.3141E-02  0.6894E-02
    -12.568  0.3162E-02  0.7266E-02
    -12.450  0.3192E-02  0.7642E-02
    -12.331  0.3209E-02  0.8020E-02
    -12.213  0.3203E-02  0.8399E-02
    -12.095  0.3188E-02  0.8776E-02
    -11.977  0.3195E-02  0.9153E-02
    -11.859  0.3212E-02  0.9531E-02
    -11.741  0.3236E-02  0.9911E-02
    -11.623  0.3265E-02  0.1030E-01
    -11.505  0.3273E-02  0.1068E-01
    -11.387  0.3272E-02  0.1107E-01
    -11.269  0.3274E-02  0.1145E-01
    -11.151  0.3293E-02  0.1184E-01
    -11.033  0.3318E-02  0.1223E-01
    -10.914  0.3347E-02  0.1263E-01
    -10.796  0.3384E-02  0.1302E-01
    -10.678  0.3423E-02  0.1342E-01
    -10.560  0.3454E-02  0.1383E-01
    -10.442  0.3499E-02  0.1424E-01
    -10.324  0.3586E-02  0.1466E-01
    -10.206  0.3732E-02  0.1509E-01
    -10.088  0.3939E-02  0.1554E-01
     -9.970  0.4502E-02  0.1602E-01
     -9.852  0.5294E-02  0.1662E-01
     -9.734  0.4365E-02  0.1722E-01
     -9.616  0.3245E-02  0.1766E-01
     -9.497  0.3662E-02  0.1812E-01
     -9.379  0.2283E-02  0.1850E-01
     -9.261  0.2030E-02  0.1875E-01
     -9.143  0.1778E-02  0.1898E-01
     -9.025  0.1526E-02  0.1917E-01
     -8.907  0.1674E-02  0.1935E-01
     -8.789  0.1668E-02  0.1957E-01
     -8.671  0.8570E-03  0.1972E-01
     -8.553  0.1164E-02  0.1983E-01
     -8.435  0.2265E-02  0.2001E-01
     -8.317  0.3768E-02  0.2043E-01
     -8.199  0.2708E-02  0.2082E-01
     -8.081  0.2837E-02  0.2115E-01
     -7.962  0.4421E-02  0.2159E-01
     -7.844  0.3989E-02  0.2212E-01
     -7.726  0.4674E-02  0.2263E-01
     -7.608  0.5402E-02  0.2322E-01
     -7.490  0.4568E-02  0.2384E-01
     -7.372  0.3827E-02  0.2431E-01
     -7.254  0.3672E-02  0.2475E-01
     -7.136  0.3525E-02  0.2518E-01
     -7.018  0.3382E-02  0.2559E-01
     -6.900  0.3242E-02  0.2598E-01
     -6.782  0.3101E-02  0.2635E-01
     -6.664  0.2991E-02  0.2671E-01
     -6.545  0.2955E-02  0.2706E-01
     -6.427  0.2919E-02  0.2741E-01
     -6.309  0.2883E-02  0.2775E-01
     -6.191  0.2846E-02  0.2809E-01
     -6.073  0.2699E-02  0.2842E-01
     -5.955  0.2570E-02  0.2873E-01
     -5.837  0.2976E-02  0.2905E-01
     -5.719  0.3407E-02  0.2943E-01
     -5.601  0.3836E-02  0.2986E-01
     -5.483  0.3831E-02  0.3032E-01
     -5.365  0.3710E-02  0.3076E-01
     -5.247  0.3653E-02  0.3120E-01
     -5.128  0.3596E-02  0.3163E-01
     -5.010  0.3625E-02  0.3205E-01
     -4.892  0.3726E-02  0.3249E-01
     -4.774  0.3820E-02  0.3293E-01
     -4.656  0.3907E-02  0.3339E-01
     -4.538  0.3945E-02  0.3385E-01
     -4.420  0.3955E-02  0.3432E-01
     -4.302  0.3936E-02  0.3479E-01
     -4.184  0.3934E-02  0.3525E-01
     -4.066  0.4030E-02  0.3572E-01
     -3.948  0.4070E-02  0.3620E-01
     -3.830  0.4247E-02  0.3668E-01
     -3.712  0.4605E-02  0.3721E-01
     -3.593  0.4929E-02  0.3777E-01
     -3.475  0.5171E-02  0.3837E-01
     -3.357  0.5408E-02  0.3900E-01
     -3.239  0.5613E-02  0.3965E-01
     -3.121  0.5797E-02  0.4032E-01
     -3.003  0.5978E-02  0.4101E-01
     -2.885  0.6158E-02  0.4173E-01
     -2.767  0.6694E-02  0.4249E-01
     -2.649  0.7334E-02  0.4332E-01
     -2.531  0.7648E-02  0.4420E-01
     -2.413  0.7641E-02  0.4511E-01
     -2.295  0.7801E-02  0.4601E-01
     -2.176  0.7264E-02  0.4689E-01
     -2.058  0.7951E-02  0.4777E-01
     -1.940  0.1116E-01  0.4893E-01
     -1.822  0.1255E-01  0.5035E-01
     -1.704  0.1016E-01  0.5170E-01
     -1.586  0.9347E-02  0.5286E-01
     -1.468  0.8722E-02  0.5389E-01
     -1.350  0.7595E-02  0.5486E-01
     -1.232  0.7336E-02  0.5573E-01
     -1.114  0.5856E-02  0.5650E-01
     -0.996  0.6824E-02  0.5725E-01
     -0.878  0.7090E-02  0.5808E-01
     -0.759  0.7595E-02  0.5894E-01
     -0.641  0.6269E-02  0.5980E-01
     -0.523  0.6316E-02  0.6054E-01
     -0.405  0.6555E-02  0.6131E-01
     -0.287  0.6787E-02  0.6209E-01
     -0.169  0.6876E-02  0.6290E-01
     -0.051  0.6278E-02  0.6369E-01
      0.067  0.6102E-02  0.6441E-01
      0.185  0.5974E-02  0.6513E-01
      0.303  0.5855E-02  0.6583E-01
      0.421  0.5739E-02  0.6651E-01
      0.539  0.5760E-02  0.6719E-01
      0.657  0.5851E-02  0.6788E-01
      0.776  0.5744E-02  0.6857E-01
      0.894  0.5606E-02  0.6924E-01
      1.012  0.5526E-02  0.6989E-01
      1.130  0.5747E-02  0.7056E-01
      1.248  0.5550E-02  0.7123E-01
      1.366  0.5589E-02  0.7191E-01
      1.484  0.5247E-02  0.7258E-01
      1.602  0.3746E-02  0.7309E-01
      1.720  0.3993E-02  0.7354E-01
      1.838  0.4476E-02  0.7407E-01
      1.956  0.4352E-02  0.7459E-01
      2.074  0.4310E-02  0.7510E-01
      2.193  0.4462E-02  0.7561E-01
      2.311  0.4518E-02  0.7615E-01
      2.429  0.4637E-02  0.7669E-01
      2.547  0.3863E-02  0.7720E-01
      2.665  0.3131E-02  0.7762E-01
      2.783  0.2666E-02  0.7795E-01
      2.901  0.2378E-02  0.7825E-01
      3.019  0.2117E-02  0.7852E-01
      3.137  0.1983E-02  0.7876E-01
      3.255  0.1820E-02  0.7899E-01
      3.373  0.1554E-02  0.7918E-01
      3.491  0.1299E-02  0.7935E-01
      3.610  0.1138E-02  0.7950E-01
      3.728  0.9744E-03  0.7962E-01
      3.846  0.8105E-03  0.7973E-01
      3.964  0.6529E-03  0.7981E-01
      4.082  0.5203E-03  0.7988E-01
      4.200  0.3764E-03  0.7993E-01
      4.318  0.2435E-03  0.7997E-01
      4.436  0.1195E-03  0.7999E-01
      4.554  0.4905E-05  0.8000E-01
      4.672  0.7403E-04  0.8000E-01
      4.790  0.1641E-03  0.8002E-01
      4.908  0.2642E-03  0.8004E-01
      5.026  0.3768E-03  0.8008E-01
      5.145  0.5084E-03  0.8013E-01
      5.263  0.6856E-03  0.8020E-01
      5.381  0.9373E-03  0.8030E-01
      5.499  0.1209E-02  0.8042E-01
      5.617  0.1472E-02  0.8058E-01
      5.735  0.1786E-02  0.8077E-01
      5.853  0.1968E-02  0.8099E-01
      5.971  0.2785E-02  0.8127E-01
      6.089  0.3990E-02  0.8171E-01
      6.207  0.4964E-02  0.8233E-01
      6.325  0.4671E-02  0.8289E-01
      6.443  0.4493E-02  0.8343E-01
      6.562  0.4207E-02  0.8396E-01
      6.680  0.4224E-02  0.8445E-01
      6.798  0.4254E-02  0.8496E-01
      6.916  0.3579E-02  0.8541E-01
      7.034  0.3321E-02  0.8582E-01
      7.152  0.3108E-02  0.8620E-01
      7.270  0.2959E-02  0.8655E-01
      7.388  0.2840E-02  0.8690E-01
      7.506  0.2733E-02  0.8722E-01
      7.624  0.2637E-02  0.8754E-01
      7.742  0.2567E-02  0.8785E-01
      7.860  0.2507E-02  0.8815E-01
      7.979  0.2451E-02  0.8844E-01
      8.097  0.2392E-02  0.8873E-01
      8.215  0.2328E-02  0.8901E-01
      8.333  0.2265E-02  0.8928E-01
      8.451  0.2212E-02  0.8954E-01
      8.569  0.2162E-02  0.8980E-01
      8.687  0.2115E-02  0.9005E-01
      8.805  0.2104E-02  0.9030E-01
      8.923  0.2280E-02  0.9056E-01
      9.041  0.2370E-02  0.9084E-01
      9.159  0.2416E-02  0.9112E-01
      9.277  0.2443E-02  0.9141E-01
      9.395  0.2496E-02  0.9170E-01
      9.514  0.2515E-02  0.9199E-01
      9.632  0.2518E-02  0.9229E-01
      9.750  0.2535E-02  0.9259E-01
      9.868  0.2562E-02  0.9289E-01
      9.986  0.2604E-02  0.9319E-01
     10.104  0.2659E-02  0.9350E-01
     10.222  0.2724E-02  0.9382E-01
     10.340  0.2799E-02  0.9415E-01
     10.458  0.2887E-02  0.9448E-01
     10.576  0.3611E-02  0.9488E-01
     10.694  0.3252E-02  0.9529E-01
     10.812  0.2608E-02  0.9563E-01
     10.931  0.2428E-02  0.9592E-01
     11.049  0.2260E-02  0.9620E-01
     11.167  0.2128E-02  0.9646E-01
     11.285  0.2100E-02  0.9671E-01
     11.403  0.2238E-02  0.9696E-01
     11.521  0.2610E-02  0.9725E-01
     11.639  0.2871E-02  0.9757E-01
     11.757  0.3021E-02  0.9792E-01
     11.875  0.3943E-02  0.9832E-01
     11.993  0.5705E-02  0.9888E-01
     12.111  0.7266E-02  0.9964E-01
     12.229  0.8717E-02  0.1006E+00
     12.348  0.9098E-02  0.1017E+00
     12.466  0.8843E-02  0.1027E+00
     12.584  0.7893E-02  0.1037E+00
     12.702  0.7742E-02  0.1046E+00
     12.820  0.8089E-02  0.1056E+00
     12.938  0.1231E-01  0.1066E+00
     13.056  0.1553E-01  0.1083E+00
     13.174  0.1073E-01  0.1099E+00
     13.292  0.6972E-02  0.1109E+00
     13.410  0.5335E-02  0.1116E+00
     13.528  0.4829E-02  0.1122E+00
     13.646  0.4647E-02  0.1128E+00
     13.764  0.4087E-02  0.1133E+00
     13.883  0.4082E-02  0.1138E+00
     14.001  0.3975E-02  0.1143E+00
     14.119  0.3651E-02  0.1147E+00
     14.237  0.2795E-02  0.1151E+00
     14.355  0.2720E-02  0.1154E+00
     14.473  0.2769E-02  0.1157E+00
     14.591  0.3157E-02  0.1161E+00
     14.709  0.2895E-02  0.1165E+00
     14.827  0.2980E-02  0.1168E+00
     14.945  0.3958E-02  0.1172E+00
     15.063  0.4686E-02  0.1177E+00
     15.181  0.4320E-02  0.1183E+00
     15.300  0.3084E-02  0.1187E+00
     15.418  0.2534E-02  0.1190E+00
     15.536  0.2171E-02  0.1193E+00
     15.654  0.1976E-02  0.1195E+00
     15.772  0.1696E-02  0.1198E+00
     15.890  0.7945E-03  0.1199E+00
     16.008  0.2739E-03  0.1200E+00
     16.126  0.9545E-04  0.1200E+00
     16.244  0.1472E-04  0.1200E+00
     16.362  0.1739E-07  0.1200E+00
     16.480  0.0000E+00  0.1200E+00
     16.598  0.0000E+00  0.1200E+00
     16.717  0.0000E+00  0.1200E+00
     16.835  0.0000E+00  0.1200E+00
     16.953  0.0000E+00  0.1200E+00
     17.071  0.0000E+00  0.1200E+00
     17.189  0.0000E+00  0.1200E+00
     17.307  0.0000E+00  0.1200E+00
     17.425  0.0000E+00  0.1200E+00
     17.543  0.0000E+00  0.1200E+00
     17.661  0.0000E+00  0.1200E+00
     17.779  0.0000E+00  0.1200E+00
     17.897  0.0000E+00  0.1200E+00
     18.015  0.0000E+00  0.1200E+00
     18.133  0.0000E+00  0.1200E+00
     18.252  0.0000E+00  0.1200E+00
     18.370  0.0000E+00  0.1200E+00
