  32  32   0   0
  0.8861552E+01  0.4932875E-09  0.4932875E-09  0.1346245E-08  0.5000000E-15
  1.000000000000000E-004
  CAR 
 graphite                                
     15.33417931    -16.97869618  301      4.64610670      1.00000000
    -16.979  0.0000E+00  0.0000E+00
    -16.871  0.0000E+00  0.0000E+00
    -16.763  0.0000E+00  0.0000E+00
    -16.656  0.0000E+00  0.0000E+00
    -16.548  0.0000E+00  0.0000E+00
    -16.440  0.0000E+00  0.0000E+00
    -16.332  0.0000E+00  0.0000E+00
    -16.225  0.0000E+00  0.0000E+00
    -16.117  0.0000E+00  0.0000E+00
    -16.009  0.0000E+00  0.0000E+00
    -15.902  0.0000E+00  0.0000E+00
    -15.794  0.0000E+00  0.0000E+00
    -15.686  0.0000E+00  0.0000E+00
    -15.578  0.0000E+00  0.0000E+00
    -15.471  0.0000E+00  0.0000E+00
    -15.363  0.0000E+00  0.0000E+00
    -15.255  0.0000E+00  0.0000E+00
    -15.148  0.0000E+00  0.0000E+00
    -15.040  0.0000E+00  0.0000E+00
    -14.932  0.8573E+00  0.1525E-01
    -14.825  0.2315E+01  0.2038E+00
    -14.717  0.3709E+01  0.5274E+00
    -14.609  0.4713E+01  0.1018E+01
    -14.501  0.5026E+01  0.1544E+01
    -14.394  0.4874E+01  0.2078E+01
    -14.286  0.4938E+01  0.2607E+01
    -14.178  0.4904E+01  0.3140E+01
    -14.071  0.4971E+01  0.3672E+01
    -13.963  0.4970E+01  0.4207E+01
    -13.855  0.5010E+01  0.4744E+01
    -13.747  0.5506E+01  0.5303E+01
    -13.640  0.5851E+01  0.5920E+01
    -13.532  0.7225E+01  0.6608E+01
    -13.424  0.4073E+01  0.7253E+01
    -13.317  0.1927E+01  0.7675E+01
    -13.209  0.2701E+01  0.7893E+01
    -13.101  0.4113E+01  0.8300E+01
    -12.993  0.4553E+01  0.8768E+01
    -12.886  0.5940E+01  0.9484E+01
    -12.778  0.6665E+01  0.1014E+02
    -12.670  0.4313E+01  0.1077E+02
    -12.563  0.4490E+01  0.1124E+02
    -12.455  0.4655E+01  0.1174E+02
    -12.347  0.4771E+01  0.1224E+02
    -12.239  0.5044E+01  0.1277E+02
    -12.132  0.5270E+01  0.1333E+02
    -12.024  0.5903E+01  0.1394E+02
    -11.916  0.5433E+01  0.1454E+02
    -11.809  0.5156E+01  0.1512E+02
    -11.701  0.5000E+01  0.1567E+02
    -11.593  0.4901E+01  0.1620E+02
    -11.486  0.5011E+01  0.1673E+02
    -11.378  0.5081E+01  0.1728E+02
    -11.270  0.5154E+01  0.1783E+02
    -11.162  0.5420E+01  0.1840E+02
    -11.055  0.5687E+01  0.1899E+02
    -10.947  0.5842E+01  0.1962E+02
    -10.839  0.5769E+01  0.2025E+02
    -10.732  0.5789E+01  0.2087E+02
    -10.624  0.5678E+01  0.2150E+02
    -10.516  0.4539E+01  0.2204E+02
    -10.408  0.4910E+01  0.2254E+02
    -10.301  0.5295E+01  0.2309E+02
    -10.193  0.5376E+01  0.2367E+02
    -10.085  0.5547E+01  0.2426E+02
     -9.978  0.5784E+01  0.2486E+02
     -9.870  0.6719E+01  0.2552E+02
     -9.762  0.8863E+01  0.2633E+02
     -9.654  0.8618E+01  0.2737E+02
     -9.547  0.5781E+01  0.2813E+02
     -9.439  0.6082E+01  0.2882E+02
     -9.331  0.3788E+01  0.2945E+02
     -9.224  0.3420E+01  0.2984E+02
     -9.116  0.3051E+01  0.3019E+02
     -9.008  0.2681E+01  0.3050E+02
     -8.900  0.2313E+01  0.3076E+02
     -8.793  0.3075E+01  0.3104E+02
     -8.685  0.2495E+01  0.3136E+02
     -8.577  0.1365E+01  0.3156E+02
     -8.470  0.2058E+01  0.3174E+02
     -8.362  0.3647E+01  0.3202E+02
     -8.254  0.7112E+01  0.3272E+02
     -8.147  0.4161E+01  0.3325E+02
     -8.039  0.4065E+01  0.3368E+02
     -7.931  0.4432E+01  0.3413E+02
     -7.823  0.8017E+01  0.3491E+02
     -7.716  0.6720E+01  0.3563E+02
     -7.608  0.7804E+01  0.3642E+02
     -7.500  0.8963E+01  0.3732E+02
     -7.393  0.7177E+01  0.3821E+02
     -7.285  0.6180E+01  0.3890E+02
     -7.177  0.5918E+01  0.3955E+02
     -7.069  0.5668E+01  0.4017E+02
     -6.962  0.5458E+01  0.4077E+02
     -6.854  0.5276E+01  0.4135E+02
     -6.746  0.5094E+01  0.4191E+02
     -6.639  0.4903E+01  0.4244E+02
     -6.531  0.4837E+01  0.4297E+02
     -6.423  0.4811E+01  0.4349E+02
     -6.315  0.4777E+01  0.4400E+02
     -6.208  0.4558E+01  0.4451E+02
     -6.100  0.4410E+01  0.4499E+02
     -5.992  0.3483E+01  0.4544E+02
     -5.885  0.4059E+01  0.4585E+02
     -5.777  0.4544E+01  0.4631E+02
     -5.669  0.5242E+01  0.4683E+02
     -5.561  0.6080E+01  0.4744E+02
     -5.454  0.8059E+01  0.4815E+02
     -5.346  0.1018E+02  0.4918E+02
     -5.238  0.7873E+01  0.5016E+02
     -5.131  0.5567E+01  0.5088E+02
     -5.023  0.3261E+01  0.5136E+02
     -4.915  0.2604E+01  0.5165E+02
     -4.808  0.3375E+01  0.5196E+02
     -4.700  0.4699E+01  0.5240E+02
     -4.592  0.6058E+01  0.5297E+02
     -4.484  0.7823E+01  0.5372E+02
     -4.377  0.7720E+01  0.5458E+02
     -4.269  0.6481E+01  0.5535E+02
     -4.161  0.5663E+01  0.5599E+02
     -4.054  0.7683E+01  0.5668E+02
     -3.946  0.7162E+01  0.5748E+02
     -3.838  0.6641E+01  0.5822E+02
     -3.730  0.6740E+01  0.5894E+02
     -3.623  0.6452E+01  0.5964E+02
     -3.515  0.8947E+01  0.6044E+02
     -3.407  0.8873E+01  0.6169E+02
     -3.300  0.8557E+01  0.6261E+02
     -3.192  0.7906E+01  0.6349E+02
     -3.084  0.6952E+01  0.6430E+02
     -2.976  0.6999E+01  0.6504E+02
     -2.869  0.7919E+01  0.6584E+02
     -2.761  0.9041E+01  0.6675E+02
     -2.653  0.1188E+02  0.6785E+02
     -2.546  0.1412E+02  0.6929E+02
     -2.438  0.1141E+02  0.7072E+02
     -2.330  0.1169E+02  0.7196E+02
     -2.222  0.1217E+02  0.7329E+02
     -2.115  0.1533E+02  0.7471E+02
     -2.007  0.1224E+02  0.7625E+02
     -1.899  0.1964E+02  0.7786E+02
     -1.792  0.1061E+02  0.7945E+02
     -1.684  0.2141E+02  0.8081E+02
     -1.576  0.1775E+02  0.8290E+02
     -1.469  0.1964E+02  0.8490E+02
     -1.361  0.1418E+02  0.8659E+02
     -1.253  0.1187E+02  0.8799E+02
     -1.145  0.1108E+02  0.8920E+02
     -1.038  0.8588E+01  0.9024E+02
     -0.930  0.7798E+01  0.9111E+02
     -0.822  0.1152E+02  0.9215E+02
     -0.715  0.1356E+02  0.9357E+02
     -0.607  0.1739E+02  0.9516E+02
     -0.499  0.8548E+01  0.9638E+02
     -0.391  0.9892E+01  0.9738E+02
     -0.284  0.1085E+02  0.9849E+02
     -0.176  0.1068E+02  0.9962E+02
     -0.068  0.1081E+02  0.1008E+03
      0.039  0.9438E+01  0.1019E+03
      0.147  0.9561E+01  0.1029E+03
      0.255  0.1008E+02  0.1040E+03
      0.363  0.9822E+01  0.1050E+03
      0.470  0.9310E+01  0.1060E+03
      0.578  0.9268E+01  0.1070E+03
      0.686  0.9394E+01  0.1080E+03
      0.793  0.9350E+01  0.1090E+03
      0.901  0.9239E+01  0.1100E+03
      1.009  0.9335E+01  0.1110E+03
      1.117  0.9238E+01  0.1120E+03
      1.224  0.9562E+01  0.1131E+03
      1.332  0.9380E+01  0.1141E+03
      1.440  0.9463E+01  0.1151E+03
      1.547  0.9586E+01  0.1162E+03
      1.655  0.6805E+01  0.1171E+03
      1.763  0.6431E+01  0.1178E+03
      1.870  0.6113E+01  0.1185E+03
      1.978  0.4760E+01  0.1190E+03
      2.086  0.3707E+01  0.1195E+03
      2.194  0.4588E+01  0.1199E+03
      2.301  0.8242E+01  0.1206E+03
      2.409  0.8869E+01  0.1214E+03
      2.517  0.4794E+01  0.1223E+03
      2.624  0.7868E+01  0.1230E+03
      2.732  0.6888E+01  0.1238E+03
      2.840  0.5258E+01  0.1245E+03
      2.948  0.4368E+01  0.1250E+03
      3.055  0.3728E+01  0.1254E+03
      3.163  0.3298E+01  0.1258E+03
      3.271  0.3153E+01  0.1262E+03
      3.378  0.2799E+01  0.1265E+03
      3.486  0.2412E+01  0.1268E+03
      3.594  0.2041E+01  0.1270E+03
      3.702  0.1808E+01  0.1272E+03
      3.809  0.1571E+01  0.1274E+03
      3.917  0.1331E+01  0.1275E+03
      4.025  0.1099E+01  0.1277E+03
      4.132  0.9222E+00  0.1278E+03
      4.240  0.7071E+00  0.1279E+03
      4.348  0.5019E+00  0.1279E+03
      4.456  0.3090E+00  0.1280E+03
      4.563  0.1261E+00  0.1280E+03
      4.671  0.1623E-01  0.1280E+03
      4.779  0.1417E+00  0.1280E+03
      4.886  0.2781E+00  0.1280E+03
      4.994  0.4273E+00  0.1281E+03
      5.102  0.5926E+00  0.1281E+03
      5.209  0.7779E+00  0.1282E+03
      5.317  0.9969E+00  0.1283E+03
      5.425  0.1361E+01  0.1284E+03
      5.533  0.1735E+01  0.1286E+03
      5.640  0.2068E+01  0.1288E+03
      5.748  0.2431E+01  0.1290E+03
      5.856  0.3312E+01  0.1293E+03
      5.963  0.3445E+01  0.1297E+03
      6.071  0.4436E+01  0.1301E+03
      6.179  0.7534E+01  0.1308E+03
      6.287  0.8209E+01  0.1318E+03
      6.394  0.8205E+01  0.1327E+03
      6.502  0.7822E+01  0.1336E+03
      6.610  0.8064E+01  0.1344E+03
      6.717  0.6327E+01  0.1352E+03
      6.825  0.5979E+01  0.1358E+03
      6.933  0.5742E+01  0.1365E+03
      7.041  0.4871E+01  0.1370E+03
      7.148  0.4218E+01  0.1375E+03
      7.256  0.3617E+01  0.1380E+03
      7.364  0.3548E+01  0.1383E+03
      7.471  0.3878E+01  0.1387E+03
      7.579  0.4371E+01  0.1392E+03
      7.687  0.4625E+01  0.1397E+03
      7.795  0.4748E+01  0.1402E+03
      7.902  0.4578E+01  0.1407E+03
      8.010  0.4417E+01  0.1412E+03
      8.118  0.4255E+01  0.1416E+03
      8.225  0.4075E+01  0.1421E+03
      8.333  0.3881E+01  0.1425E+03
      8.441  0.3742E+01  0.1429E+03
      8.548  0.3621E+01  0.1433E+03
      8.656  0.3538E+01  0.1437E+03
      8.764  0.3463E+01  0.1441E+03
      8.872  0.3341E+01  0.1444E+03
      8.979  0.3320E+01  0.1448E+03
      9.087  0.3564E+01  0.1452E+03
      9.195  0.3792E+01  0.1456E+03
      9.302  0.4011E+01  0.1460E+03
      9.410  0.4085E+01  0.1464E+03
      9.518  0.3995E+01  0.1469E+03
      9.626  0.3926E+01  0.1473E+03
      9.733  0.3923E+01  0.1477E+03
      9.841  0.3909E+01  0.1481E+03
      9.949  0.3928E+01  0.1486E+03
     10.056  0.3928E+01  0.1490E+03
     10.164  0.3958E+01  0.1494E+03
     10.272  0.4001E+01  0.1498E+03
     10.380  0.4073E+01  0.1503E+03
     10.487  0.4196E+01  0.1507E+03
     10.595  0.5014E+01  0.1512E+03
     10.703  0.5815E+01  0.1518E+03
     10.810  0.5482E+01  0.1524E+03
     10.918  0.4610E+01  0.1529E+03
     11.026  0.4632E+01  0.1534E+03
     11.134  0.3993E+01  0.1539E+03
     11.241  0.3676E+01  0.1543E+03
     11.349  0.3453E+01  0.1547E+03
     11.457  0.3605E+01  0.1551E+03
     11.564  0.4128E+01  0.1555E+03
     11.672  0.2271E+01  0.1559E+03
     11.780  0.2788E+01  0.1561E+03
     11.887  0.4274E+01  0.1565E+03
     11.995  0.6300E+01  0.1571E+03
     12.103  0.7316E+01  0.1578E+03
     12.211  0.7624E+01  0.1586E+03
     12.318  0.8401E+01  0.1595E+03
     12.426  0.8064E+01  0.1604E+03
     12.534  0.5681E+01  0.1612E+03
     12.641  0.2917E+01  0.1616E+03
     12.749  0.1202E+01  0.1618E+03
     12.857  0.6653E+00  0.1619E+03
     12.965  0.3408E+00  0.1620E+03
     13.072  0.1568E+00  0.1620E+03
     13.180  0.4371E-01  0.1620E+03
     13.288  0.1302E-02  0.1620E+03
     13.395  0.0000E+00  0.1620E+03
     13.503  0.0000E+00  0.1620E+03
     13.611  0.0000E+00  0.1620E+03
     13.719  0.0000E+00  0.1620E+03
     13.826  0.0000E+00  0.1620E+03
     13.934  0.0000E+00  0.1620E+03
     14.042  0.0000E+00  0.1620E+03
     14.149  0.0000E+00  0.1620E+03
     14.257  0.0000E+00  0.1620E+03
     14.365  0.0000E+00  0.1620E+03
     14.473  0.0000E+00  0.1620E+03
     14.580  0.0000E+00  0.1620E+03
     14.688  0.0000E+00  0.1620E+03
     14.796  0.0000E+00  0.1620E+03
     14.903  0.0000E+00  0.1620E+03
     15.011  0.0000E+00  0.1620E+03
     15.119  0.0000E+00  0.1620E+03
     15.226  0.0000E+00  0.1620E+03
     15.334  0.0000E+00  0.1620E+03
