       N       E                     dE             d eps       ncg     rms          rms(c)
DAV:   1     0.471398403323E+03    0.47140E+03   -0.75485E+04 27384   0.167E+03
DAV:   2    -0.258937404953E+03   -0.73034E+03   -0.69986E+03 34140   0.305E+02
DAV:   3    -0.296110452035E+03   -0.37173E+02   -0.36713E+02 33432   0.654E+01
DAV:   4    -0.296692847703E+03   -0.58240E+00   -0.58104E+00 33108   0.893E+00
DAV:   5    -0.296706797400E+03   -0.13950E-01   -0.13944E-01 33252   0.129E+00    0.220E+01
DAV:   6    -0.284716411225E+03    0.11990E+02   -0.10870E+01 31260   0.101E+01    0.116E+01
DAV:   7    -0.280934697556E+03    0.37817E+01   -0.10949E+01 30396   0.102E+01    0.163E+00
DAV:   8    -0.280961315701E+03   -0.26618E-01   -0.22340E-01 31596   0.152E+00    0.472E-01
DAV:   9    -0.280963893193E+03   -0.25775E-02   -0.59467E-03 33528   0.315E-01    0.752E-02
DAV:  10    -0.280963983386E+03   -0.90193E-04   -0.51391E-04 33096   0.730E-02    0.435E-02
DAV:  11    -0.280964069095E+03   -0.85709E-04   -0.12033E-04 31416   0.398E-02    0.169E-02
DAV:  12    -0.280964087012E+03   -0.17918E-04   -0.36177E-05 32616   0.214E-02    0.614E-03
DAV:  13    -0.280964087324E+03   -0.31181E-06   -0.96629E-06 26760   0.877E-03
   1 F= -.28468457E+03 E0= -.28468457E+03  d E =0.000000E+00
