   4   4   0   0
  0.8905205E+01  0.2466437E-09  0.2466437E-09  0.6764386E-09  0.5000000E-15
  1.000000000000000E-004
  CAR 
 graphite                                
     18.47897874    -17.01694948  301      4.60321040      1.00000000
    -17.017  0.0000E+00  0.0000E+00
    -16.899  0.0000E+00  0.0000E+00
    -16.780  0.0000E+00  0.0000E+00
    -16.662  0.0000E+00  0.0000E+00
    -16.544  0.0000E+00  0.0000E+00
    -16.425  0.0000E+00  0.0000E+00
    -16.307  0.0000E+00  0.0000E+00
    -16.189  0.0000E+00  0.0000E+00
    -16.070  0.0000E+00  0.0000E+00
    -15.952  0.0000E+00  0.0000E+00
    -15.834  0.0000E+00  0.0000E+00
    -15.715  0.0000E+00  0.0000E+00
    -15.597  0.0000E+00  0.0000E+00
    -15.479  0.0000E+00  0.0000E+00
    -15.360  0.0000E+00  0.0000E+00
    -15.242  0.0000E+00  0.0000E+00
    -15.124  0.0000E+00  0.0000E+00
    -15.006  0.2449E-04  0.9415E-07
    -14.887  0.1216E-02  0.6132E-04
    -14.769  0.1993E-02  0.2617E-03
    -14.651  0.3092E-02  0.5656E-03
    -14.532  0.3014E-02  0.9327E-03
    -14.414  0.3151E-02  0.1300E-02
    -14.296  0.3116E-02  0.1671E-02
    -14.177  0.3014E-02  0.2035E-02
    -14.059  0.3032E-02  0.2390E-02
    -13.941  0.3142E-02  0.2755E-02
    -13.822  0.3179E-02  0.3132E-02
    -13.704  0.3157E-02  0.3507E-02
    -13.586  0.3065E-02  0.3876E-02
    -13.467  0.3057E-02  0.4238E-02
    -13.349  0.3077E-02  0.4600E-02
    -13.231  0.3125E-02  0.4967E-02
    -13.112  0.3183E-02  0.5340E-02
    -12.994  0.3222E-02  0.5720E-02
    -12.876  0.3192E-02  0.6100E-02
    -12.757  0.3142E-02  0.6475E-02
    -12.639  0.3117E-02  0.6844E-02
    -12.521  0.3134E-02  0.7214E-02
    -12.402  0.3150E-02  0.7586E-02
    -12.284  0.3173E-02  0.7960E-02
    -12.166  0.3205E-02  0.8337E-02
    -12.048  0.3244E-02  0.8719E-02
    -11.929  0.3276E-02  0.9105E-02
    -11.811  0.3264E-02  0.9491E-02
    -11.693  0.3233E-02  0.9876E-02
    -11.574  0.3226E-02  0.1026E-01
    -11.456  0.3234E-02  0.1064E-01
    -11.338  0.3259E-02  0.1102E-01
    -11.219  0.3288E-02  0.1141E-01
    -11.101  0.3317E-02  0.1180E-01
    -10.983  0.3346E-02  0.1220E-01
    -10.864  0.3390E-02  0.1259E-01
    -10.746  0.3452E-02  0.1300E-01
    -10.628  0.3516E-02  0.1341E-01
    -10.509  0.3571E-02  0.1383E-01
    -10.391  0.3662E-02  0.1426E-01
    -10.273  0.3809E-02  0.1470E-01
    -10.154  0.3967E-02  0.1516E-01
    -10.036  0.5264E-02  0.1570E-01
     -9.918  0.6139E-02  0.1638E-01
     -9.799  0.4805E-02  0.1703E-01
     -9.681  0.3479E-02  0.1752E-01
     -9.563  0.2750E-02  0.1788E-01
     -9.444  0.2469E-02  0.1818E-01
     -9.326  0.2188E-02  0.1846E-01
     -9.208  0.3740E-02  0.1886E-01
     -9.090  0.2135E-02  0.1927E-01
     -8.971  0.1173E-02  0.1942E-01
     -8.853  0.1033E-02  0.1955E-01
     -8.735  0.8928E-03  0.1966E-01
     -8.616  0.7557E-03  0.1976E-01
     -8.498  0.9381E-03  0.1986E-01
     -8.380  0.1225E-02  0.1998E-01
     -8.261  0.1511E-02  0.2015E-01
     -8.143  0.2759E-02  0.2037E-01
     -8.025  0.5351E-02  0.2085E-01
     -7.906  0.4468E-02  0.2144E-01
     -7.788  0.3744E-02  0.2190E-01
     -7.670  0.4479E-02  0.2238E-01
     -7.551  0.5213E-02  0.2296E-01
     -7.433  0.5948E-02  0.2362E-01
     -7.315  0.5183E-02  0.2432E-01
     -7.196  0.3569E-02  0.2481E-01
     -7.078  0.3463E-02  0.2523E-01
     -6.960  0.3373E-02  0.2563E-01
     -6.841  0.3288E-02  0.2603E-01
     -6.723  0.3202E-02  0.2641E-01
     -6.605  0.3109E-02  0.2679E-01
     -6.486  0.3015E-02  0.2715E-01
     -6.368  0.2920E-02  0.2750E-01
     -6.250  0.2825E-02  0.2784E-01
     -6.132  0.2731E-02  0.2817E-01
     -6.013  0.2636E-02  0.2849E-01
     -5.895  0.2564E-02  0.2879E-01
     -5.777  0.2782E-02  0.2911E-01
     -5.658  0.3012E-02  0.2945E-01
     -5.540  0.3242E-02  0.2982E-01
     -5.422  0.3472E-02  0.3022E-01
     -5.303  0.3702E-02  0.3064E-01
     -5.185  0.3932E-02  0.3109E-01
     -5.067  0.4162E-02  0.3157E-01
     -4.948  0.4153E-02  0.3206E-01
     -4.830  0.3948E-02  0.3255E-01
     -4.712  0.3824E-02  0.3300E-01
     -4.593  0.3822E-02  0.3345E-01
     -4.475  0.3820E-02  0.3391E-01
     -4.357  0.3819E-02  0.3436E-01
     -4.238  0.3861E-02  0.3481E-01
     -4.120  0.3941E-02  0.3527E-01
     -4.002  0.4020E-02  0.3574E-01
     -3.883  0.4102E-02  0.3622E-01
     -3.765  0.4355E-02  0.3672E-01
     -3.647  0.4837E-02  0.3727E-01
     -3.528  0.5051E-02  0.3785E-01
     -3.410  0.5401E-02  0.3846E-01
     -3.292  0.5665E-02  0.3912E-01
     -3.174  0.5859E-02  0.3980E-01
     -3.055  0.6024E-02  0.4051E-01
     -2.937  0.6369E-02  0.4124E-01
     -2.819  0.7099E-02  0.4202E-01
     -2.700  0.7327E-02  0.4289E-01
     -2.582  0.7231E-02  0.4375E-01
     -2.464  0.7002E-02  0.4459E-01
     -2.345  0.6571E-02  0.4539E-01
     -2.227  0.7406E-02  0.4619E-01
     -2.109  0.8351E-02  0.4713E-01
     -1.990  0.9266E-02  0.4817E-01
     -1.872  0.1060E-01  0.4934E-01
     -1.754  0.1555E-01  0.5085E-01
     -1.635  0.1090E-01  0.5230E-01
     -1.517  0.9403E-02  0.5349E-01
     -1.399  0.8260E-02  0.5454E-01
     -1.280  0.7477E-02  0.5546E-01
     -1.162  0.5425E-02  0.5623E-01
     -1.044  0.4640E-02  0.5681E-01
     -0.925  0.4745E-02  0.5735E-01
     -0.807  0.5248E-02  0.5794E-01
     -0.689  0.6327E-02  0.5861E-01
     -0.571  0.6609E-02  0.5941E-01
     -0.452  0.7006E-02  0.6020E-01
     -0.334  0.9099E-02  0.6119E-01
     -0.216  0.7742E-02  0.6218E-01
     -0.097  0.7072E-02  0.6305E-01
      0.021  0.6631E-02  0.6386E-01
      0.139  0.6308E-02  0.6462E-01
      0.258  0.6004E-02  0.6535E-01
      0.376  0.5796E-02  0.6605E-01
      0.494  0.5712E-02  0.6673E-01
      0.613  0.6006E-02  0.6742E-01
      0.731  0.5872E-02  0.6812E-01
      0.849  0.5748E-02  0.6881E-01
      0.968  0.5908E-02  0.6949E-01
      1.086  0.5803E-02  0.7019E-01
      1.204  0.5494E-02  0.7086E-01
      1.323  0.6113E-02  0.7154E-01
      1.441  0.5171E-02  0.7221E-01
      1.559  0.4274E-02  0.7276E-01
      1.678  0.4382E-02  0.7324E-01
      1.796  0.4704E-02  0.7379E-01
      1.914  0.4446E-02  0.7433E-01
      2.033  0.4376E-02  0.7485E-01
      2.151  0.4390E-02  0.7537E-01
      2.269  0.4351E-02  0.7588E-01
      2.387  0.4338E-02  0.7640E-01
      2.506  0.4298E-02  0.7691E-01
      2.624  0.3528E-02  0.7740E-01
      2.742  0.3329E-02  0.7780E-01
      2.861  0.2726E-02  0.7816E-01
      2.979  0.2284E-02  0.7846E-01
      3.097  0.1938E-02  0.7871E-01
      3.216  0.1765E-02  0.7892E-01
      3.334  0.1586E-02  0.7912E-01
      3.452  0.1402E-02  0.7930E-01
      3.571  0.1218E-02  0.7945E-01
      3.689  0.1026E-02  0.7959E-01
      3.807  0.8458E-03  0.7970E-01
      3.926  0.6903E-03  0.7979E-01
      4.044  0.5371E-03  0.7986E-01
      4.162  0.4041E-03  0.7992E-01
      4.281  0.2833E-03  0.7996E-01
      4.399  0.1715E-03  0.7998E-01
      4.517  0.6712E-04  0.8000E-01
      4.636  0.1818E-04  0.8000E-01
      4.754  0.9730E-04  0.8001E-01
      4.872  0.1846E-03  0.8002E-01
      4.991  0.2818E-03  0.8005E-01
      5.109  0.3899E-03  0.8009E-01
      5.227  0.5147E-03  0.8014E-01
      5.345  0.6700E-03  0.8021E-01
      5.464  0.8342E-03  0.8030E-01
      5.582  0.9987E-03  0.8041E-01
      5.700  0.1265E-02  0.8054E-01
      5.819  0.1981E-02  0.8074E-01
      5.937  0.2318E-02  0.8100E-01
      6.055  0.2562E-02  0.8128E-01
      6.174  0.4061E-02  0.8165E-01
      6.292  0.5967E-02  0.8226E-01
      6.410  0.4557E-02  0.8285E-01
      6.529  0.4491E-02  0.8338E-01
      6.647  0.4439E-02  0.8391E-01
      6.765  0.4406E-02  0.8443E-01
      6.884  0.4417E-02  0.8496E-01
      7.002  0.4084E-02  0.8546E-01
      7.120  0.3385E-02  0.8589E-01
      7.239  0.3177E-02  0.8628E-01
      7.357  0.3005E-02  0.8664E-01
      7.475  0.2858E-02  0.8699E-01
      7.594  0.2736E-02  0.8732E-01
      7.712  0.2639E-02  0.8764E-01
      7.830  0.2572E-02  0.8794E-01
      7.949  0.2510E-02  0.8825E-01
      8.067  0.2457E-02  0.8854E-01
      8.185  0.2406E-02  0.8883E-01
      8.303  0.2357E-02  0.8911E-01
      8.422  0.2307E-02  0.8938E-01
      8.540  0.2258E-02  0.8965E-01
      8.658  0.2209E-02  0.8992E-01
      8.777  0.2145E-02  0.9018E-01
      8.895  0.2100E-02  0.9043E-01
      9.013  0.2228E-02  0.9068E-01
      9.132  0.2343E-02  0.9095E-01
      9.250  0.2338E-02  0.9123E-01
      9.368  0.2393E-02  0.9151E-01
      9.487  0.2473E-02  0.9180E-01
      9.605  0.2529E-02  0.9210E-01
      9.723  0.2547E-02  0.9240E-01
      9.842  0.2578E-02  0.9270E-01
      9.960  0.2623E-02  0.9301E-01
     10.078  0.2673E-02  0.9332E-01
     10.197  0.2725E-02  0.9364E-01
     10.315  0.3421E-02  0.9399E-01
     10.433  0.3701E-02  0.9442E-01
     10.552  0.3468E-02  0.9485E-01
     10.670  0.3069E-02  0.9524E-01
     10.788  0.2650E-02  0.9557E-01
     10.907  0.2435E-02  0.9588E-01
     11.025  0.2132E-02  0.9614E-01
     11.143  0.2027E-02  0.9638E-01
     11.261  0.1940E-02  0.9662E-01
     11.380  0.1919E-02  0.9685E-01
     11.498  0.2013E-02  0.9708E-01
     11.616  0.2145E-02  0.9732E-01
     11.735  0.2338E-02  0.9759E-01
     11.853  0.2771E-02  0.9788E-01
     11.971  0.4221E-02  0.9829E-01
     12.090  0.5939E-02  0.9888E-01
     12.208  0.6817E-02  0.9963E-01
     12.326  0.8481E-02  0.1006E+00
     12.445  0.9152E-02  0.1016E+00
     12.563  0.9772E-02  0.1027E+00
     12.681  0.1006E-01  0.1039E+00
     12.800  0.1014E-01  0.1051E+00
     12.918  0.1007E-01  0.1063E+00
     13.036  0.1453E-01  0.1078E+00
     13.155  0.1084E-01  0.1093E+00
     13.273  0.7386E-02  0.1104E+00
     13.391  0.5901E-02  0.1111E+00
     13.510  0.5085E-02  0.1118E+00
     13.628  0.4856E-02  0.1123E+00
     13.746  0.4895E-02  0.1129E+00
     13.865  0.4696E-02  0.1135E+00
     13.983  0.4149E-02  0.1140E+00
     14.101  0.3664E-02  0.1145E+00
     14.219  0.3243E-02  0.1149E+00
     14.338  0.2976E-02  0.1153E+00
     14.456  0.3124E-02  0.1156E+00
     14.574  0.3969E-02  0.1160E+00
     14.693  0.4050E-02  0.1166E+00
     14.811  0.3640E-02  0.1170E+00
     14.929  0.3838E-02  0.1174E+00
     15.048  0.4457E-02  0.1179E+00
     15.166  0.3560E-02  0.1184E+00
     15.284  0.2562E-02  0.1188E+00
     15.403  0.2080E-02  0.1191E+00
     15.521  0.1732E-02  0.1193E+00
     15.639  0.1610E-02  0.1195E+00
     15.758  0.1391E-02  0.1197E+00
     15.876  0.8082E-03  0.1198E+00
     15.994  0.6190E-03  0.1199E+00
     16.113  0.3838E-03  0.1200E+00
     16.231  0.1593E-03  0.1200E+00
     16.349  0.4166E-04  0.1200E+00
     16.468  0.2287E-06  0.1200E+00
     16.586  0.0000E+00  0.1200E+00
     16.704  0.0000E+00  0.1200E+00
     16.823  0.0000E+00  0.1200E+00
     16.941  0.0000E+00  0.1200E+00
     17.059  0.0000E+00  0.1200E+00
     17.177  0.0000E+00  0.1200E+00
     17.296  0.0000E+00  0.1200E+00
     17.414  0.0000E+00  0.1200E+00
     17.532  0.0000E+00  0.1200E+00
     17.651  0.0000E+00  0.1200E+00
     17.769  0.0000E+00  0.1200E+00
     17.887  0.0000E+00  0.1200E+00
     18.006  0.0000E+00  0.1200E+00
     18.124  0.0000E+00  0.1200E+00
     18.242  0.0000E+00  0.1200E+00
     18.361  0.0000E+00  0.1200E+00
     18.479  0.0000E+00  0.1200E+00
