   32   32    1    1
  0.8951641E+01  0.4934311E-09  0.4934311E-09  0.1358600E-08  0.5000000E-15
  1.000000000000000E-004
  CAR 
 graphite                                
    128    163     84
 
  0.0000000E+00  0.0000000E+00  0.0000000E+00  0.3086420E-02
    1      -15.046442
    2      -14.914465
    3      -14.914102
    4      -14.773641
    5       -9.731565
    6       -9.729831
    7       -9.728112
    8       -9.678862
    9       -9.675423
   10       -9.674994
   11       -9.674601
   12       -9.674513
   13       -9.670968
   14       -9.630220
   15       -9.628449
   16       -9.625863
   17       -8.660291
   18       -8.656904
   19       -8.654945
   20       -8.631321
   21       -8.627907
   22       -8.626632
   23       -8.626420
   24       -8.626326
   25       -8.622472
   26       -8.583064
   27       -8.580184
   28       -8.578111
   29       -3.878480
   30       -3.043942
   31       -3.042372
   32       -2.032031
   33       -1.832962
   34       -1.830339
   35       -1.826368
   36       -1.809705
   37       -1.806004
   38       -1.805998
   39       -1.805427
   40       -1.802858
   41       -1.799687
   42       -1.782747
   43       -1.780706
   44       -1.776128
   45        1.551587
   46        1.562317
   47        1.564931
   48        1.566671
   49        1.571450
   50        1.573176
   51        1.575681
   52        1.586335
   53        1.833703
   54        1.835368
   55        1.836878
   56        2.207355
   57        2.211476
   58        2.211626
   59        2.211813
   60        2.212165
   61        2.216125
   62        2.475981
   63        2.478077
   64        2.480155
   65        6.069361
   66        6.073791
   67        6.076529
   68        6.213922
   69        6.219158
   70        6.220841
   71        6.221339
   72        6.221585
   73        6.226793
   74        6.711316
   75        6.715677
   76        6.718004
   77        8.771416
   78       11.311255
   79       11.314923
   80       11.769389
   81       11.773043
   82       11.777525
   83       11.944649
   84       11.953113
 
  0.1111111E+00 -0.6938894E-17  0.0000000E+00  0.6172840E-02
    1      -14.972947
    2      -14.841458
    3      -14.841096
    4      -14.701318
    5      -10.521135
    6      -10.427537
    7      -10.427165
    8      -10.330254
    9       -9.977433
   10       -9.975300
   11       -9.897479
   12       -9.895949
   13       -9.895208
   14       -9.892981
   15       -9.815225
   16       -9.812790
   17       -8.353693
   18       -8.350465
   19       -8.290255
   20       -8.287440
   21       -8.285897
   22       -8.285404
   23       -8.217519
   24       -8.214558
   25       -7.837897
   26       -7.765506
   27       -7.763519
   28       -7.687582
   29       -3.789303
   30       -2.957006
   31       -2.955438
   32       -2.057344
   33       -2.052816
   34       -2.030354
   35       -2.029699
   36       -2.026626
   37       -2.023542
   38       -2.002103
   39       -1.997075
   40       -1.948411
   41       -1.759755
   42       -1.736293
   43       -1.733837
   44       -1.710332
   45        1.247527
   46        1.262407
   47        1.272221
   48        1.276695
   49        1.288395
   50        1.396782
   51        1.407543
   52        1.411762
   53        1.420689
   54        1.721059
   55        1.722895
   56        1.783739
   57        1.786107
   58        2.158714
   59        2.159754
   60        2.160030
   61        2.164057
   62        2.315171
   63        2.523609
   64        2.526194
   65        6.149371
   66        6.154220
   67        6.344883
   68        6.350015
   69        6.351703
   70        6.353077
   71        6.454547
   72        6.760732
   73        6.764572
   74        6.845046
   75        6.849343
   76        7.312297
   77        8.860549
   78       11.389510
   79       11.393123
   80       11.811835
   81       11.984835
   82       11.986253
   83       12.105846
   84       12.111480
 
  0.2222222E+00  0.0000000E+00  0.0000000E+00  0.6172840E-02
    1      -14.752630
    2      -14.622859
    3      -14.622501
    4      -14.484663
    5      -11.529891
    6      -11.425313
    7      -11.425012
    8      -11.315729
    9      -10.324024
   10      -10.322110
   11      -10.232923
   12      -10.231367
   13      -10.230809
   14      -10.229046
   15      -10.136614
   16      -10.134584
   17       -7.672589
   18       -7.669476
   19       -7.602840
   20       -7.600295
   21       -7.598611
   22       -7.598137
   23       -7.527011
   24       -7.523933
   25       -6.514805
   26       -6.447172
   27       -6.445327
   28       -6.375189
   29       -3.522472
   30       -2.697197
   31       -2.695635
   32       -2.663324
   33       -2.659122
   34       -2.629741
   35       -2.629303
   36       -2.626427
   37       -2.623406
   38       -2.594595
   39       -2.589973
   40       -1.698524
   41       -1.545281
   42       -1.522319
   43       -1.519721
   44       -1.496685
   45        0.234425
   46        0.436342
   47        0.453791
   48        0.458021
   49        0.476211
   50        0.896421
   51        0.898226
   52        0.978789
   53        0.992495
   54        0.996813
   55        1.009605
   56        1.503773
   57        1.505605
   58        1.645941
   59        2.037346
   60        2.038454
   61        2.038730
   62        2.042595
   63        2.568793
   64        2.571352
   65        6.402597
   66        6.407134
   67        6.678233
   68        6.683246
   69        6.684632
   70        6.685926
   71        7.151918
   72        7.155610
   73        7.589482
   74        7.981011
   75        7.984012
   76        8.522619
   77        9.128634
   78       11.623237
   79       11.626662
   80       11.926855
   81       12.093864
   82       12.095338
   83       12.244616
   84       12.933273
 
  0.3333333E+00 -0.5551115E-16  0.0000000E+00  0.6172840E-02
    1      -14.386734
    2      -14.259794
    3      -14.259442
    4      -14.124800
    5      -12.441251
    6      -12.329397
    7      -12.329070
    8      -12.211336
    9      -10.580620
   10      -10.578841
   11      -10.485267
   12      -10.483636
   13      -10.483293
   14      -10.481649
   15      -10.384253
   16      -10.382401
   17       -6.865948
   18       -6.862769
   19       -6.802026
   20       -6.799248
   21       -6.797498
   22       -6.797211
   23       -6.733057
   24       -6.730041
   25       -5.083179
   26       -5.024767
   27       -5.022729
   28       -4.962620
   29       -3.477734
   30       -3.474034
   31       -3.437828
   32       -3.437735
   33       -3.435285
   34       -3.432209
   35       -3.396425
   36       -3.392353
   37       -3.080705
   38       -2.267740
   39       -2.266201
   40       -1.286509
   41       -1.196837
   42       -1.175056
   43       -1.172237
   44       -1.150018
   45       -0.783608
   46       -0.748092
   47       -0.721010
   48       -0.717156
   49       -0.689834
   50       -0.055427
   51       -0.053809
   52        0.417829
   53        0.434440
   54        0.438347
   55        0.454713
   56        0.799162
   57        1.314675
   58        1.316519
   59        1.913047
   60        1.914239
   61        1.914514
   62        1.918239
   63        2.565484
   64        2.567966
   65        6.764613
   66        6.768402
   67        7.068063
   68        7.073010
   69        7.073924
   70        7.075080
   71        7.460679
   72        7.463768
   73        9.093556
   74        9.456295
   75        9.458674
   76        9.576131
   77        9.931345
   78       11.876938
   79       11.995289
   80       11.998224
   81       12.174112
   82       12.259747
   83       12.261524
   84       12.534751
 
  0.4444444E+00  0.0000000E+00  0.0000000E+00  0.6172840E-02
    1      -13.877087
    2      -13.754101
    3      -13.753758
    4      -13.623575
    5      -13.226887
    6      -13.108851
    7      -13.108509
    8      -12.983975
    9      -10.712988
   10      -10.711275
   11      -10.616206
   12      -10.614480
   13      -10.614361
   14      -10.612694
   15      -10.513118
   16      -10.511344
   17       -6.120158
   18       -6.117346
   19       -6.074838
   20       -6.071120
   21       -6.070404
   22       -6.069925
   23       -6.026040
   24       -6.023692
   25       -4.225928
   26       -4.223783
   27       -4.193568
   28       -4.192409
   29       -4.192116
   30       -4.188583
   31       -4.156159
   32       -4.153383
   33       -3.604233
   34       -3.556165
   35       -3.553724
   36       -3.504440
   37       -2.469046
   38       -2.133590
   39       -2.096296
   40       -2.093365
   41       -2.054732
   42       -1.697247
   43       -1.674173
   44       -1.672561
   45       -0.929600
   46       -0.928020
   47       -0.731737
   48       -0.720105
   49       -0.710962
   50       -0.707810
   51       -0.686991
   52       -0.177633
   53       -0.158632
   54       -0.155243
   55       -0.135972
   56       -0.014655
   57        1.209769
   58        1.211620
   59        1.838235
   60        1.839475
   61        1.839748
   62        1.843404
   63        2.548253
   64        2.550676
   65        7.051183
   66        7.053974
   67        7.333858
   68        7.338837
   69        7.339295
   70        7.340291
   71        7.633825
   72        7.636632
   73       10.199324
   74       10.712430
   75       10.984317
   76       10.993045
   77       11.001393
   78       11.389199
   79       12.268538
   80       12.277831
   81       12.301883
   82       12.379588
   83       12.445205
   84       12.447770
 
  0.1694066E-20  0.1111111E+00  0.0000000E+00  0.6172840E-02
    1      -14.972949
    2      -14.841460
    3      -14.841098
    4      -14.701319
    5      -10.521059
    6      -10.427403
    7      -10.427121
    8      -10.330150
    9       -9.977659
   10       -9.975355
   11       -9.897816
   12       -9.895942
   13       -9.895205
   14       -9.893269
   15       -9.815268
   16       -9.813113
   17       -8.353824
   18       -8.349225
   19       -8.290606
   20       -8.287438
   21       -8.285885
   22       -8.282715
   23       -8.217708
   24       -8.213105
   25       -7.838824
   26       -7.765576
   27       -7.765345
   28       -7.688553
   29       -3.789298
   30       -2.957001
   31       -2.955433
   32       -2.058486
   33       -2.052927
   34       -2.032218
   35       -2.029700
   36       -2.026626
   37       -2.024153
   38       -2.003068
   39       -1.997459
   40       -1.948404
   41       -1.758316
   42       -1.733853
   43       -1.733722
   44       -1.709173
   45        1.247673
   46        1.261038
   47        1.272160
   48        1.272234
   49        1.283580
   50        1.401578
   51        1.411760
   52        1.412361
   53        1.422546
   54        1.720184
   55        1.722736
   56        1.785105
   57        1.786660
   58        2.156906
   59        2.159975
   60        2.160034
   61        2.163167
   62        2.316397
   63        2.522760
   64        2.525624
   65        6.149652
   66        6.156062
   67        6.345403
   68        6.349986
   69        6.351999
   70        6.356409
   71        6.452604
   72        6.760020
   73        6.761745
   74        6.845199
   75        6.851267
   76        7.310649
   77        8.860554
   78       11.389536
   79       11.393148
   80       11.812315
   81       11.985665
   82       11.986313
   83       12.108430
   84       12.110849
 
  0.1111111E+00  0.1111111E+00  0.0000000E+00  0.6172840E-02
    1      -14.826016
    2      -14.695658
    3      -14.695299
    4      -14.556804
    5      -10.984538
    6      -10.981561
    7      -10.886422
    8      -10.883395
    9      -10.883369
   10      -10.880421
   11      -10.780864
   12      -10.777818
   13       -9.540983
   14       -9.487671
   15       -9.486201
   16       -9.441225
   17       -8.476552
   18       -8.448724
   19       -8.445671
   20       -8.402898
   21       -7.158002
   22       -7.154890
   23       -7.087804
   24       -7.085460
   25       -7.085436
   26       -7.081352
   27       -7.012172
   28       -7.008792
   29       -3.611244
   30       -2.783612
   31       -2.782049
   32       -2.734715
   33       -2.701393
   34       -2.699108
   35       -2.665132
   36       -1.913889
   37       -1.910972
   38       -1.888358
   39       -1.884645
   40       -1.884639
   41       -1.883157
   42       -1.858933
   43       -1.856509
   44       -1.781623
   45        0.731666
   46        0.741852
   47        0.745751
   48        0.756799
   49        0.817143
   50        0.820062
   51        1.084318
   52        1.094066
   53        1.097976
   54        1.106122
   55        1.424986
   56        1.428237
   57        1.428389
   58        1.430424
   59        2.086336
   60        2.088789
   61        2.103095
   62        2.477143
   63        2.480209
   64        2.740359
   65        6.048994
   66        6.140790
   67        6.145244
   68        6.541809
   69        6.937975
   70        6.940678
   71        7.300417
   72        7.301951
   73        7.302188
   74        7.306274
   75        7.836752
   76        7.839191
   77        9.039327
   78       11.546593
   79       11.550092
   80       12.182942
   81       12.186911
   82       12.355279
   83       12.358878
   84       12.362258
 
  0.2222222E+00  0.1111111E+00  0.0000000E+00  0.6172840E-02
    1      -14.532915
    2      -14.404822
    3      -14.404468
    4      -14.268538
    5      -11.948151
    6      -11.840189
    7      -11.839880
    8      -11.726687
    9      -11.323834
   10      -11.221162
   11      -11.220865
   12      -11.113278
   13       -9.591555
   14       -9.514170
   15       -9.513365
   16       -9.435523
   17       -8.008057
   18       -7.949073
   19       -7.946524
   20       -7.881707
   21       -6.375435
   22       -6.310114
   23       -6.309745
   24       -6.242388
   25       -5.776360
   26       -5.713969
   27       -5.712099
   28       -5.647724
   29       -3.640454
   30       -3.599663
   31       -3.597417
   32       -3.555489
   33       -3.256888
   34       -2.439037
   35       -2.437843
   36       -2.437287
   37       -2.405264
   38       -2.404821
   39       -2.371620
   40       -1.627086
   41       -1.602042
   42       -1.599516
   43       -1.574139
   44       -1.450571
   45       -0.222872
   46       -0.218630
   47       -0.202527
   48       -0.197312
   49       -0.179268
   50        0.477112
   51        0.478979
   52        0.485851
   53        0.540419
   54        0.553538
   55        0.558056
   56        0.570683
   57        1.141154
   58        1.142713
   59        1.285532
   60        1.883478
   61        2.241236
   62        2.678822
   63        2.681738
   64        3.043440
   65        6.028643
   66        6.148044
   67        6.152303
   68        6.485947
   69        7.512513
   70        7.869482
   71        7.871356
   72        8.293604
   73        8.327147
   74        8.670202
   75        8.672714
   76        9.159347
   77        9.397889
   78       11.858543
   79       11.861760
   80       12.295321
   81       12.495477
   82       12.497030
   83       12.505605
   84       12.863706
 
  0.3333333E+00  0.1111111E+00  0.0000000E+00  0.6172840E-02
    1      -14.095148
    2      -13.970406
    3      -13.970059
    4      -13.837996
    5      -12.797213
    6      -12.682562
    7      -12.682233
    8      -12.561471
    9      -11.531616
   10      -11.427078
   11      -11.426771
   12      -11.317149
   13       -9.736020
   14       -9.649385
   15       -9.648996
   16       -9.559210
   17       -7.243543
   18       -7.184660
   19       -7.182258
   20       -7.121144
   21       -5.578481
   22       -5.524863
   23       -5.523833
   24       -5.469205
   25       -4.574993
   26       -4.532612
   27       -4.530219
   28       -4.485542
   29       -4.328669
   30       -4.276347
   31       -4.274268
   32       -4.220586
   33       -3.135884
   34       -3.101170
   35       -3.099920
   36       -3.063532
   37       -2.729915
   38       -1.927562
   39       -1.926075
   40       -1.465530
   41       -1.435320
   42       -1.431515
   43       -1.401961
   44       -1.211371
   45       -1.192103
   46       -1.187751
   47       -1.185063
   48       -1.161166
   49       -0.960931
   50       -0.444605
   51       -0.443036
   52       -0.082886
   53       -0.065074
   54       -0.060855
   55       -0.043109
   56        0.277815
   57        0.440903
   58        0.958252
   59        0.959859
   60        1.744654
   61        2.242279
   62        2.768004
   63        2.770490
   64        3.300955
   65        6.031909
   66        6.266241
   67        6.269885
   68        6.583194
   69        8.019303
   70        8.323354
   71        8.325559
   72        8.660040
   73        9.855161
   74        9.934944
   75       10.174045
   76       10.176617
   77       10.582434
   78       11.519896
   79       12.285640
   80       12.288938
   81       12.579415
   82       12.667185
   83       12.669068
   84       12.902886
 
  0.4444444E+00  0.1111111E+00  0.0000000E+00  0.6172840E-02
    1      -13.516669
    2      -13.513894
    3      -13.397580
    4      -13.394891
    5      -13.394766
    6      -13.391978
    7      -13.268997
    8      -13.266151
    9      -11.601342
   10      -11.496268
   11      -11.495955
   12      -11.385690
   13       -9.791900
   14       -9.703483
   15       -9.703202
   16       -9.611273
   17       -6.740000
   18       -6.702670
   19       -6.700421
   20       -6.665137
   21       -5.104658
   22       -5.091679
   23       -5.074275
   24       -5.071376
   25       -5.069667
   26       -5.067158
   27       -5.042128
   28       -5.039145
   29       -3.554733
   30       -3.534897
   31       -3.531844
   32       -3.507534
   33       -2.869856
   34       -2.867238
   35       -2.827651
   36       -2.827273
   37       -2.827219
   38       -2.821564
   39       -2.784040
   40       -2.780386
   41       -2.038522
   42       -2.036295
   43       -1.259302
   44       -1.256221
   45       -1.256076
   46       -1.253737
   47       -0.689613
   48       -0.682820
   49       -0.668027
   50       -0.660923
   51       -0.660859
   52       -0.659446
   53       -0.640714
   54       -0.637191
   55       -0.324705
   56       -0.322134
   57        0.207273
   58        0.895598
   59        0.897281
   60        1.695888
   61        2.231114
   62        2.789707
   63        2.791726
   64        3.393372
   65        6.047417
   66        6.333499
   67        6.336301
   68        6.638016
   69        8.238549
   70        8.501016
   71        8.503681
   72        8.765201
   73       10.645955
   74       10.646948
   75       11.442873
   76       11.446163
   77       11.661244
   78       11.664563
   79       11.665578
   80       11.670439
   81       11.999863
   82       12.002927
   83       12.739846
   84       12.746176
 
 -0.4444444E+00  0.1111111E+00  0.0000000E+00  0.6172840E-02
    1      -14.095272
    2      -13.970514
    3      -13.970167
    4      -13.838110
    5      -12.797045
    6      -12.682398
    7      -12.682060
    8      -12.561302
    9      -11.531840
   10      -11.427302
   11      -11.426990
   12      -11.317369
   13       -9.735893
   14       -9.649206
   15       -9.648949
   16       -9.559114
   17       -7.241038
   18       -7.181426
   19       -7.180716
   20       -7.118864
   21       -5.581105
   22       -5.528112
   23       -5.525624
   24       -5.471626
   25       -4.577695
   26       -4.534612
   27       -4.533865
   28       -4.488490
   29       -4.328661
   30       -4.276484
   31       -4.274053
   32       -4.220509
   33       -3.132887
   34       -3.098870
   35       -3.095882
   36       -3.060163
   37       -2.729948
   38       -1.927579
   39       -1.926100
   40       -1.466512
   41       -1.435803
   42       -1.433389
   43       -1.403541
   44       -1.211554
   45       -1.192076
   46       -1.188027
   47       -1.184967
   48       -1.161207
   49       -0.960930
   50       -0.444605
   51       -0.443001
   52       -0.081098
   53       -0.063190
   54       -0.060360
   55       -0.042178
   56        0.277922
   57        0.440878
   58        0.958322
   59        0.960127
   60        1.744943
   61        2.241761
   62        2.767691
   63        2.769390
   64        3.299982
   65        6.034465
   66        6.268946
   67        6.271026
   68        6.584476
   69        8.017378
   70        8.321453
   71        8.324551
   72        8.659074
   73        9.855482
   74        9.934880
   75       10.174282
   76       10.177193
   77       10.582971
   78       11.519931
   79       12.285976
   80       12.289246
   81       12.578444
   82       12.665797
   83       12.668354
   84       12.904905
 
 -0.3333333E+00  0.1111111E+00  0.0000000E+00  0.6172840E-02
    1      -14.532992
    2      -14.404900
    3      -14.404546
    4      -14.268616
    5      -11.947954
    6      -11.839995
    7      -11.839676
    8      -11.726485
    9      -11.324276
   10      -11.221601
   11      -11.221299
   12      -11.113708
   13       -9.591423
   14       -9.513788
   15       -9.513560
   16       -9.435474
   17       -8.005093
   18       -7.945071
   19       -7.944847
   20       -7.878966
   21       -6.378222
   22       -6.313662
   23       -6.311672
   24       -6.245080
   25       -5.776514
   26       -5.714180
   27       -5.712169
   28       -5.647849
   29       -3.643933
   30       -3.602223
   31       -3.601988
   32       -3.559151
   33       -3.256913
   34       -2.438959
   35       -2.437406
   36       -2.433969
   37       -2.402371
   38       -2.399719
   39       -2.367454
   40       -1.627121
   41       -1.602148
   42       -1.599391
   43       -1.574101
   44       -1.450573
   45       -0.224573
   46       -0.219315
   47       -0.203969
   48       -0.201059
   49       -0.183145
   50        0.477371
   51        0.479115
   52        0.485743
   53        0.544745
   54        0.557462
   55        0.559533
   56        0.572892
   57        1.141316
   58        1.143310
   59        1.285474
   60        1.884078
   61        2.240200
   62        2.678219
   63        2.679809
   64        3.042067
   65        6.032490
   66        6.152665
   67        6.154438
   68        6.488705
   69        7.509411
   70        7.866143
   71        7.869552
   72        8.293828
   73        8.325041
   74        8.670318
   75        8.673166
   76        9.159757
   77        9.397844
   78       11.858704
   79       11.861915
   80       12.294691
   81       12.494586
   82       12.496569
   83       12.505188
   84       12.863827
 
 -0.2222222E+00  0.1111111E+00  0.0000000E+00  0.6172840E-02
    1      -14.826062
    2      -14.695705
    3      -14.695346
    4      -14.556851
    5      -10.983601
    6      -10.982792
    7      -10.884156
    8      -10.883872
    9      -10.883334
   10      -10.883044
   11      -10.779981
   12      -10.779202
   13       -9.540928
   14       -9.487028
   15       -9.486875
   16       -9.441222
   17       -8.473330
   18       -8.444271
   19       -8.444168
   20       -8.399989
   21       -7.159468
   22       -7.156116
   23       -7.089000
   24       -7.087179
   25       -7.085681
   26       -7.083799
   27       -7.013623
   28       -7.010276
   29       -3.611260
   30       -2.783623
   31       -2.782061
   32       -2.738584
   33       -2.704298
   34       -2.704184
   35       -2.669217
   36       -1.912987
   37       -1.907420
   38       -1.887077
   39       -1.884548
   40       -1.881538
   41       -1.878982
   42       -1.858368
   43       -1.852741
   44       -1.781624
   45        0.726802
   46        0.738136
   47        0.738725
   48        0.749624
   49        0.818137
   50        0.819395
   51        1.092528
   52        1.101160
   53        1.101354
   54        1.110892
   55        1.426231
   56        1.428228
   57        1.428365
   58        1.430459
   59        2.086942
   60        2.088951
   61        2.101898
   62        2.476410
   63        2.478006
   64        2.739006
   65        6.053086
   66        6.146243
   67        6.148012
   68        6.545745
   69        6.934632
   70        6.940312
   71        7.296618
   72        7.300299
   73        7.302046
   74        7.305519
   75        7.834227
   76        7.839016
   77        9.039299
   78       11.546675
   79       11.550172
   80       12.184301
   81       12.190185
   82       12.357060
   83       12.358821
   84       12.363327
 
 -0.1111111E+00  0.1111111E+00  0.0000000E+00  0.6172840E-02
    1      -14.972964
    2      -14.841475
    3      -14.841113
    4      -14.701335
    5      -10.521758
    6      -10.428102
    7      -10.427779
    8      -10.330805
    9       -9.977197
   10       -9.975054
   11       -9.897653
   12       -9.895045
   13       -9.895009
   14       -9.893120
   15       -9.815061
   16       -9.812679
   17       -8.351156
   18       -8.349299
   19       -8.286705
   20       -8.286037
   21       -8.286002
   22       -8.282916
   23       -8.215237
   24       -8.213318
   25       -7.841375
   26       -7.768892
   27       -7.767020
   28       -7.691004
   29       -3.789304
   30       -2.957005
   31       -2.955437
   32       -2.059150
   33       -2.056522
   34       -2.033204
   35       -2.029667
   36       -2.029660
   37       -2.028532
   38       -2.003461
   39       -2.001303
   40       -1.948405
   41       -1.754109
   42       -1.730694
   43       -1.728165
   44       -1.704605
   45        1.246075
   46        1.255753
   47        1.264971
   48        1.268749
   49        1.278742
   50        1.406285
   51        1.415267
   52        1.419474
   53        1.430570
   54        1.719936
   55        1.721957
   56        1.785541
   57        1.788134
   58        2.155929
   59        2.159921
   60        2.160305
   61        2.161334
   62        2.317670
   63        2.522161
   64        2.524779
   65        6.153515
   66        6.156461
   67        6.350778
   68        6.352050
   69        6.352281
   70        6.357275
   71        6.448371
   72        6.755017
   73        6.758996
   74        6.849059
   75        6.851542
   76        7.307022
   77        8.860545
   78       11.389559
   79       11.393171
   80       11.817312
   81       11.990512
   82       11.991547
   83       12.103893
   84       12.108239
 
  0.1694066E-20  0.2222222E+00  0.0000000E+00  0.6172840E-02
    1      -14.752636
    2      -14.622865
    3      -14.622507
    4      -14.484669
    5      -11.529927
    6      -11.425346
    7      -11.425046
    8      -11.315761
    9      -10.324467
   10      -10.321774
   11      -10.233743
   12      -10.231363
   13      -10.230804
   14      -10.228385
   15      -10.136970
   16      -10.134280
   17       -7.672916
   18       -7.668231
   19       -7.603509
   20       -7.600295
   21       -7.598597
   22       -7.595381
   23       -7.527271
   24       -7.522480
   25       -6.515667
   26       -6.447250
   27       -6.447040
   28       -6.376120
   29       -3.522453
   30       -2.697173
   31       -2.695615
   32       -2.664543
   33       -2.659248
   34       -2.631837
   35       -2.629305
   36       -2.626427
   37       -2.623882
   38       -2.595629
   39       -2.590239
   40       -1.698496
   41       -1.543770
   42       -1.519745
   43       -1.519650
   44       -1.495496
   45        0.234864
   46        0.434612
   47        0.453651
   48        0.453804
   49        0.473128
   50        0.897116
   51        0.898641
   52        0.982343
   53        0.996803
   54        0.996913
   55        1.011313
   56        1.502844
   57        1.505587
   58        1.646686
   59        2.035478
   60        2.038659
   61        2.038742
   62        2.041978
   63        2.567879
   64        2.570887
   65        6.402837
   66        6.408975
   67        6.678806
   68        6.683230
   69        6.684945
   70        6.689192
   71        7.152141
   72        7.157519
   73        7.587971
   74        7.980347
   75        7.982051
   76        8.521365
   77        9.128650
   78       11.623330
   79       11.626751
   80       11.927441
   81       12.094893
   82       12.095472
   83       12.245186
   84       12.935991
 
  0.1111111E+00  0.2222222E+00  0.0000000E+00  0.6172840E-02
    1      -14.532920
    2      -14.404827
    3      -14.404473
    4      -14.268543
    5      -11.948202
    6      -11.840243
    7      -11.839929
    8      -11.726737
    9      -11.323797
   10      -11.221128
   11      -11.220831
   12      -11.113247
   13       -9.591547
   14       -9.514170
   15       -9.513351
   16       -9.435518
   17       -8.007998
   18       -7.948952
   19       -7.946524
   20       -7.881643
   21       -6.374466
   22       -6.309779
   23       -6.308074
   24       -6.241349
   25       -5.777308
   26       -5.714138
   27       -5.713911
   28       -5.648760
   29       -3.640530
   30       -3.599663
   31       -3.597580
   32       -3.555578
   33       -3.256873
   34       -2.439512
   35       -2.438721
   36       -2.437324
   37       -2.407498
   38       -2.405256
   39       -2.372881
   40       -1.625530
   41       -1.599524
   42       -1.599242
   43       -1.572859
   44       -1.450548
   45       -0.223413
   46       -0.218544
   47       -0.202527
   48       -0.199138
   49       -0.181091