   32   32    1    1
  0.1019246E+02  0.4934311E-09  0.4934311E-09  0.1546921E-08  0.5000000E-15
  1.000000000000000E-004
  CAR 
 graphite                                
    128    163     84
 
  0.0000000E+00  0.0000000E+00  0.0000000E+00  0.3086420E-02
    1      -16.030152
    2      -15.985248
    3      -15.984913
    4      -15.939087
    5      -10.767577
    6      -10.765541
    7      -10.764070
    8      -10.752729
    9      -10.749638
   10      -10.749482
   11      -10.748796
   12      -10.748777
   13      -10.746053
   14      -10.735026
   15      -10.733832
   16      -10.731269
   17       -9.715948
   18       -9.712560
   19       -9.711152
   20       -9.705018
   21       -9.701903
   22       -9.700903
   23       -9.700453
   24       -9.700438
   25       -9.697538
   26       -9.689922
   27       -9.687470
   28       -9.685126
   29       -4.520342
   30       -4.101686
   31       -4.100832
   32       -3.625038
   33       -2.894071
   34       -2.890676
   35       -2.887755
   36       -2.887044
   37       -2.884651
   38       -2.884648
   39       -2.884357
   40       -2.881517
   41       -2.880163
   42       -2.879561
   43       -2.877817
   44       -2.872902
   45        0.476049
   46        0.485909
   47        0.487564
   48        0.488617
   49        0.490601
   50        0.492317
   51        0.493278
   52        0.502849
   53        0.996299
   54        0.997949
   55        0.999451
   56        1.149422
   57        1.152908
   58        1.153105
   59        1.153208
   60        1.153312
   61        1.156460
   62        1.287163
   63        1.288959
   64        1.290795
   65        5.041773
   66        5.046019
   67        5.048358
   68        5.171484
   69        5.176137
   70        5.177857
   71        5.178395
   72        5.178465
   73        5.182601
   74        5.399713
   75        5.403908
   76        5.406138
   77        6.944271
   78        8.650257
   79        8.652238
   80       10.813692
   81       10.819509
   82       10.822682
   83       10.878306
   84       10.881664
 
  0.1111111E+00  0.1387779E-16  0.0000000E+00  0.6172840E-02
    1      -15.956965
    2      -15.912325
    3      -15.911992
    4      -15.866420
    5      -11.531177
    6      -11.501423
    7      -11.500909
    8      -11.470563
    9      -10.996175
   10      -10.994201
   11      -10.971569
   12      -10.969928
   13      -10.969168
   14      -10.967583
   15      -10.944905
   16      -10.942747
   17       -9.384303
   18       -9.381259
   19       -9.364645
   20       -9.361941
   21       -9.360420
   22       -9.360292
   23       -9.341344
   24       -9.338651
   25       -8.862586
   26       -8.840372
   27       -8.838980
   28       -8.816035
   29       -4.431960
   30       -4.014680
   31       -4.013824
   32       -3.539698
   33       -3.115623
   34       -3.111699
   35       -3.108768
   36       -3.108028
   37       -3.104964
   38       -3.103235
   39       -3.100724
   40       -3.095572
   41       -2.820455
   42       -2.814665
   43       -2.812403
   44       -2.807264
   45        0.190826
   46        0.193110
   47        0.194618
   48        0.201800
   49        0.323001
   50        0.330641
   51        0.332565
   52        0.334223
   53        0.480614
   54        0.726503
   55        0.728532
   56        0.910245
   57        0.912069
   58        0.980109
   59        1.100728
   60        1.101751
   61        1.101908
   62        1.104919
   63        1.281767
   64        1.283987
   65        5.159085
   66        5.163559
   67        5.301141
   68        5.305716
   69        5.307598
   70        5.308262
   71        5.529274
   72        5.533377
   73        5.538959
   74        5.716141
   75        5.719032
   76        5.965554
   77        7.037402
   78        8.738812
   79        8.740781
   80       10.853090
   81       10.914125
   82       10.915544
   83       10.976202
   84       11.156136
 
  0.2222222E+00  0.0000000E+00  0.0000000E+00  0.6172840E-02
    1      -15.737788
    2      -15.693858
    3      -15.693534
    4      -15.648732
    5      -12.532520
    6      -12.498511
    7      -12.498229
    8      -12.463556
    9      -11.335347
   10      -11.333597
   11      -11.306716
   12      -11.305049
   13      -11.304478
   14      -11.303275
   15      -11.275921
   16      -11.274111
   17       -8.698724
   18       -8.695747
   19       -8.677619
   20       -8.675142
   21       -8.673471
   22       -8.673366
   23       -8.653640
   24       -8.650914
   25       -7.542918
   26       -7.522682
   27       -7.521402
   28       -7.500729
   29       -4.167690
   30       -3.754614
   31       -3.753748
   32       -3.716696
   33       -3.712921
   34       -3.707665
   35       -3.707031
   36       -3.704163
   37       -3.702149
   38       -3.697595
   39       -3.692864
   40       -3.284786
   41       -2.606355
   42       -2.600619
   43       -2.598284
   44       -2.593008
   45       -0.629107
   46       -0.624903
   47       -0.622688
   48       -0.616110
   49       -0.477613
   50       -0.159565
   51       -0.158223
   52       -0.091476
   53       -0.084643
   54       -0.082277
   55       -0.079663
   56        0.188418
   57        0.734948
   58        0.736715
   59        0.980351
   60        0.981453
   61        0.981590
   62        0.984448
   63        1.232983
   64        1.235122
   65        5.475416
   66        5.479478
   67        5.631188
   68        5.635654
   69        5.637167
   70        5.637800
   71        5.845311
   72        5.848926
   73        6.742798
   74        6.933298
   75        6.935351
   76        7.174755
   77        7.317310
   78        9.004231
   79        9.006162
   80       10.952419
   81       11.018876
   82       11.020371
   83       11.049977
   84       11.570657
 
  0.3333333E+00  0.2775558E-16  0.0000000E+00  0.6172840E-02
    1      -15.373775
    2      -15.331065
    3      -15.330753
    4      -15.287120
    5      -13.438747
    6      -13.401895
    7      -13.401644
    8      -13.364213
    9      -11.589065
   10      -11.587449
   11      -11.558998
   12      -11.557257
   13      -11.556908
   14      -11.555794
   15      -11.526485
   16      -11.524840
   17       -7.896264
   18       -7.893177
   19       -7.877397
   20       -7.874738
   21       -7.873080
   22       -7.872970
   23       -7.855427
   24       -7.852687
   25       -6.118213
   26       -6.100926
   27       -6.099476
   28       -6.082177
   29       -4.526441
   30       -4.523131
   31       -4.515183
   32       -4.514916
   33       -4.512417
   34       -4.510233
   35       -4.503198
   36       -4.499057
   37       -3.730476
   38       -3.324629
   39       -3.323761
   40       -2.864092
   41       -2.258983
   42       -2.253300
   43       -2.250851
   44       -2.245802
   45       -1.806297
   46       -1.799297
   47       -1.796865
   48       -1.789034
   49       -1.467088
   50       -1.111242
   51       -1.110180
   52       -0.714477
   53       -0.649304
   54       -0.643220
   55       -0.640568
   56       -0.637151
   57        0.574551
   58        0.576293
   59        0.856903
   60        0.858063
   61        0.858196
   62        0.860930
   63        1.159729
   64        1.161794
   65        5.870766
   66        5.874133
   67        6.016883
   68        6.021313
   69        6.022238
   70        6.022830
   71        6.192005
   72        6.194922
   73        7.783248
   74        8.244362
   75        8.403572
   76        8.405518
   77        8.613618
   78        9.443184
   79        9.445069
   80       10.267400
   81       11.155969
   82       11.157992
   83       11.159680
   84       11.303018
 
  0.4444444E+00  0.0000000E+00  0.0000000E+00  0.6172840E-02
    1      -14.866846
    2      -14.825689
    3      -14.825384
    4      -14.783361
    5      -14.220117
    6      -14.180867
    7      -14.180616
    8      -14.140621
    9      -11.720357
   10      -11.718807
   11      -11.689697
   12      -11.687858
   13      -11.687741
   14      -11.686591
   15      -11.656796
   16      -11.655227
   17       -7.163401
   18       -7.160447
   19       -7.150549
   20       -7.147222
   21       -7.146740
   22       -7.146044
   23       -7.134470
   24       -7.132497
   25       -5.279644
   26       -5.277779
   27       -5.269961
   28       -5.269255
   29       -5.268533
   30       -5.266046
   31       -5.259087
   32       -5.256057
   33       -4.646621
   34       -4.632879
   35       -4.631096
   36       -4.617304
   37       -3.183586
   38       -3.173441
   39       -3.171303
   40       -3.160765
   41       -3.125926
   42       -2.731060
   43       -2.730141
   44       -2.364791
   45       -2.284426
   46       -1.985596
   47       -1.984654
   48       -1.794731
   49       -1.789156
   50       -1.786602
   51       -1.781957
   52       -1.559130
   53       -1.242198
   54       -1.236539
   55       -1.233912
   56       -1.229911
   57        0.483057
   58        0.484792
   59        0.782582
   60        0.783776
   61        0.783909
   62        0.786581
   63        1.109121
   64        1.111149
   65        6.158867
   66        6.161440
   67        6.279587
   68        6.284114
   69        6.284454
   70        6.284884
   71        6.409168
   72        6.411578
   73        8.434955
   74        9.267928
   75        9.831376
   76        9.904044
   77        9.908684
   78       10.033899
   79       10.036400
   80       10.111381
   81       10.886095
   82       10.892584
   83       11.371851
   84       11.380592
 
 -0.1694066E-20  0.1111111E+00  0.0000000E+00  0.6172840E-02
    1      -15.956966
    2      -15.912327
    3      -15.911992
    4      -15.866422
    5      -11.531110
    6      -11.501286
    7      -11.500907
    8      -11.470490
    9      -10.996329
   10      -10.994308
   11      -10.971821
   12      -10.969928
   13      -10.969169
   14      -10.967831
   15      -10.944966
   16      -10.942962
   17       -9.384498
   18       -9.380315
   19       -9.364945
   20       -9.361940
   21       -9.360411
   22       -9.358013
   23       -9.341451
   24       -9.337238
   25       -8.863332
   26       -8.840614
   27       -8.840367
   28       -8.816930
   29       -4.431956
   30       -4.014674
   31       -4.013821
   32       -3.539693
   33       -3.116936
   34       -3.111591
   35       -3.110295
   36       -3.108029
   37       -3.104964
   38       -3.103303
   39       -3.101671
   40       -3.096261
   41       -2.818776
   42       -2.812633
   43       -2.812401
   44       -2.806469
   45        0.189763
   46        0.192124
   47        0.193110
   48        0.195491
   49        0.329993
   50        0.332562
   51        0.332709
   52        0.335170
   53        0.481374
   54        0.727993
   55        0.728738
   56        0.909466
   57        0.911836
   58        0.981060
   59        1.099166
   60        1.101824
   61        1.101916
   62        1.104218
   63        1.281001
   64        1.283566
   65        5.159307
   66        5.165185
   67        5.301575
   68        5.305708
   69        5.307851
   70        5.311259
   71        5.529284
   72        5.534844
   73        5.537716
   74        5.715561
   75        5.716506
   76        5.964023
   77        7.037405
   78        8.738818
   79        8.740787
   80       10.853498
   81       10.914899
   82       10.915554
   83       10.976578
   84       11.154021
 
  0.1111111E+00  0.1111111E+00  0.0000000E+00  0.6172840E-02
    1      -15.810773
    2      -15.766604
    3      -15.766277
    4      -15.721203
    5      -11.990551
    6      -11.987878
    7      -11.959612
    8      -11.956635
    9      -11.956621
   10      -11.954317
   11      -11.925406
   12      -11.922702
   13      -10.577457
   14      -10.562051
   15      -10.561124
   16      -10.546452
   17       -9.532938
   18       -9.522832
   19       -9.519993
   20       -9.508466
   21       -8.183882
   22       -8.181223
   23       -8.162837
   24       -8.160452
   25       -8.160440
   26       -8.157218
   27       -8.139293
   28       -8.136104
   29       -4.255537
   30       -3.841106
   31       -3.840246
   32       -3.788044
   33       -3.779281
   34       -3.777648
   35       -3.768487
   36       -3.369589
   37       -2.973141
   38       -2.969722
   39       -2.966076
   40       -2.963019
   41       -2.963016
   42       -2.962043
   43       -2.957120
   44       -2.955235
   45       -0.339376
   46       -0.336984
   47       -0.335442
   48       -0.328191
   49        0.009086
   50        0.017235
   51        0.019002
   52        0.020396
   53        0.081798
   54        0.083604
   55        0.368842
   56        0.371695
   57        0.371728
   58        0.373150
   59        0.678203
   60        0.680343
   61        1.265682
   62        1.418967
   63        1.421125
   64        1.554360
   65        4.994474
   66        5.095239
   67        5.099305
   68        5.279885
   69        6.066874
   70        6.069139
   71        6.253624
   72        6.255134
   73        6.255251
   74        6.258309
   75        6.494387
   76        6.496573
   77        7.223959
   78        8.916011
   79        8.917954
   80       11.221226
   81       11.224969
   82       11.283346
   83       11.287724
   84       11.290425
 
  0.2222222E+00  0.1111111E+00  0.0000000E+00  0.6172840E-02
    1      -15.519173
    2      -15.475950
    3      -15.475636
    4      -15.431542
    5      -12.948339
    6      -12.912981
    7      -12.912695
    8      -12.876813
    9      -12.327781
   10      -12.294380
   11      -12.294027
   12      -12.260200
   13      -10.612579
   14      -10.588312
   15      -10.587961
   16      -10.563788
   17       -9.041968
   18       -9.023714
   19       -9.021237
   20       -9.002510
   21       -7.405550
   22       -7.385923
   23       -7.385355
   24       -7.365451
   25       -6.808221
   26       -6.789817
   27       -6.788513
   28       -6.769726
   29       -4.688335
   30       -4.676709
   31       -4.675092
   32       -4.663347
   33       -3.904757
   34       -3.496034
   35       -3.495128
   36       -3.492043
   37       -3.483070
   38       -3.482984
   39       -3.473900
   40       -3.031676
   41       -2.686589
   42       -2.680200
   43       -2.677857
   44       -2.671954
   45       -1.285410
   46       -1.281005
   47       -1.278563
   48       -1.271127
   49       -0.916915
   50       -0.578442
   51       -0.577178
   52       -0.530847
   53       -0.523201
   54       -0.520789
   55       -0.518290
   56       -0.229466
   57       -0.203670
   58        0.085404
   59        0.086133
   60        0.428995
   61        1.431315
   62        1.621339
   63        1.623365
   64        1.802550
   65        5.005270
   66        5.098739
   67        5.102616
   68        5.250449
   69        6.649546
   70        6.819409
   71        6.820881
   72        7.022825
   73        7.445947
   74        7.595840
   75        7.620190
   76        7.623260
   77        7.836567
   78        9.269584
   79        9.271476
   80       10.892561
   81       11.390847
   82       11.410247
   83       11.411713
   84       11.554929
 
  0.3333333E+00  0.1111111E+00  0.0000000E+00  0.6172840E-02
    1      -15.083672
    2      -15.041861
    3      -15.041563
    4      -14.998833
    5      -13.792734
    6      -13.754841
    7      -13.754571
    8      -13.715954
    9      -12.534197
   10      -12.500276
   11      -12.499894
   12      -12.465199
   13      -10.751012
   14      -10.723426
   15      -10.723319
   16      -10.695456
   17       -8.277472
   18       -8.259864
   19       -8.257511
   20       -8.239813
   21       -6.616773
   22       -6.601149
   23       -6.599974
   24       -6.584166
   25       -5.621361
   26       -5.609138
   27       -5.607396
   28       -5.594642
   29       -5.368134
   30       -5.352809
   31       -5.351328
   32       -5.335974
   33       -4.188080
   34       -4.178404
   35       -4.177642
   36       -4.167511
   37       -3.383651
   38       -2.983929
   39       -2.983050
   40       -2.531207
   41       -2.521230
   42       -2.513625
   43       -2.510899
   44       -2.502272
   45       -2.271983
   46       -2.265930
   47       -2.263508
   48       -2.258023
   49       -1.868006
   50       -1.500433
   51       -1.499473
   52       -1.148905
   53       -1.142379
   54       -1.139586
   55       -1.135757
   56       -1.088636
   57       -0.426365
   58       -0.097206
   59       -0.096442
   60        0.265679
   61        1.470361
   62        1.711532
   63        1.713158
   64        1.961936
   65        5.099335
   66        5.212588
   67        5.215902
   68        5.348659
   69        7.136371
   70        7.270086
   71        7.272012
   72        7.416626
   73        8.157074
   74        8.987007
   75        9.116040
   76        9.118086
   77        9.298069
   78        9.792397
   79        9.794291
   80        9.823391
   81       11.310201
   82       11.313803
   83       11.480585
   84       11.586741
 
  0.4444444E+00  0.1111111E+00  0.0000000E+00  0.6172840E-02
    1      -14.508214
    2      -14.505739
    3      -14.469289
    4      -14.466622
    5      -14.466499
    6      -14.464341
    7      -14.426843
    8      -14.424316
    9      -12.603665
   10      -12.569358
   11      -12.568959
   12      -12.534138
   13      -10.805779
   14      -10.777586
   15      -10.777346
   16      -10.748940
   17       -7.788672
   18       -7.778524
   19       -7.776339
   20       -7.766185
   21       -6.158645
   22       -6.152589
   23       -6.150415
   24       -6.147826
   25       -6.145496
   26       -6.143779
   27       -6.139880
   28       -6.135869
   29       -4.617562
   30       -4.611636
   31       -4.609565
   32       -4.602627
   33       -3.916944
   34       -3.915149
   35       -3.905050
   36       -3.904368
   37       -3.904324
   38       -3.900260
   39       -3.892395
   40       -3.887961
   41       -2.700979
   42       -2.698979
   43       -2.315369
   44       -2.312712
   45       -2.312638
   46       -2.310946
   47       -1.878496
   48       -1.876297
   49       -1.754917
   50       -1.745047
   51       -1.743213
   52       -1.739511
   53       -1.739453
   54       -1.738531
   55       -1.735013
   56       -1.732803
   57       -0.493397
   58       -0.159756
   59       -0.158922
   60        0.209311
   61        1.473420
   62        1.733718
   63        1.734877
   64        2.011138
   65        5.155871
   66        5.277844
   67        5.280361
   68        5.406037
   69        7.337883
   70        7.446408
   71        7.448832
   72        7.557889
   73        8.900544
   74        8.901178
   75       10.346575
   76       10.353961
   77       10.355157
   78       10.362142
   79       10.536763
   80       10.539766
   81       10.755185
   82       10.757686
   83       10.793998
   84       10.801513
 
 -0.4444444E+00  0.1111111E+00  0.0000000E+00  0.6172840E-02
    1      -15.083779
    2      -15.041978
    3      -15.041659
    4      -14.998939
    5      -13.792568
    6      -13.754661
    7      -13.754420
    8      -13.715788
    9      -12.534420
   10      -12.500508
   11      -12.500107
   12      -12.465421
   13      -10.750869
   14      -10.723384
   15      -10.723084
   16      -10.695323
   17       -8.275062
   18       -8.256877
   19       -8.255993
   20       -8.237673
   21       -6.619361
   22       -6.604182
   23       -6.601751
   24       -6.586454
   25       -5.623894
   26       -5.611124
   27       -5.610793
   28       -5.597574
   29       -5.368164
   30       -5.352950
   31       -5.351173
   32       -5.335904
   33       -4.185310
   34       -4.176115
   35       -4.173935
   36       -4.164026
   37       -3.383682
   38       -2.983938
   39       -2.983090
   40       -2.531238
   41       -2.521974
   42       -2.514099
   43       -2.512311
   44       -2.504055
   45       -2.272284
   46       -2.266058
   47       -2.263409
   48       -2.257996
   49       -1.867971
   50       -1.500446
   51       -1.499414
   52       -1.146341
   53       -1.141414
   54       -1.139099
   55       -1.135097
   56       -1.088627
   57       -0.426259
   58       -0.097155
   59       -0.096200
   60        0.265877
   61        1.469818
   62        1.711301
   63        1.712107
   64        1.961176
   65        5.101480
   66        5.215201
   67        5.216910
   68        5.350148
   69        7.134736
   70        7.268239
   71        7.271086
   72        7.415480
   73        8.156987
   74        8.987343
   75        9.116330
   76        9.118568
   77        9.298514
   78        9.792365
   79        9.794268
   80        9.823514
   81       11.309762
   82       11.313452
   83       11.480370
   84       11.585766
 
 -0.3333333E+00  0.1111111E+00  0.0000000E+00  0.6172840E-02
    1      -15.519249
    2      -15.476034
    3      -15.475705
    4      -15.431618
    5      -12.948144
    6      -12.912765
    7      -12.912520
    8      -12.876617
    9      -12.328220
   10      -12.294831
   11      -12.294451
   12      -12.260636
   13      -10.612397
   14      -10.588133
   15      -10.587809
   16      -10.563644
   17       -9.039153
   18       -9.020035
   19       -9.019627
   20       -8.999988
   21       -7.408263
   22       -7.389264
   23       -7.387247
   24       -7.367994
   25       -6.808386
   26       -6.790030
   27       -6.788605
   28       -6.769860
   29       -4.691588
   30       -4.679383
   31       -4.679234
   32       -4.667111
   33       -3.904782
   34       -3.496016
   35       -3.495150
   36       -3.488511
   37       -3.480189
   38       -3.478282
   39       -3.469600
   40       -3.031688
   41       -2.686676
   42       -2.680223
   43       -2.677729
   44       -2.671875
   45       -1.287175
   46       -1.282432
   47       -1.281126
   48       -1.276093
   49       -0.916887
   50       -0.578468
   51       -0.577106
   52       -0.524860
   53       -0.521176
   54       -0.519326
   55       -0.516600
   56       -0.229188
   57       -0.203707
   58        0.085514
   59        0.086660
   60        0.429418
   61        1.430281
   62        1.620854
   63        1.621559
   64        1.801308
   65        5.008731
   66        5.103296
   67        5.104438
   68        5.253375
   69        6.646834
   70        6.816129
   71        6.819259
   72        7.020603
   73        7.446162
   74        7.595812
   75        7.620265
   76        7.623680
   77        7.836891
   78        9.269561
   79        9.271454
   80       10.892555
   81       11.390246
   82       11.409416
   83       11.411256
   84       11.554548
 
 -0.2222222E+00  0.1111111E+00  0.0000000E+00  0.6172840E-02
    1      -15.810819
    2      -15.766654
    3      -15.766319
    4      -15.721249
    5      -11.989692
    6      -11.988875
    7      -11.957570
    8      -11.957250
    9      -11.956759
   10      -11.956426
   11      -11.924799
   12      -11.923989
   13      -10.577250
   14      -10.561593
   15      -10.561266
   16      -10.546360
   17       -9.529729
   18       -9.518837
   19       -9.518564
   20       -9.505942
   21       -8.185277
   22       -8.182195
   23       -8.164038
   24       -8.162166
   25       -8.160676
   26       -8.159369
   27       -8.140791
   28       -8.137686
   29       -4.255552
   30       -3.841114
   31       -3.840264
   32       -3.791633
   33       -3.782397
   34       -3.782105
   35       -3.772621
   36       -3.369597
   37       -2.971766
   38       -2.966370
   39       -2.965271
   40       -2.962923
   41       -2.959924
   42       -2.958162
   43       -2.956798
   44       -2.951306
   45       -0.343265
   46       -0.340700
   47       -0.340090
   48       -0.337505
   49        0.019694
   50        0.021776
   51        0.022169
   52        0.024121
   53        0.082445
   54        0.083474
   55        0.370080
   56        0.371628
   57        0.371755
   58        0.373059
   59        0.678856
   60        0.680353
   61        1.264425
   62        1.418342
   63        1.419104
   64        1.553013
   65        4.998422
   66        5.100700
   67        5.101637
   68        5.283728
   69        6.063886
   70        6.068864
   71        6.249980
   72        6.253334
   73        6.255204
   74        6.257747
   75        6.491752
   76        6.496379
   77        7.223921
   78        8.915996
   79        8.917939
   80       11.222413
   81       11.228097
   82       11.285672
   83       11.287978
   84       11.292387
 
 -0.1111111E+00  0.1111111E+00  0.0000000E+00  0.6172840E-02
    1      -15.956981
    2      -15.912344
    3      -15.912006
    4      -15.866437
    5      -11.531827
    6      -11.501900
    7      -11.501713
    8      -11.471194
    9      -10.995929
   10      -10.993904
   11      -10.971595
   12      -10.969006
   13      -10.968994
   14      -10.967591
   15      -10.944596
   16      -10.942578
   17       -9.381877
   18       -9.380401
   19       -9.361494
   20       -9.360598
   21       -9.360589
   22       -9.358224
   23       -9.339292
   24       -9.337440
   25       -8.865754
   26       -8.843794
   27       -8.841880
   28       -8.819218
   29       -4.431961
   30       -4.014677
   31       -4.013827
   32       -3.539696
   33       -3.117963
   34       -3.114876
   35       -3.110967
   36       -3.107996
   37       -3.107993
   38       -3.107305
   39       -3.101917
   40       -3.100290
   41       -2.814947
   42       -2.809270
   43       -2.807590
   44       -2.801604
   45        0.179554
   46        0.187650
   47        0.189656
   48        0.191602
   49        0.333882
   50        0.336052
   51        0.337396
   52        0.345393
   53        0.482079
   54        0.728371
   55        0.730072
   56        0.909156
   57        0.911103
   58        0.982078
   59        1.098332
   60        1.101830
   61        1.101930
   62        1.102679
   63        1.280553
   64        1.282738
   65        5.163045
   66        5.165511
   67        5.306811
   68        5.307849
   69        5.307915
   70        5.311917
   71        5.532486
   72        5.534010
   73        5.535543
   74        5.710536
   75        5.714135
   76        5.960429
   77        7.037392
   78        8.738813
   79        8.740781
   80       10.858387
   81       10.919863
   82       10.920409
   83       10.981504
   84       11.148859
 
 -0.3388132E-20  0.2222222E+00  0.0000000E+00  0.6172840E-02
    1      -15.737794
    2      -15.693869
    3      -15.693534
    4      -15.648738
    5      -12.532553
    6      -12.498576
    7      -12.498230
    8      -12.463589
    9      -11.335762
   10      -11.333352
   11      -11.307419
   12      -11.305049
   13      -11.304478
   14      -11.302682
   15      -11.276207
   16      -11.273772
   17       -8.699107
   18       -8.694813
   19       -8.678194
   20       -8.675142
   21       -8.673460
   22       -8.671021
   23       -8.653801
   24       -8.649470
   25       -7.543621
   26       -7.522953
   27       -7.522678
   28       -7.501587
   29       -4.167673
   30       -3.754588
   31       -3.753736
   32       -3.718016
   33       -3.712951
   34       -3.709379
   35       -3.707032
   36       -3.704163
   37       -3.702394
   38       -3.698424
   39       -3.693276
   40       -3.284764
   41       -2.604547
   42       -2.598556
   43       -2.598282
   44       -2.592201
   45       -0.630127
   46       -0.625532
   47       -0.624903
   48       -0.620270
   49       -0.477186
   50       -0.158769
   51       -0.158028
   52       -0.085954
   53       -0.082527
   54       -0.082275
   55       -0.078823
   56        0.188985
   57        0.734128
   58        0.736608
   59        0.978704
   60        0.981540
   61        0.981588
   62        0.983992
   63        1.232170
   64        1.234824
   65        5.475643
   66        5.481073
   67        5.631649
   68        5.635650
   69        5.637471
   70        5.640715
   71        5.845494
   72        5.850621
   73        6.741561
   74        6.932614
   75        6.933702
   76        7.173614
   77        7.317313
   78        9.004253
   79        9.006183
   80       10.952914
   81       11.019852
   82       11.020396
   83       11.050425
   84       11.569245
 
  0.1111111E+00  0.2222222E+00  0.0000000E+00  0.6172840E-02
    1      -15.519177
    2      -15.475958
    3      -15.475637
    4      -15.431546
    5      -12.948387
    6      -12.913073
    7      -12.912698
    8      -12.876861
    9      -12.327746
   10      -12.294313
   11      -12.294025
   12      -12.260166
   13      -10.612571
   14      -10.588312
   15      -10.587945
   16      -10.563780
   17       -9.041906
   18       -9.023616
   19       -9.021237
   20       -9.002468
   21       -7.404749
   22       -7.385356
   23       -7.384193
   24       -7.364509
   25       -6.808996
   26       -6.790227
   27       -6.789815
   28       -6.770680
   29       -4.688384
   30       -4.676709
   31       -4.675223
   32       -4.663447
   33       -3.904743
   34       -3.496061
   35       -3.495147
   36       -3.493413
   37       -3.485237
   38       -3.483066
   39       -3.474878
   40       -3.031658
   41       -2.684844
   42       -2.677942
   43       -2.677852
   44       -2.671038
   45       -1.285665
   46       -1.281005
   47       -1.279351
   48       -1.274004
   49       -0.916555