       N       E                     dE             d eps       ncg     rms          rms(c)
DAV:   1     0.573981627919E+03    0.57398E+03   -0.72239E+04 27384   0.161E+03
DAV:   2    -0.264745255838E+03   -0.83873E+03   -0.80829E+03 33948   0.310E+02
DAV:   3    -0.312101947417E+03   -0.47357E+02   -0.46885E+02 33432   0.738E+01
DAV:   4    -0.312975463929E+03   -0.87352E+00   -0.87181E+00 34404   0.109E+01
DAV:   5    -0.313000863743E+03   -0.25400E-01   -0.25389E-01 34740   0.174E+00    0.221E+01
DAV:   6    -0.298750007560E+03    0.14251E+02   -0.14719E+01 31296   0.107E+01    0.116E+01
DAV:   7    -0.294279059112E+03    0.44709E+01   -0.15194E+01 31140   0.109E+01    0.191E+00
DAV:   8    -0.294334101529E+03   -0.55042E-01   -0.36465E-01 30828   0.173E+00    0.250E-01
DAV:   9    -0.294335416799E+03   -0.13153E-02   -0.12959E-02 33336   0.382E-01    0.109E-01
DAV:  10    -0.294336154774E+03   -0.73797E-03   -0.26868E-03 33264   0.151E-01    0.754E-02
DAV:  11    -0.294336394466E+03   -0.23969E-03   -0.85505E-04 31476   0.883E-02    0.362E-02
DAV:  12    -0.294336517960E+03   -0.12349E-03   -0.62030E-04 32436   0.674E-02    0.274E-02
DAV:  13    -0.294336508673E+03    0.92868E-05   -0.34469E-04 33120   0.468E-02    0.840E-03
DAV:  14    -0.294336508467E+03    0.20554E-06   -0.25430E-05 31320   0.156E-02    0.349E-03
DAV:  15    -0.294336508513E+03   -0.45104E-07   -0.87643E-06 27492   0.845E-03
   1 F= -.29959423E+03 E0= -.29959423E+03  d E =0.000000E+00
