    2    2  200    1
  0.6331625E+01  0.2616295E-09  0.2616295E-09  0.2616295E-09  0.5000000E-15
  1.000000000000000E-004
  CAR 
 graphite                                
      8    194      8
 
  0.0000000E+00  0.0000000E+00  0.0000000E+00  0.8680556E-03
    1      -11.828547
    2        8.224537
    3        8.224537
    4        8.224538
    5       13.512727
    6       13.512728
    7       13.512728
    8       19.125135
 
  0.8333333E-01  0.6938894E-17 -0.1387779E-16  0.3472222E-02
    1      -11.650544
    2        7.097263
    3        7.939714
    4        7.939715
    5       13.886376
    6       13.886377
    7       14.101166
    8       19.365751
 
  0.1666667E+00  0.1387779E-16 -0.1387779E-16  0.3472222E-02
    1      -11.119271
    2        4.754717
    3        7.313251
    4        7.313252
    5       14.710364
    6       14.710365
    7       14.908664
    8       20.079822
 
  0.2500000E+00 -0.2775558E-16 -0.6938894E-16  0.6944444E-02
    1      -10.244538
    2        2.127478
    3        6.659745
    4        6.659745
    5       15.350522
    6       15.503581
    7       15.503583
    8       21.090792
 
  0.3333333E+00 -0.2775558E-16 -0.6938894E-16  0.3472222E-02
    1       -9.052365
    2       -0.438438
    3        6.137241
    4        6.137241
    5       15.538444
    6       15.989648
    7       15.989650
    8       22.058500
 
  0.4166667E+00  0.0000000E+00 -0.5551115E-16  0.3472222E-02
    1       -7.635910
    2       -2.717753
    3        5.808887
    4        5.808888
    5       15.612786
    6       16.178586
    7       16.178587
    8       22.679176
 
  0.5000000E+00 -0.5551115E-16 -0.1387779E-15  0.3472222E-02
    1       -6.657268
    2       -3.989776
    3        5.697401
    4        5.697402
    5       15.632754
    6       16.216898
    7       16.216899
    8       22.870576
 
  0.8333333E-01  0.8333333E-01 -0.1387779E-16  0.1736111E-02
    1      -11.591239
    2        7.425191
    3        7.425191
    4        7.600541
    5       13.320802
    6       14.505474
    7       14.505474
    8       19.365077
 
  0.1666667E+00  0.8333333E-01 -0.1387779E-16  0.3472222E-02
    1      -11.177743
    2        5.549870
    3        6.707924
    4        7.330397
    5       13.573150
    6       15.400322
    7       15.462768
    8       19.699700
 
  0.2500000E+00  0.8333333E-01 -0.5551115E-16  0.1041667E-01
    1      -10.417182
    2        3.052684
    3        6.055540
    4        6.733078
    5       14.335701
    6       15.984583
    7       16.328927
    8       20.317315
 
  0.3333333E+00  0.8333333E-01 -0.5551115E-16  0.6944444E-02
    1       -9.328420
    2        0.489312
    3        5.592574
    4        6.057354
    5       15.035256
    6       16.269730
    7       16.824276
    8       21.128594
 
  0.4166667E+00  0.8333333E-01 -0.2775558E-16  0.3472222E-02
    1       -7.969168
    2       -1.889271
    3        5.367181
    4        5.477494
    5       15.444214
    6       16.411552
    7       16.920131
    8       22.037978
 
  0.5000000E+00  0.8333333E-01 -0.8326673E-16  0.1041667E-01
    1       -6.665612
    2       -3.669875
    3        5.074278
    4        5.390239
    5       15.680749
    6       16.483707
    7       16.770172
    8       22.675238
 
 -0.4166667E+00  0.8333333E-01  0.8326673E-16  0.6944444E-02
    1       -7.032445
    2       -3.205440
    3        4.889959
    4        5.651011
    5       15.850737
    6       16.501549
    7       16.539643
    8       22.656500
 
 -0.3333333E+00  0.8333333E-01  0.8326673E-16  0.3472222E-02
    1       -8.445280
    2       -1.126395
    3        4.948051
    4        6.121235
    5       15.927144
    6       16.106655
    7       16.560928
    8       21.990566
 
 -0.2500000E+00  0.8333333E-01  0.7632783E-16  0.1041667E-01
    1       -9.726242
    2        1.340721
    3        5.256677
    4        6.747570
    5       15.491234
    6       15.851773
    7       16.338289
    8       21.073627
 
 -0.1666667E+00  0.8333333E-01  0.2081668E-16  0.6944444E-02
    1      -10.708763
    2        3.906709
    3        5.808441
    4        7.423445
    5       14.676827
    6       15.508166
    7       15.688043
    8       20.273330
 
 -0.8333333E-01  0.8333333E-01  0.1529756E-16  0.1736111E-02
    1      -11.354789
    2        6.130172
    3        6.682140
    4        7.926946
    5       13.981870
    6       14.635674
    7       14.923024
    8       19.683053
 
  0.1666667E+00  0.1666667E+00 -0.2775558E-16  0.1736111E-02
    1      -10.883063
    2        5.940056
    3        5.940056
    4        5.996248
    5       12.868546
    6       16.554965
    7       16.554965
    8       19.252302
 
  0.2500000E+00  0.1666667E+00 -0.8326673E-16  0.1041667E-01
    1      -10.240181
    2        3.879016
    3        5.261151
    4        5.719665
    5       13.093862
    6       17.420785
    7       17.581453
    8       18.968680
 
  0.3333333E+00  0.1666667E+00 -0.1110223E-15  0.3472222E-02
    1       -9.263440
    2        1.508492
    3        4.794322
    4        5.035399
    5       13.847891
    6       17.792480
    7       18.232625
    8       19.173642
 
  0.4166667E+00  0.1666667E+00 -0.8326673E-16  0.6944444E-02
    1       -7.992055
    2       -0.835567
    3        4.271925
    4        4.590817
    5       14.470622
    6       18.001291
    7       18.399161
    8       20.043023
 
  0.5000000E+00  0.1666667E+00 -0.1110223E-15  0.1041667E-01
    1       -6.595295
    2       -2.840375
    3        3.626484
    4        4.663587
    5       14.867354
    6       18.082248
    7       18.189541
    8       21.436641
 
 -0.4166667E+00  0.1666667E+00  0.8326673E-16  0.3472222E-02
    1       -6.243824
    2       -3.270675
    3        3.194064
    4        4.999959
    5       15.246804
    6       17.752117
    7       18.088648
    8       22.358586
 
 -0.3333333E+00  0.1666667E+00  0.9020562E-16  0.6944444E-02
    1       -7.530662
    2       -1.525315
    3        3.027676
    4        5.561240
    5       15.663620
    6       17.129960
    7       18.043516
    8       21.769288
 
 -0.2500000E+00  0.1666667E+00  0.4857226E-16  0.1041667E-01
    1       -8.874844
    2        0.754084
    3        3.175129
    4        6.270866
    5       15.993451
    6       16.295408
    7       17.742422
    8       20.709760
 
 -0.1666667E+00  0.1666667E+00  0.1025096E-16  0.1736111E-02
    1       -9.953964
    2        2.876555
    3        3.901423
    4        6.980715
    5       15.351132
    6       16.032920
    7       16.788412
    8       20.307425
 
  0.2500000E+00  0.2500000E+00 -0.5551115E-16  0.5208333E-02
    1       -9.716229
    2        3.821313
    3        4.540622
    4        4.540622
    5       12.402515
    6       17.641258
    7       18.841975
    8       18.841976
 
  0.3333333E+00  0.2500000E+00 -0.8326673E-16  0.1041667E-01
    1       -8.856292
    2        2.121415
    3        3.906125
    4        4.030968
    5       12.699789
    6       16.928472
    7       19.706177
    8       19.763019
 
  0.4166667E+00  0.2500000E+00 -0.1110223E-15  0.1041667E-01
    1       -7.689131
    2        0.123319
    3        2.965679
    4        3.793381
    5       13.439319
    6       17.249463
    7       20.080879
    8       20.143021
 
  0.5000000E+00  0.2500000E+00 -0.1110223E-15  0.2083333E-01
    1       -6.313452
    2       -1.812014
    3        2.050853
    4        3.847562
    5       13.948535
    6       18.726261
    7       20.000905
    8       20.241061
 
 -0.4166667E+00  0.2500000E+00  0.6245005E-16  0.1041667E-01
    1       -5.401245
    2       -2.890881
    3        1.367479
    4        4.185387
    5       14.386290
    6       19.465617
    7       19.906022
    8       21.077760
 
 -0.3333333E+00  0.2500000E+00  0.7979728E-16  0.1041667E-01
    1       -6.360020
    2       -1.677232
    3        1.021801
    4        4.769064
    5       14.938790
    6       18.611482
    7       19.979107
    8       21.585928
 
 -0.2500000E+00  0.2500000E+00  0.6994254E-16  0.1041667E-01
    1       -7.720806
    2        0.039442
    3        1.354273
    4        5.517718
    5       15.553347
    6       17.484293
    7       19.443210
    8       20.596106
 
  0.3333333E+00  0.3333333E+00 -0.1387779E-15  0.1736111E-02
    1       -8.114592
    2        1.336491
    3        3.462272
    4        3.462272
    5       12.134093
    6       15.528052
    7       21.020475
    8       21.020476
 
  0.4166667E+00  0.3333333E+00 -0.1110223E-15  0.3472222E-02
    1       -7.060112
    2       -0.057982
    3        2.647294
    4        3.162933
    5       12.559902
    6       15.064488
    7       21.711325
    8       21.712593
 
  0.5000000E+00  0.3333333E+00 -0.1110223E-15  0.1041667E-01
    1       -5.756855
    2       -1.472112
    3        1.357977
    4        3.161607
    5       13.201934
    6       16.036420
    7       21.734159
    8       21.926003
 
 -0.4166667E+00  0.3333333E+00  0.6591949E-16  0.6944444E-02
    1       -4.568524
    2       -2.579024
    3        0.222370
    4        3.456694
    5       13.637847
    6       18.213847
    7       21.152441
    8       21.894980
 
 -0.3333333E+00  0.3333333E+00  0.7601307E-16  0.1736111E-02
    1       -5.078810
    2       -2.073764
    3       -0.182460
    4        4.017196
    5       14.205109
    6       20.062152
    7       20.466203
    8       21.593725
 
  0.4166667E+00  0.4166667E+00 -0.1110223E-15  0.1736111E-02
    1       -6.119729
    2       -1.264568
    3        2.791218
    4        2.791219
    5       12.212004
    6       13.838532
    7       22.728663
    8       22.728664
 
  0.5000000E+00  0.4166667E+00 -0.2775558E-15  0.1041667E-01
    1       -4.911721
    2       -2.513305
    3        2.075589
    4        2.717123
    5       12.746754
    6       13.808545
    7       22.970083
    8       23.052019
 
 -0.4166667E+00  0.4166667E+00  0.3856014E-16  0.1736111E-02
    1       -3.786819
    2       -3.366226
    3        0.834882
    4        2.946507
    5       13.133270
    6       15.600782
    7       22.406302
    8       22.806589
 
  0.5000000E+00  0.5000000E+00 -0.1110223E-15  0.2604167E-02
    1       -3.800416
    2       -3.800416
    3        2.564242
    4        2.564242
    5       12.749006
    6       12.749006
    7       23.415680
    8       23.415681
 
  0.0000000E+00  0.0000000E+00  0.1250000E+00  0.1736111E-02
    1      -11.428679
    2        5.997679
    3        7.645860
    4        7.645860
    5       14.274620
    6       14.274620
    7       14.542920
    8       19.668476
 
  0.8333333E-01  0.6938894E-17  0.1250000E+00  0.3472222E-02
    1      -11.428498
    2        6.639642
    3        7.071165
    4        7.503690
    5       13.345993
    6       14.966678
    7       14.970944
    8       19.490489
 
  0.1666667E+00  0.1387779E-16  0.1250000E+00  0.3472222E-02
    1      -11.074388
    2        5.830696
    3        6.324972
    4        6.780102
    5       13.117602
    6       15.965967
    7       15.993236
    8       19.474648
 
  0.2500000E+00 -0.2775558E-16  0.1250000E+00  0.5208333E-02
    1      -10.372375
    2        3.503741
    3        5.662152
    4        6.316852
    5       13.691130
    6       16.661224
    7       16.929301
    8       19.675681
 
  0.3333333E+00 -0.2775558E-16  0.1250000E+00  0.3472222E-02
    1       -9.338818
    2        1.004113
    3        5.203896
    4        5.616117
    5       14.460710
    6       16.989914
    7       17.486017
    8       20.202368
 
  0.4166667E+00  0.0000000E+00  0.1250000E+00  0.3472222E-02
    1       -8.020787
    2       -1.379499
    3        4.937340
    4        4.998622
    5       14.985280
    6       17.141348
    7       17.597251
    8       21.178851
 
  0.5000000E+00 -0.5551115E-16  0.1250000E+00  0.5208333E-02
    1       -6.650126
    2       -3.303470
    3        4.408524
    4        5.057267
    5       15.318482
    6       17.197549
    7       17.400160
    8       22.244891
 
 -0.4166667E+00  0.0000000E+00  0.1250000E+00  0.3472222E-02
    1       -6.653607
    2       -3.295491
    3        4.095207
    4        5.366787
    5       15.623804
    6       17.037024
    7       17.212456
    8       22.572479
 
 -0.3333333E+00  0.2775558E-16  0.1250000E+00  0.3472222E-02
    1       -8.024152
    2       -1.362539
    3        4.034935
    4        5.891905
    5       15.902166
    6       16.528248
    7       17.186912
    8       21.869877
 
 -0.2500000E+00  0.2775558E-16  0.1250000E+00  0.5208333E-02
    1       -9.340907
    2        1.025019
    3        4.250916
    4        6.565316
    5       15.812647
    6       16.029954
    7       16.942020
    8       20.896194
 
 -0.1666667E+00 -0.1387779E-16  0.1250000E+00  0.3472222E-02
    1      -10.373559
    2        3.473393
    3        4.792397
    4        7.256671
    5       14.948448
    6       15.878022
    7       16.176192
    8       20.291130
 
 -0.8333333E-01 -0.6938894E-17  0.1250000E+00  0.3472222E-02
    1      -11.074979
    2        5.122973
    3        6.178722
    4        7.716787
    5       14.283498
    6       15.109371
    7       15.324656
    8       19.949230
 
  0.8333333E-01  0.8333333E-01  0.1250000E+00  0.1736111E-02
    1      -11.546901
    2        6.714853
    3        7.405920
    4        8.009454
    5       13.836615
    6       14.221948
    7       14.459391
    8       19.486000
 
  0.1666667E+00  0.8333333E-01  0.1250000E+00  0.3472222E-02
    1      -11.310486
    2        5.930768
    3        6.776907
    4        7.731477
    5       13.776893
    6       14.940744
    7       15.060348
    8       19.687583
 
  0.2500000E+00  0.8333333E-01  0.1250000E+00  0.6944444E-02
    1      -10.723073
    2        4.292083
    3        5.474288
    4        7.360328
    5       14.307101
    6       15.787226
    7       15.936541
    8       20.056900
 
  0.3333333E+00  0.8333333E-01  0.1250000E+00  0.3472222E-02
    1       -9.796606
    2        1.819001
    3        4.859965
    4        6.706778
    5       15.135267
    6       16.114801
    7       16.760807
    8       20.626987
 
  0.4166667E+00  0.8333333E-01  0.1250000E+00  0.3472222E-02
    1       -8.562908
    2       -0.651152
    3        4.528786
    4        6.036903
    5       15.803677
    6       16.154810
    7       17.137582
    8       21.519375
 
  0.5000000E+00  0.8333333E-01  0.1250000E+00  0.6944444E-02
    1       -7.145866
    2       -2.814410
    3        4.448234
    4        5.508287
    5       15.996838
    6       16.204457
    7       17.267534
    8       22.406964
 
 -0.4166667E+00  0.8333333E-01  0.1250000E+00  0.3472222E-02
    1       -6.448219
    2       -3.703596
    3        4.566269
    4        5.235009
    5       15.754559
    6       16.441205
    7       17.344663
    8       22.606314
 
 -0.3333333E+00  0.8333333E-01  0.1250000E+00  0.3472222E-02
    1       -7.617181
    2       -2.157927
    3        4.740734
    4        5.372347
    5       15.470511
    6       16.575667
    7       17.384296
    8       21.911992
 
 -0.2500000E+00  0.8333333E-01  0.1250000E+00  0.6944444E-02
    1       -9.003560
    2        0.145570
    3        4.973299
    4        5.888864
    5       15.039486
    6       16.568606
    7       17.279172
    8       20.909832
 
 -0.1666667E+00  0.8333333E-01  0.1250000E+00  0.3472222E-02
    1      -10.141290
    2        2.657051
    3        5.399964
    4        6.557607
    5       14.330985
    6       16.367650
    7       16.824612
    8       20.157055
 
 -0.8333333E-01  0.8333333E-01  0.1250000E+00  0.3472222E-02
    1      -10.957089
    2        5.100701
    3        6.048244
    4        7.151412
    5       13.571486
    6       15.862624
    7       15.957769
    8       19.715965
 
  0.1666667E+00  0.1666667E+00  0.1250000E+00  0.1736111E-02
    1      -11.192714
    2        5.174232
    3        7.052599
    4        7.531234
    5       14.141543
    6       15.002488
    7       15.016790
    8       19.906367
 
  0.3333333E+00  0.1666667E+00  0.1250000E+00  0.3472222E-02
    1       -9.910529
    2        2.675868
    3        4.092928
    4        6.826355
    5       15.074258
    6       16.185648
    7       17.026267
    8       20.206911
 
  0.4166667E+00  0.1666667E+00  0.1250000E+00  0.3472222E-02
    1       -8.778163
    2        0.295533
    3        3.636077
    4        6.113319
    5       15.945858
    6       16.166326
    7       17.723704
    8       20.835029
 
  0.5000000E+00  0.1666667E+00  0.1250000E+00  0.6944444E-02
    1       -7.399976
    2       -1.968792
    3        3.523663
    4        5.455797
    5       15.889278
    6       16.580218
    7       17.978877
    8       21.916889
 
 -0.4166667E+00  0.1666667E+00  0.1250000E+00  0.3472222E-02
    1       -6.237642
    2       -3.503493
    3        3.674290
    4        4.989521
    5       15.530592
    6       16.973439
    7       18.118208
    8       22.426863
 
 -0.3333333E+00  0.1666667E+00  0.1250000E+00  0.3472222E-02
    1       -6.925012
    2       -2.638229
    3        4.003708
    4        4.828484
    5       15.185661
    6       17.221696
    7       18.202614
    8       21.618088
 
 -0.2500000E+00  0.1666667E+00  0.1250000E+00  0.6944444E-02
    1       -8.334883
    2       -0.516349
    3        4.343548
    4        5.120854
    5       14.771491
    6       17.321823
    7       18.157682
    8       20.374341
 
 -0.1666667E+00  0.1666667E+00  0.1250000E+00  0.3472222E-02
    1       -9.564349
    2        1.886313
    3        4.724638
    4        5.750760
    5       14.100166
    6       17.211648
    7       17.835892
    8       19.561536
 
 -0.8333333E-01  0.1666667E+00  0.1250000E+00  0.3472222E-02
    1      -10.488291
    2        4.262649
    3        5.309423
    4        6.367490
    5       13.335840
    6       16.815296
    7       17.059258
    8       19.358128
 
  0.3333333E+00  0.2500000E+00  0.1250000E+00  0.6944444E-02
    1       -9.677677
    2        2.674452
    3        4.067124
    4        5.885378
    5       13.936023
    6       17.280721
    7       18.164705
    8       19.126288
 
  0.4166667E+00  0.2500000E+00  0.1250000E+00  0.6944444E-02
    1       -8.656715
    2        1.192539
    3        2.818270
    4        5.248214
    5       14.842628
    6       17.349091
    7       18.881623
    8       19.421126
 
  0.5000000E+00  0.2500000E+00  0.1250000E+00  0.1041667E-01
    1       -7.358683
    2       -0.929065
    3        2.471730
    4        4.552461
    5       15.671158
    6       17.071155
    7       19.323420
    8       20.484300
 
 -0.4166667E+00  0.2500000E+00  0.1250000E+00  0.6944444E-02
    1       -6.014643
    2       -2.754700
    3        2.401649
    4        4.096339
    5       16.089428
    6       16.765212
    7       19.818555
    8       21.546302
 
  0.3333333E+00  0.3333333E+00  0.1250000E+00  0.1736111E-02
    1       -9.102393
    2        1.930577
    3        4.395643
    4        4.418961
    5       13.242076
    6       17.827858
    7       18.942246
    8       19.008768
 
  0.4166667E+00  0.3333333E+00  0.1250000E+00  0.3472222E-02
    1       -8.198783
    2        1.086410
    3        2.875669
    4        4.067207
    5       13.625282
    6       17.197950
    7       19.141702
    8       20.461874
 
  0.5000000E+00  0.3333333E+00  0.1250000E+00  0.6944444E-02
    1       -7.002595
    2       -0.222417
    3        1.839991
    4        3.381580
    5       14.676848
    6       17.314389
    7       18.976616
    8       21.459708
 
 -0.4166667E+00  0.3333333E+00  0.1250000E+00  0.3472222E-02
    1       -5.641797
    2       -1.859783
    3        1.265707
    4        2.988279
    5       15.387460
    6       18.440046
    7       18.892009
    8       21.642859
 
 -0.3333333E+00  0.3333333E+00  0.1250000E+00  0.3472222E-02
    1       -5.005446
    2       -2.559481
    3        0.840286
    4        3.143168
    5       15.850479
    6       18.130086
    7       20.557080
    8       20.957913
 
 -0.2500000E+00  0.3333333E+00  0.1250000E+00  0.6944444E-02
    1       -6.130903
    2       -1.253218
    3        0.742012
    4        3.714047
    5       16.398335
    6       17.350443
    7       19.682188
    8       21.396637
 
 -0.1666667E+00  0.3333333E+00  0.1250000E+00  0.3472222E-02
    1       -7.453568
    2       -0.128236
    3        1.677945
    4        4.498242
    5       15.991603
    6       16.999732
    7       19.125707
    8       20.564455
 
 -0.8333333E-01  0.3333333E+00  0.1250000E+00  0.3472222E-02
    1       -8.548669
    2        0.386043
    3        3.571034
    4        5.209111
    5       14.770366
    6       17.350017
    7       18.691928
    8       19.700325
 
  0.4166667E+00  0.4166667E+00  0.1250000E+00  0.1736111E-02
    1       -7.414862
    2        0.247749
    3        2.626552
    4        3.449924
    5       12.967878
    6       16.064251
    7       20.950723
    8       20.974825
 
  0.5000000E+00  0.4166667E+00  0.1250000E+00  0.6944444E-02
    1       -6.332767
    2       -0.784820
    3        1.991269
    4        2.747299
    5       13.563141
    6       15.579113
    7       20.981088
    8       22.243565
 
 -0.4166667E+00  0.4166667E+00  0.1250000E+00  0.3472222E-02
    1       -5.031932
    2       -1.909076
    3        1.222875
    4        2.115397
    5       14.738066
    6       16.132372
    7       20.730045
    8       22.376552
 
 -0.3333333E+00  0.4166667E+00  0.1250000E+00  0.3472222E-02
    1       -4.027935
    2       -2.703672
    3        0.205892
    4        2.345081
    5       15.248831
    6       18.296163
    7       20.253613
    8       21.296647
 
 -0.2500000E+00  0.4166667E+00  0.1250000E+00  0.6944444E-02
    1       -4.851056
    2       -2.142584
    3        0.153275
    4        2.975114
    5       15.791025
    6       18.790109
    7       20.432638
    8       20.637247
 
 -0.1666667E+00  0.4166667E+00  0.1250000E+00  0.3472222E-02
    1       -6.080422
    2       -1.982976
    3        1.527800
    4        3.836131
    5       16.366997
    6       16.951912
    7       20.008531
    8       21.295141
 
 -0.8333333E-01  0.4166667E+00  0.1250000E+00  0.3472222E-02
    1       -7.176127
    2       -1.819657
    3        3.319325
    4        4.660218
    5       15.335820
    6       17.149967
    7       18.977068
    8       20.906769
 
  0.5000000E+00  0.5000000E+00  0.1250000E+00  0.5208333E-02
    1       -5.369849
    2       -1.898893
    3        1.643280
    4        2.905013
    5       12.932264
    6       14.813850
    7       22.436695
    8       22.584274
 
 -0.4166667E+00  0.5000000E+00  0.1250000E+00  0.6944444E-02
    1       -4.169778
    2       -3.017426
    3        1.561745
    4        2.247705
    5       13.757655
    6       14.626616
    7       22.420079
    8       22.781978
 
 -0.3333333E+00  0.5000000E+00  0.1250000E+00  0.6944444E-02
    1       -3.982696
    2       -2.905985
    3        1.082667
    4        1.870947
    5       14.814742
    6       15.824553
    7       21.513779
    8       22.141517
 
 -0.2500000E+00  0.5000000E+00  0.1250000E+00  0.1041667E-01
    1       -4.758749
    2       -2.281822
    3        0.629995
    4        2.546206
    5       15.296099
    6       18.419017
    7       19.491913
    8       21.686269
 
 -0.1666667E+00  0.5000000E+00  0.1250000E+00  0.6944444E-02
    1       -5.400206
    2       -2.818245
    3        1.673355
    4        3.509736
    5       15.960263
    6       17.389479
    7       20.364501
    8       21.311685
 
 -0.8333333E-01  0.5000000E+00  0.1250000E+00  0.6944444E-02
    1       -6.024969
    2       -3.317511
    3        3.132714
    4        4.507055
    5       15.715029
    6       16.839620
    7       19.068004
    8       22.043457
 
 -0.4166667E+00 -0.4166667E+00  0.1250000E+00  0.1736111E-02
    1       -4.249897
    2       -3.064965
    3        1.464360
    4        2.794588
    5       12.961044
    6       14.522305
    7       22.784478
    8       22.998502
 
 -0.3333333E+00 -0.4166667E+00  0.1250000E+00  0.3472222E-02
    1       -5.279694
    2       -1.876522
    3        1.707751
    4        2.407064
    5       13.644326
    6       14.994154
    7       21.793250
    8       22.713961
 
 -0.2500000E+00 -0.4166667E+00  0.1250000E+00  0.6944444E-02
    1       -6.048708
    2       -1.009211
    3        1.482302
    4        2.625105
    5       14.678683
    6       16.647990
    7       19.858490
    8       22.138486
 
 -0.1666667E+00 -0.4166667E+00  0.1250000E+00  0.3472222E-02
    1       -6.525901
    2       -1.423430
    3        1.895204
    4        3.690888
    5       15.516283
    6       17.757216
    7       19.128713
    8       21.113581
 
 -0.8333333E-01 -0.4166667E+00  0.1250000E+00  0.3472222E-02
    1       -6.714068
    2       -2.446154
    3        2.994195
    4        4.807012
    5       16.069594
    6       16.484941
    7       18.962023
    8       21.764473
 
 -0.3333333E+00 -0.3333333E+00  0.1250000E+00  0.1736111E-02
    1       -6.431558
    2       -0.772697
    3        2.020771
    4        3.124512
    5       12.923133
    6       15.343892
    7       21.804449
    8       21.862099
 
 -0.2500000E+00 -0.3333333E+00  0.1250000E+00  0.6944444E-02
    1       -7.309977
    2        0.207462
    3        2.389490
    4        3.301684
    5       13.556647
    6       16.325226
    7       20.076610
    8       21.455242
 
 -0.1666667E+00 -0.3333333E+00  0.1250000E+00  0.3472222E-02
    1       -7.875886
    2        0.492686
    3        2.286949
    4        4.295640
    5       14.735498
    6       18.035887
    7       18.186900
    8       20.493294
 
 -0.8333333E-01 -0.3333333E+00  0.1250000E+00  0.3472222E-02
    1       -8.114366
    2       -0.357443
    3        3.042389
    4        5.407184
    5       15.831500
    6       16.523380
    7       18.711980
    8       20.535277
 
 -0.2500000E+00 -0.2500000E+00  0.1250000E+00  0.5208333E-02
    1       -8.307958
    2        1.133797
    3        3.454026
    4        3.876198
    5       13.075837
    6       16.930194
    7       19.940189
    8       20.024418
 
 -0.1666667E+00 -0.2500000E+00  0.1250000E+00  0.6944444E-02
    1       -8.990180
    2        1.890670
    3        3.436874
    4        4.966078
    5       13.757704
    6       18.011996
    7       18.341902
    8       19.358013
 
 -0.8333333E-01 -0.2500000E+00  0.1250000E+00  0.6944444E-02
    1       -9.336874
    2        1.915054
    3        3.425539
    4        6.126213
    5       14.973732
    6       16.689695
    7       18.151216
    8       19.727885
 
 -0.1666667E+00 -0.1666667E+00  0.1250000E+00  0.1736111E-02
    1       -9.792051
    2        2.706994
    3        4.996829
    4        5.406367
    5       13.453509
    6       17.645210
    7       17.966780
    8       18.997789
 
 -0.8333333E-01 -0.1666667E+00  0.1250000E+00  0.3472222E-02
    1      -10.256467
    2        3.471919
    3        4.754553
    4        6.717453
    5       14.134610
    6       16.472896
    7       17.013696
    8       19.792438
 
 -0.8333333E-01 -0.8333333E-01  0.1250000E+00  0.1736111E-02
    1      -10.840070
    2        4.330564
    3        6.363340
    4        7.058432
    5       13.930485
    6       15.741435
    7       15.929621
    8       19.980865
 
  0.1666667E+00  0.8333333E-01  0.2500000E+00  0.3472222E-02
    1      -10.649491
    2        4.472137
    3        5.256679
    4        6.979537
    5       13.778123
    6       16.231744
    7       16.491445
    8       19.738593
 
  0.3333333E+00  0.8333333E-01  0.2500000E+00  0.6944444E-02
    1       -9.488719
    2        2.790600
    3        3.898519
    4        5.265723
    5       13.356304
    6       17.952329
    7       18.417296
    8       18.822243
 
  0.4166667E+00  0.8333333E-01  0.2500000E+00  0.6944444E-02
    1       -8.415585
    2        0.844226
    3        3.141398
    4        4.636042
    5       14.196969
    6       18.138044
    7       18.320245
    8       19.791155
 
  0.5000000E+00  0.8333333E-01  0.2500000E+00  0.2083333E-01
    1       -7.081422
    2       -1.281359
    3        2.723991
    4        4.116660
    5       14.866785
    6       18.021134
    7       19.131568
    8       20.411336
 
 -0.4166667E+00  0.8333333E-01  0.2500000E+00  0.1388889E-01
    1       -5.814741
    2       -2.933290
    3        2.341940
    4        4.038002
    5       15.298811
    6       17.686676
    7       19.843969
    8       21.346169
 
 -0.3333333E+00  0.8333333E-01  0.2500000E+00  0.6944444E-02
    1       -6.182189
    2       -2.467420
    3        2.054845
    4        4.393549
    5       15.747288
    6       17.241605
    7       19.760605
    8       21.698941
 
 -0.2500000E+00  0.8333333E-01  0.2500000E+00  0.2083333E-01
    1       -7.559111
    2       -0.536276
    3        2.024671
    4        5.031884
    5       16.240313
    6       16.553767
    7       19.452811
    8       20.528971
 
 -0.1666667E+00  0.8333333E-01  0.2500000E+00  0.6944444E-02
    1       -8.814115
    2        1.377177
    3        2.599317
    4        5.783346
    5       15.499208
    6       16.637467
    7       18.837483
    8       19.636968
 
 -0.8333333E-01  0.8333333E-01  0.2500000E+00  0.6944444E-02
    1       -9.780435
    2        2.290081
    3        4.436875
    4        6.393158
    5       14.557808
    6       16.609705
    7       17.448537
    8       19.934863
 
  0.4166667E+00  0.3333333E+00  0.2500000E+00  0.6944444E-02
    1       -8.597679
    2       -0.135792
    3        4.053390
    4        5.705698