16   
1    

1    
  0.0100000000000000   0.0000000000000000   0.0000000000000000
  -0.3580301500   -0.0028657000   -0.0020263500
   0.0555005000    0.0000164000    0.0000116000
   0.0008350700    0.0315065600   -0.0102639900
   0.0008769900   -0.0315857300    0.0101712900
   0.0008350700    0.0008252000    0.0331260000
   0.0008769900   -0.0009390000   -0.0331697400
  -0.0006740300   -0.0000424800   -0.0000300400
   0.0037730600    0.0000111300    0.0000078700
   0.0905185100    0.0133599600    0.0094469200
   0.0861611000   -0.0106640300   -0.0075406100
   0.0675805100    0.0002116600    0.0001632700
  -0.0059241900   -0.0000495300    0.0000223100
   0.0675805100    0.0002244900    0.0001451300
  -0.0059241900    0.0000045200   -0.0000541300
  -0.0020030000   -0.0022782800   -0.0016109800
  -0.0019827700    0.0022648100    0.0016014600
