       N       E                     dE             d eps       ncg     rms          rms(c)
DAV:   1     0.877206489139E+01    0.87721E+01   -0.62288E+03  3136   0.137E+03
DAV:   2    -0.182465664939E+02   -0.27019E+02   -0.26618E+02  4872   0.138E+02
DAV:   3    -0.184798125617E+02   -0.23325E+00   -0.23325E+00  3312   0.170E+01
DAV:   4    -0.184802338510E+02   -0.42129E-03   -0.42129E-03  4480   0.784E-01
DAV:   5    -0.184802339983E+02   -0.14724E-06   -0.14724E-06  3296   0.103E-02    0.417E+00
DAV:   6    -0.181443376778E+02    0.33590E+00   -0.26268E-01  3224   0.400E+00    0.232E+00
DAV:   7    -0.180317104290E+02    0.11263E+00   -0.29384E-01  3864   0.434E+00    0.337E-01
DAV:   8    -0.180329053485E+02   -0.11949E-02   -0.18259E-03  3472   0.497E-01    0.418E-02
DAV:   9    -0.180329360462E+02   -0.30698E-04   -0.12940E-04  4600   0.101E-01    0.123E-02
DAV:  10    -0.180329469447E+02   -0.10899E-04   -0.13067E-05  3112   0.409E-02    0.992E-04
DAV:  11    -0.180329468466E+02    0.98183E-07   -0.45669E-08  4520   0.221E-03    0.219E-04
DAV:  12    -0.180329468205E+02    0.26009E-07   -0.57427E-09  3080   0.985E-04    0.553E-05
DAV:  13    -0.180329468226E+02   -0.20642E-08   -0.17408E-10  1552   0.122E-04
   1 F= -.18376018E+02 E0= -.18376018E+02  d E =-.183760E+02
