# Thermal properties / unit cell (natom)

unit:
  temperature:   K
  free_energy:   kJ/mol
  entropy:       J/K/mol
  heat_capacity: J/K/mol

natom:     2
num_modes: 1944
num_integrated_modes: 1944

zero_point_energy:      31.1166284
high_T_entropy:        113.8128790

thermal_properties:
- temperature:         0.0000000
  free_energy:        31.1166284
  entropy:             0.0000000
  heat_capacity:       0.0000000
  energy:             31.1166284

- temperature:        10.0000000
  free_energy:        31.1166284
  entropy:             0.0000000
  heat_capacity:       0.0000000
  energy:             31.1166284

- temperature:        20.0000000
  free_energy:        31.1166283
  entropy:             0.0000106
  heat_capacity:       0.0001252
  energy:             31.1166285

- temperature:        30.0000000
  free_energy:        31.1166267
  entropy:             0.0005460
  heat_capacity:       0.0043198
  energy:             31.1166430

- temperature:        40.0000000
  free_energy:        31.1166078
  entropy:             0.0040090
  heat_capacity:       0.0242975
  energy:             31.1167681

- temperature:        50.0000000
  free_energy:        31.1165254
  entropy:             0.0137613
  heat_capacity:       0.0694798
  energy:             31.1172135

- temperature:        60.0000000
  free_energy:        31.1163021
  entropy:             0.0326244
  heat_capacity:       0.1452292
  energy:             31.1182596

- temperature:        70.0000000
  free_energy:        31.1158349
  entropy:             0.0628918
  heat_capacity:       0.2568054
  energy:             31.1202373

- temperature:        80.0000000
  free_energy:        31.1149991
  entropy:             0.1067185
  heat_capacity:       0.4106556
  energy:             31.1235366

- temperature:        90.0000000
  free_energy:        31.1136481
  entropy:             0.1662876
  heat_capacity:       0.6135203
  energy:             31.1286140

- temperature:       100.0000000
  free_energy:        31.1116136
  entropy:             0.2437609
  heat_capacity:       0.8711508
  energy:             31.1359897

- temperature:       110.0000000
  free_energy:        31.1087064
  entropy:             0.3411522
  heat_capacity:       1.1875802
  energy:             31.1462332

- temperature:       120.0000000
  free_energy:        31.1047183
  entropy:             0.4602214
  heat_capacity:       1.5650184
  energy:             31.1599449

- temperature:       130.0000000
  free_energy:        31.0994249
  entropy:             0.6024171
  heat_capacity:       2.0040825
  energy:             31.1777391

- temperature:       140.0000000
  free_energy:        31.0925891
  entropy:             0.7688622
  heat_capacity:       2.5040962
  energy:             31.2002298

- temperature:       150.0000000
  free_energy:        31.0839641
  entropy:             0.9603630
  heat_capacity:       3.0633315
  energy:             31.2280185

- temperature:       160.0000000
  free_energy:        31.0732966
  entropy:             1.1774289
  heat_capacity:       3.6791746
  energy:             31.2616852

- temperature:       170.0000000
  free_energy:        31.0603295
  entropy:             1.4202944
  heat_capacity:       4.3482445
  energy:             31.3017795

- temperature:       180.0000000
  free_energy:        31.0448047
  entropy:             1.6889410
  heat_capacity:       5.0664981
  energy:             31.3488141

- temperature:       190.0000000
  free_energy:        31.0264655
  entropy:             1.9831192
  heat_capacity:       5.8293452
  energy:             31.4032582

- temperature:       200.0000000
  free_energy:        31.0050587
  entropy:             2.3023712
  heat_capacity:       6.6317760
  energy:             31.4655330

- temperature:       210.0000000
  free_energy:        30.9803367
  entropy:             2.6460542
  heat_capacity:       7.4685015
  energy:             31.5360080

- temperature:       220.0000000
  free_energy:        30.9520589
  entropy:             3.0133652
  heat_capacity:       8.3340940
  energy:             31.6149992

- temperature:       230.0000000
  free_energy:        30.9199937
  entropy:             3.4033666
  heat_capacity:       9.2231220
  energy:             31.7027680

- temperature:       240.0000000
  free_energy:        30.8839194
  entropy:             3.8150110
  heat_capacity:      10.1302691
  energy:             31.7995220

- temperature:       250.0000000
  free_energy:        30.8436251
  entropy:             4.2471666
  heat_capacity:      11.0504343
  energy:             31.9054168

- temperature:       260.0000000
  free_energy:        30.7989117
  entropy:             4.6986400
  heat_capacity:      11.9788107
  energy:             32.0205581

- temperature:       270.0000000
  free_energy:        30.7495920
  entropy:             5.1681979
  heat_capacity:      12.9109419
  energy:             32.1450054

- temperature:       280.0000000
  free_energy:        30.6954916
  entropy:             5.6545864
  heat_capacity:      13.8427597
  energy:             32.2787758

- temperature:       290.0000000
  free_energy:        30.6364484
  entropy:             6.1565481
  heat_capacity:      14.7706030
  energy:             32.4218473

- temperature:       300.0000000
  free_energy:        30.5723129
  entropy:             6.6728362
  heat_capacity:      15.6912232
  energy:             32.5741637

- temperature:       310.0000000
  free_energy:        30.5029480
  entropy:             7.2022265
  heat_capacity:      16.6017775
  energy:             32.7356382

- temperature:       320.0000000
  free_energy:        30.4282287
  entropy:             7.7435277
  heat_capacity:      17.4998132
  energy:             32.9061575

- temperature:       330.0000000
  free_energy:        30.3480416
  entropy:             8.2955884
  heat_capacity:      18.3832466
  energy:             33.0855858

- temperature:       340.0000000
  free_energy:        30.2622847
  entropy:             8.8573036
  heat_capacity:      19.2503365
  energy:             33.2737679

- temperature:       350.0000000
  free_energy:        30.1708668
  entropy:             9.4276182
  heat_capacity:      20.0996566
  energy:             33.4705332

- temperature:       360.0000000
  free_energy:        30.0737070
  entropy:            10.0055305
  heat_capacity:      20.9300657
  energy:             33.6756980

- temperature:       370.0000000
  free_energy:        29.9707341
  entropy:            10.5900931
  heat_capacity:      21.7406786
  energy:             33.8890685

- temperature:       380.0000000
  free_energy:        29.8618860
  entropy:            11.1804142
  heat_capacity:      22.5308379
  energy:             34.1104434

- temperature:       390.0000000
  free_energy:        29.7471094
  entropy:            11.7756569
  heat_capacity:      23.3000864
  energy:             34.3396156

- temperature:       400.0000000
  free_energy:        29.6263591
  entropy:            12.3750385
  heat_capacity:      24.0481421
  energy:             34.5763744

- temperature:       410.0000000
  free_energy:        29.4995973
  entropy:            12.9778294
  heat_capacity:      24.7748749
  energy:             34.8205073

- temperature:       420.0000000
  free_energy:        29.3667934
  entropy:            13.5833512
  heat_capacity:      25.4802845
  energy:             35.0718009

- temperature:       430.0000000
  free_energy:        29.2279232
  entropy:            14.1909745
  heat_capacity:      26.1644815
  energy:             35.3300423

- temperature:       440.0000000
  free_energy:        29.0829688
  entropy:            14.8001174
  heat_capacity:      26.8276701
  energy:             35.5950204

- temperature:       450.0000000
  free_energy:        28.9319176
  entropy:            15.4102422
  heat_capacity:      27.4701320
  energy:             35.8665266

- temperature:       460.0000000
  free_energy:        28.7747624
  entropy:            16.0208539
  heat_capacity:      28.0922133
  energy:             36.1443551

- temperature:       470.0000000
  free_energy:        28.6115004
  entropy:            16.6314975
  heat_capacity:      28.6943119
  energy:             36.4283042

- temperature:       480.0000000
  free_energy:        28.4421337
  entropy:            17.2417553
  heat_capacity:      29.2768673
  energy:             36.7181762

- temperature:       490.0000000
  free_energy:        28.2666679
  entropy:            17.8512451
  heat_capacity:      29.8403513
  energy:             37.0137780

- temperature:       500.0000000
  free_energy:        28.0851125
  entropy:            18.4596177
  heat_capacity:      30.3852600
  energy:             37.3149213

- temperature:       510.0000000
  free_energy:        27.8974803
  entropy:            19.0665543
  heat_capacity:      30.9121070
  energy:             37.6214230

- temperature:       520.0000000
  free_energy:        27.7037872
  entropy:            19.6717651
  heat_capacity:      31.4214176
  energy:             37.9331050

- temperature:       530.0000000
  free_energy:        27.5040517
  entropy:            20.2749868
  heat_capacity:      31.9137238
  energy:             38.2497947

- temperature:       540.0000000
  free_energy:        27.2982949
  entropy:            20.8759810
  heat_capacity:      32.3895600
  energy:             38.5713246

- temperature:       550.0000000
  free_energy:        27.0865402
  entropy:            21.4745319
  heat_capacity:      32.8494596
  energy:             38.8975328

- temperature:       560.0000000
  free_energy:        26.8688130
  entropy:            22.0704454
  heat_capacity:      33.2939522
  energy:             39.2282624

- temperature:       570.0000000
  free_energy:        26.6451407
  entropy:            22.6635465
  heat_capacity:      33.7235606
  energy:             39.5633622

- temperature:       580.0000000
  free_energy:        26.4155520
  entropy:            23.2536789
  heat_capacity:      34.1387996
  energy:             39.9026858

- temperature:       590.0000000
  free_energy:        26.1800775
  entropy:            23.8407026
  heat_capacity:      34.5401738
  energy:             40.2460920

- temperature:       600.0000000
  free_energy:        25.9387487
  entropy:            24.4244932
  heat_capacity:      34.9281767
  energy:             40.5934447

- temperature:       610.0000000
  free_energy:        25.6915987
  entropy:            25.0049407
  heat_capacity:      35.3032894
  energy:             40.9446125

- temperature:       620.0000000
  free_energy:        25.4386614
  entropy:            25.5819478
  heat_capacity:      35.6659803
  energy:             41.2994690

- temperature:       630.0000000
  free_energy:        25.1799715
  entropy:            26.1554297
  heat_capacity:      36.0167039
  energy:             41.6578923

- temperature:       640.0000000
  free_energy:        24.9155648
  entropy:            26.7253124
  heat_capacity:      36.3559013
  energy:             42.0197647

- temperature:       650.0000000
  free_energy:        24.6454775
  entropy:            27.2915320
  heat_capacity:      36.6839992
  energy:             42.3849733

- temperature:       660.0000000
  free_energy:        24.3697465
  entropy:            27.8540341
  heat_capacity:      37.0014102
  energy:             42.7534091

- temperature:       670.0000000
  free_energy:        24.0884094
  entropy:            28.4127729
  heat_capacity:      37.3085330
  energy:             43.1249672

- temperature:       680.0000000
  free_energy:        23.8015038
  entropy:            28.9677102
  heat_capacity:      37.6057520
  energy:             43.4995467

- temperature:       690.0000000
  free_energy:        23.5090679
  entropy:            29.5188153
  heat_capacity:      37.8934377
  energy:             43.8770505

- temperature:       700.0000000
  free_energy:        23.2111403
  entropy:            30.0660637
  heat_capacity:      38.1719473
  energy:             44.2573849

- temperature:       710.0000000
  free_energy:        22.9077596
  entropy:            30.6094372
  heat_capacity:      38.4416244
  energy:             44.6404600

- temperature:       720.0000000
  free_energy:        22.5989645
  entropy:            31.1489229
  heat_capacity:      38.7027994
  energy:             45.0261890

- temperature:       730.0000000
  free_energy:        22.2847941
  entropy:            31.6845131
  heat_capacity:      38.9557904
  energy:             45.4144887

- temperature:       740.0000000
  free_energy:        21.9652873
  entropy:            32.2162045
  heat_capacity:      39.2009027
  energy:             45.8052786

- temperature:       750.0000000
  free_energy:        21.6404830
  entropy:            32.7439979
  heat_capacity:      39.4384300
  energy:             46.1984814

- temperature:       760.0000000
  free_energy:        21.3104203
  entropy:            33.2678981
  heat_capacity:      39.6686540
  energy:             46.5940228

- temperature:       770.0000000
  free_energy:        20.9751380
  entropy:            33.7879131
  heat_capacity:      39.8918457
  energy:             46.9918311

- temperature:       780.0000000
  free_energy:        20.6346749
  entropy:            34.3040542
  heat_capacity:      40.1082647
  energy:             47.3918372

- temperature:       790.0000000
  free_energy:        20.2890698
  entropy:            34.8163353
  heat_capacity:      40.3181606
  energy:             47.7939746

- temperature:       800.0000000
  free_energy:        19.9383610
  entropy:            35.3247730
  heat_capacity:      40.5217727
  energy:             48.1981794

- temperature:       810.0000000
  free_energy:        19.5825871
  entropy:            35.8293862
  heat_capacity:      40.7193307
  energy:             48.6043899

- temperature:       820.0000000
  free_energy:        19.2217860
  entropy:            36.3301959
  heat_capacity:      40.9110552
  energy:             49.0125466

- temperature:       830.0000000
  free_energy:        18.8559957
  entropy:            36.8272247
  heat_capacity:      41.0971575
  energy:             49.4225923

- temperature:       840.0000000
  free_energy:        18.4852540
  entropy:            37.3204972
  heat_capacity:      41.2778406
  energy:             49.8344717

- temperature:       850.0000000
  free_energy:        18.1095982
  entropy:            37.8100393
  heat_capacity:      41.4532991
  energy:             50.2481317

- temperature:       860.0000000
  free_energy:        17.7290656
  entropy:            38.2958783
  heat_capacity:      41.6237199
  energy:             50.6635209

- temperature:       870.0000000
  free_energy:        17.3436929
  entropy:            38.7780425
  heat_capacity:      41.7892822
  energy:             51.0805899

- temperature:       880.0000000
  free_energy:        16.9535169
  entropy:            39.2565614
  heat_capacity:      41.9501580
  energy:             51.4992909

- temperature:       890.0000000
  free_energy:        16.5585737
  entropy:            39.7314654
  heat_capacity:      42.1065123
  energy:             51.9195780

- temperature:       900.0000000
  free_energy:        16.1588995
  entropy:            40.2027857
  heat_capacity:      42.2585035
  energy:             52.3414066

- temperature:       910.0000000
  free_energy:        15.7545299
  entropy:            40.6705540
  heat_capacity:      42.4062836
  energy:             52.7647340

- temperature:       920.0000000
  free_energy:        15.3455002
  entropy:            41.1348028
  heat_capacity:      42.5499986
  energy:             53.1895187

- temperature:       930.0000000
  free_energy:        14.9318454
  entropy:            41.5955650
  heat_capacity:      42.6897884
  energy:             53.6157209

- temperature:       940.0000000
  free_energy:        14.5136004
  entropy:            42.0528739
  heat_capacity:      42.8257877
  energy:             54.0433019

- temperature:       950.0000000
  free_energy:        14.0907994
  entropy:            42.5067633
  heat_capacity:      42.9581256
  energy:             54.4722244

- temperature:       960.0000000
  free_energy:        13.6634764
  entropy:            42.9572669
  heat_capacity:      43.0869261
  energy:             54.9024526

- temperature:       970.0000000
  free_energy:        13.2316652
  entropy:            43.4044190
  heat_capacity:      43.2123083
  energy:             55.3339516

- temperature:       980.0000000
  free_energy:        12.7953991
  entropy:            43.8482538
  heat_capacity:      43.3343868
  energy:             55.7666877

- temperature:       990.0000000
  free_energy:        12.3547111
  entropy:            44.2888057
  heat_capacity:      43.4532714
  energy:             56.2006287

- temperature:      1000.0000000
  free_energy:        11.9096338
  entropy:            44.7261091
  heat_capacity:      43.5690678
  energy:             56.6357429
