    4    4  200    1
  0.7533559E+01  0.2467155E-09  0.2467155E-09  0.5716881E-09  0.5000000E-15
  1.000000000000000E-004
  CAR 
 graphite                                
     16    455     12
 
  0.0000000E+00  0.0000000E+00  0.0000000E+00  0.3858025E-03
    1      -13.719501
    2      -12.791499
    3       -3.155522
    4        0.954322
    5        3.200418
    6        3.205002
    7        3.286166
    8        3.290692
    9       12.469413
   10       14.477376
   11       14.480426
   12       14.664800
 
  0.5555556E-01  0.6938894E-17  0.0000000E+00  0.1543210E-02
    1      -13.644843
    2      -12.720241
    3       -3.065130
    4        1.034009
    5        2.890680
    6        3.004740
    7        3.034827
    8        3.141129
    9       12.546541
   10       14.499898
   11       14.722301
   12       14.794497
 
  0.1111111E+00  0.1387779E-16  0.0000000E+00  0.1543210E-02
    1      -13.421145
    2      -12.506820
    3       -2.794744
    4        1.271544
    5        2.038802
    6        2.215542
    7        2.601304
    8        2.743767
    9       12.779736
   10       14.477712
   11       14.827490
   12       15.683215
 
  0.1666667E+00  0.4163336E-16  0.0000000E+00  0.1543210E-02
    1      -13.049649
    2      -12.152158
    3       -2.346477
    4        0.824163
    5        1.074968
    6        1.661401
    7        2.027068
    8        2.199782
    9       13.165844
   10       14.319837
   11       14.871668
   12       15.004882
 
  0.2222222E+00  0.1387779E-16  0.0000000E+00  0.1543210E-02
    1      -12.532163
    2      -11.658223
    3       -1.724829
    4       -0.591558
    5       -0.263976
    6        1.421999
    7        1.616605
    8        2.192923
    9       13.502971
   10       13.655207
   11       14.092980
   12       14.833332
 
  0.2777778E+00  0.5551115E-16  0.0000000E+00  0.1543210E-02
    1      -11.871860
    2      -11.028024
    3       -2.091090
    4       -1.689000
    5       -0.937578
    6        0.861526
    7        1.070881
    8        2.843921
    9       11.852908
   10       13.534610
   11       13.680559
   12       14.306319
 
  0.3333333E+00  0.8326673E-16  0.0000000E+00  0.1543210E-02
    1      -11.073783
    2      -10.266847
    3       -3.596089
    4       -3.125027
    5        0.000621
    6        0.391854
    7        0.611007
    8        3.564245
    9       10.214489
   10       12.184923
   11       13.423776
   12       14.373254
 
  0.3888889E+00  0.1110223E-15  0.0000000E+00  0.1543210E-02
    1      -10.146679
    2       -9.386226
    3       -5.049414
    4       -4.518645
    5        0.040912
    6        0.266229
    7        1.058501
    8        4.215695
    9        8.804904
   10       10.861032
   11       13.211433
   12       14.279349
 
  0.4444444E+00  0.2775558E-16  0.0000000E+00  0.1543210E-02
    1       -9.115972
    2       -8.428311
    3       -6.378403
    4       -5.820520
    5       -0.175170
    6        0.053653
    7        2.146155
    8        4.432020
    9        8.050677
   10        9.668177
   11       13.076384
   12       14.203550
 
  0.5000000E+00  0.0000000E+00  0.0000000E+00  0.7716049E-03
    1       -8.264631
    2       -7.921397
    3       -7.007630
    4       -6.766940
    5       -0.248148
    6       -0.018052
    7        2.809298
    8        4.186531
    9        8.083781
   10        8.998309
   11       13.030182
   12       14.176119
 
  0.5555556E-01  0.5555556E-01  0.0000000E+00  0.7716049E-03
    1      -13.495653
    2      -12.577876
    3       -2.884722
    4        1.192619
    5        2.354554
    6        2.461275
    7        2.737274
    8        2.826381
    9       12.702603
   10       14.592626
   11       14.846006
   12       15.320543
 
  0.1111111E+00  0.5555556E-01  0.0000000E+00  0.1543210E-02
    1      -13.198046
    2      -12.293821
    3       -2.525361
    4        1.377014
    5        1.506449
    6        1.552197
    7        2.171142
    8        2.304268
    9       13.017741
   10       14.638203
   11       15.036091
   12       15.496902
 
  0.1666667E+00  0.5555556E-01  0.0000000E+00  0.1543210E-02
    1      -12.753529
    2      -11.869523
    3       -1.990192
    4        0.098006
    5        0.365415
    6        1.524720
    7        1.705420
    8        1.968043
    9       13.483291
   10       14.173170
   11       14.487516
   12       15.113759
 
  0.2222222E+00  0.5555556E-01  0.0000000E+00  0.1543210E-02
    1      -12.164609
    2      -11.307413
    3       -1.337076
    4       -1.285151
    5       -0.984451
    6        0.907805
    7        1.118624
    8        2.562002
    9       12.620741
   10       13.991072
   11       14.060834
   12       14.314934
 
  0.2777778E+00  0.5555556E-01  0.0000000E+00  0.1543210E-02
    1      -11.435276
    2      -10.611561
    3       -2.826202
    4       -2.397006
    5       -0.420781
    6        0.373677
    7        0.602826
    8        3.256377
    9       10.985572
   10       12.748476
   11       13.873579
   12       14.652374
 
  0.3333333E+00  0.5555556E-01  0.0000000E+00  0.1543210E-02
    1      -10.572159
    2       -9.789713
    3       -4.299235
    4       -3.802266
    5       -0.046944
    6        0.193449
    7        0.582184
    8        3.971385
    9        9.442869
   10       11.427302
   11       13.637686
   12       14.649437
 
  0.3888889E+00  0.5555556E-01  0.0000000E+00  0.1543210E-02
    1       -9.589324
    2       -8.860870
    3       -5.696413
    4       -5.147986
    5       -0.335720
    6       -0.088689
    7        1.673909
    8        4.471679
    9        8.297974
   10       10.168402
   11       13.462421
   12       14.564860
 
  0.4444444E+00  0.5555556E-01  0.0000000E+00  0.1543210E-02
    1       -8.547937
    2       -7.968491
    3       -6.845584
    4       -6.358440
    5       -0.482567
    6       -0.232483
    7        2.667590
    8        4.358109
    9        8.029572
   10        9.136729
   11       13.370792
   12       14.512961
 
  0.5000000E+00  0.5555556E-01  0.0000000E+00  0.1543210E-02
    1       -8.548125
    2       -7.968611
    3       -6.845450
    4       -6.358231
    5       -0.482604
    6       -0.232521
    7        2.667518
    8        4.358158
    9        8.029545
   10        9.136723
   11       13.370873
   12       14.513054
 
 -0.4444444E+00  0.5555556E-01  0.0000000E+00  0.1543210E-02
    1       -9.589522
    2       -8.861063
    3       -5.696171
    4       -5.147746
    5       -0.335821
    6       -0.088796
    7        1.673801
    8        4.471705
    9        8.297941
   10       10.168348
   11       13.462668
   12       14.565146
 
 -0.3888889E+00  0.5555556E-01  0.0000000E+00  0.1543210E-02
    1      -10.572336
    2       -9.789888
    3       -4.298995
    4       -3.802046
    5       -0.047079
    6        0.193296
    7        0.582076
    8        3.971370
    9        9.442813
   10       11.427180
   11       13.638111
   12       14.649930
 
 -0.3333333E+00  0.5555556E-01  0.0000000E+00  0.1543210E-02
    1      -11.435428
    2      -10.611712
    3       -2.826116
    4       -2.396865
    5       -0.420881
    6        0.373564
    7        0.602639
    8        3.256343
    9       10.985446
   10       12.748282
   11       13.874200
   12       14.652902
 
 -0.2777778E+00  0.5555556E-01  0.0000000E+00  0.1543210E-02
    1      -12.164733
    2      -11.307537
    3       -1.337027
    4       -1.285237
    5       -0.984520
    6        0.907887
    7        1.118584
    8        2.561963
    9       12.620503
   10       13.991450
   11       14.060582
   12       14.315460
 
 -0.2222222E+00  0.5555556E-01  0.0000000E+00  0.1543210E-02
    1      -12.753621
    2      -11.869604
    3       -1.990261
    4        0.097805
    5        0.364845
    6        1.525321
    7        1.705735
    8        1.968007
    9       13.483279
   10       14.172804
   11       14.488751
   12       15.115272
 
 -0.1666667E+00  0.5555556E-01  0.0000000E+00  0.1543210E-02
    1      -13.198115
    2      -12.293889
    3       -2.525411
    4        1.375923
    5        1.506421
    6        1.550564
    7        2.172833
    8        2.305373
    9       13.017704
   10       14.640155
   11       15.038521
   12       15.496249
 
 -0.1111111E+00  0.5555556E-01  0.0000000E+00  0.1543210E-02
    1      -13.495694
    2      -12.577917
    3       -2.884752
    4        1.192601
    5        2.351676
    6        2.458523
    7        2.740123
    8        2.829283
    9       12.702571
   10       14.595633
   11       14.849086
   12       15.313292
 
 -0.5555556E-01  0.5555556E-01  0.0000000E+00  0.7716049E-03
    1      -13.644857
    2      -12.720254
    3       -3.065140
    4        1.034003
    5        2.887341
    6        3.001481
    7        3.038155
    8        3.144466
    9       12.546527
   10       14.502441
   11       14.724761
   12       14.795117
 
  0.1111111E+00  0.1111111E+00  0.0000000E+00  0.7716049E-03
    1      -12.827491
    2      -11.940034
    3       -2.078875
    4        0.478711
    5        0.635041
    6        1.480355
    7        1.594726
    8        1.892469
    9       13.421862
   10       14.440973
   11       15.049388
   12       15.437630
 
  0.1666667E+00  0.1111111E+00  0.0000000E+00  0.1543210E-02
    1      -12.311555
    2      -11.447624
    3       -1.459832
    4       -0.699280
    5       -0.459466
    6        0.707811
    7        0.878831
    8        2.418927
    9       13.122771
   10       13.980675
   11       14.285742
   12       15.145421
 
  0.2222222E+00  0.1111111E+00  0.0000000E+00  0.1543210E-02
    1      -11.653528
    2      -10.819748
    3       -2.064778
    4       -1.714684
    5       -0.675865
    6        0.031342
    7        0.264275
    8        3.065305
    9       11.628143
   10       13.045854
   11       14.626615
   12       15.000867
 
  0.2777778E+00  0.1111111E+00  0.0000000E+00  0.1543210E-02
    1      -10.858719
    2      -10.062225
    3       -3.493719
    4       -3.054127
    5       -0.497940
    6       -0.229751
    7        0.258613
    8        3.785195
    9       10.091944
   10       11.786748
   11       14.642414
   12       15.423670
 
  0.3333333E+00  0.1111111E+00  0.0000000E+00  0.1543210E-02
    1       -9.936906
    2       -9.186737
    3       -4.902232
    4       -4.392745
    5       -0.877739
    6       -0.590995
    7        1.313447
    8        4.449377
    9        8.729836
   10       10.548898
   11       14.442910
   12       15.512118
 
  0.3888889E+00  0.1111111E+00  0.0000000E+00  0.1543210E-02
    1       -8.913644
    2       -8.236809
    3       -6.203902
    4       -5.662281
    5       -1.106982
    6       -0.810712
    7        2.401718
    8        4.686808
    9        7.995187
   10        9.403063
   11       14.307852
   12       15.454982
 
  0.4444444E+00  0.1111111E+00  0.0000000E+00  0.1543210E-02
    1       -8.072623
    2       -7.733119
    3       -6.822647
    4       -6.592403
    5       -1.183604
    6       -0.884629
    7        3.072163
    8        4.434492
    9        8.113248
   10        8.677477
   11       14.261143
   12       15.430446
 
  0.5000000E+00  0.1111111E+00  0.0000000E+00  0.1543210E-02
    1       -8.914048
    2       -8.237180
    3       -6.203469
    4       -5.661826
    5       -1.107086
    6       -0.810829
    7        2.401526
    8        4.686910
    9        7.995089
   10        9.403011
   11       14.308148
   12       15.455347
 
 -0.4444444E+00  0.1111111E+00  0.0000000E+00  0.1543210E-02
    1       -9.937282
    2       -9.187106
    3       -4.901764
    4       -4.392307
    5       -0.877902
    6       -0.591196
    7        1.313233
    8        4.449389
    9        8.729704
   10       10.548729
   11       14.443530
   12       15.512892
 
 -0.3888889E+00  0.1111111E+00  0.0000000E+00  0.1543210E-02
    1      -10.859047
    2      -10.062550
    3       -3.493335
    4       -3.053834
    5       -0.498037
    6       -0.229948
    7        0.258408
    8        3.785148
    9       10.091689
   10       11.786458
   11       14.643420
   12       15.424290
 
 -0.3333333E+00  0.1111111E+00  0.0000000E+00  0.1543210E-02
    1      -11.653803
    2      -10.820021
    3       -2.064663
    4       -1.714793
    5       -0.676047
    6        0.031594
    7        0.264286
    8        3.065236
    9       11.627669
   10       13.045471
   11       14.626915
   12       15.002018
 
 -0.2777778E+00  0.1111111E+00  0.0000000E+00  0.1543210E-02
    1      -12.311776
    2      -11.447843
    3       -1.459985
    4       -0.699861
    5       -0.460437
    6        0.708915
    7        0.879505
    8        2.418855
    9       13.122024
   10       13.980571
   11       14.285324
   12       15.148011
 
 -0.2222222E+00  0.1111111E+00  0.0000000E+00  0.1543210E-02
    1      -12.827657
    2      -11.940198
    3       -2.078994
    4        0.476681
    5        0.633045
    6        1.482514
    7        1.596861
    8        1.892407
    9       13.421758
   10       14.440022
   11       15.053783
   12       15.441677
 
 -0.1666667E+00  0.1111111E+00  0.0000000E+00  0.1543210E-02
    1      -13.198156
    2      -12.293931
    3       -2.525441
    4        1.373890
    5        1.506404
    6        1.549200
    7        2.174338
    8        2.307534
    9       13.017659
   10       14.642390
   11       15.040151
   12       15.495747
 
 -0.1111111E+00  0.1111111E+00  0.0000000E+00  0.7716049E-03
    1      -13.421200
    2      -12.506875
    3       -2.794785
    4        1.271521
    5        2.035649
    6        2.212439
    7        2.604571
    8        2.747033
    9       12.779683
   10       14.480794
   11       14.830387
   12       15.678324
 
  0.1666667E+00  0.1666667E+00  0.0000000E+00  0.7716049E-03
    1      -11.726458
    2      -10.889382
    3       -1.609604
    4       -1.405415
    5       -0.761293
    6       -0.195371
    7       -0.046479
    8        3.000510
    9       11.903887
   10       13.112486
   11       14.634550
   12       15.947106
 
  0.2222222E+00  0.1666667E+00  0.0000000E+00  0.1543210E-02
    1      -11.002832
    2      -10.199382
    3       -2.768366
    4       -2.464189
    5       -1.000680
    6       -0.777323
    7        0.095155
    8        3.685613
    9       10.552789
   10       11.909298
   11       15.408932
   12       16.066583
 
  0.2777778E+00  0.1666667E+00  0.0000000E+00  0.1543210E-02
    1      -10.148182
    2       -9.386479
    3       -4.077716
    4       -3.652302
    5       -1.578104
    6       -1.279060
    7        1.089903
    8        4.408068
    9        9.181793
   10       10.735083
   11       15.800119
   12       16.357240
 
  0.3333333E+00  0.1666667E+00  0.0000000E+00  0.1543210E-02
    1       -9.177887
    2       -8.471083
    3       -5.388118
    4       -4.884569
    5       -1.935826
    6       -1.600451
    7        2.176898
    8        4.955691
    9        8.086121
   10        9.612309
   11       15.645385
   12       16.815597
 
  0.3888889E+00  0.1666667E+00  0.0000000E+00  0.1543210E-02
    1       -8.155455
    2       -7.594853
    3       -6.491051
    4       -6.035071
    5       -2.108224
    6       -1.758985
    7        3.180932
    8        4.858357
    9        7.891687
   10        8.598571
   11       15.551377
   12       16.804377
 
  0.4444444E+00  0.1666667E+00  0.0000000E+00  0.1543210E-02
    1       -8.156008
    2       -7.595207
    3       -6.490673
    4       -6.034482
    5       -2.108265
    6       -1.759044
    7        3.180735
    8        4.858512
    9        7.891507
   10        8.598591
   11       15.551568
   12       16.804653
 
  0.5000000E+00  0.1666667E+00  0.0000000E+00  0.1543210E-02
    1       -9.178476
    2       -8.471652
    3       -5.387470
    4       -4.883959
    5       -1.935896
    6       -1.600592
    7        2.176603
    8        4.955800
    9        8.085833
   10        9.612170
   11       15.645996
   12       16.816484
 
 -0.4444444E+00  0.1666667E+00  0.0000000E+00  0.1543210E-02
    1      -10.148709
    2       -9.387000
    3       -4.077200
    4       -3.651943
    5       -1.578001
    6       -1.279146
    7        1.089603
    8        4.408054
    9        9.181335
   10       10.734806
   11       15.801275
   12       16.356993
 
 -0.3888889E+00  0.1666667E+00  0.0000000E+00  0.1543210E-02
    1      -11.003284
    2      -10.199830
    3       -2.768358
    4       -2.464493
    5       -0.999974
    6       -0.776986
    7        0.094876
    8        3.685538
    9       10.552006
   10       11.908934
   11       15.408709
   12       16.068666
 
 -0.3333333E+00  0.1666667E+00  0.0000000E+00  0.1543210E-02
    1      -11.726829
    2      -10.889751
    3       -1.610817
    4       -1.406578
    5       -0.761537
    6       -0.193843
    7       -0.044965
    8        3.000413
    9       11.902716
   10       13.112079
   11       14.634274
   12       15.952395
 
 -0.2777778E+00  0.1666667E+00  0.0000000E+00  0.1543210E-02
    1      -12.311845
    2      -11.447912
    3       -1.460030
    4       -0.701537
    5       -0.461534
    6        0.710238
    7        0.881400
    8        2.418833
    9       13.121327
   10       13.980497
   11       14.285290
   12       15.150839
 
 -0.2222222E+00  0.1666667E+00  0.0000000E+00  0.1543210E-02
    1      -12.753736
    2      -11.869729
    3       -1.990338
    4        0.095280
    5        0.362706
    6        1.527811
    7        1.708482
    8        1.967967
    9       13.483184
   10       14.171694
   11       14.491964
   12       15.117852
 
 -0.1666667E+00  0.1666667E+00  0.0000000E+00  0.7716049E-03
    1      -13.049773
    2      -12.152281
    3       -2.346566
    4        0.821285
    5        1.072137
    6        1.661352
    7        2.030241
    8        2.202957
    9       13.165748
   10       14.323401
   11       14.874934
   12       15.003695
 
  0.2222222E+00  0.2222222E+00  0.0000000E+00  0.7716049E-03
    1      -10.219036
    2       -9.453642
    3       -3.551466
    4       -3.303596
    5       -1.938839
    6       -1.756728
    7        1.014349
    8        4.389315
    9        9.391581
   10       10.767120
   11       16.267746
   12       17.175727
 
  0.2777778E+00  0.2222222E+00  0.0000000E+00  0.1543210E-02
    1       -9.313818
    2       -8.595754
    3       -4.601662
    4       -4.240386
    5       -2.650583
    6       -2.376467
    7        2.054576
    8        5.088595
    9        8.219446
   10        9.696765
   11       17.063308
   12       17.316970
 
  0.3333333E+00  0.2222222E+00  0.0000000E+00  0.1543210E-02
    1       -8.314935
    2       -7.670624
    3       -5.751228
    4       -5.290979
    5       -3.039982
    6       -2.686247
    7        3.141098
    8        5.429931
    9        7.454352
   10        8.727288
   11       17.003664
   12       18.122537
 
  0.3888889E+00  0.2222222E+00  0.0000000E+00  0.1543210E-02
    1       -7.499989
    2       -7.173225
    3       -6.317259
    4       -6.154841
    5       -3.157730
    6       -2.782565
    7        3.838662
    8        5.145828
    9        7.575544
   10        8.089631
   11       16.952662
   12       18.430138
 
  0.4444444E+00  0.2222222E+00  0.0000000E+00  0.1543210E-02
    1       -8.315725
    2       -7.671348
    3       -5.750513
    4       -5.290293
    5       -3.039864
    6       -2.686254
    7        3.140783
    8        5.430202
    9        7.453856
   10        8.727231
   11       17.004104
   12       18.129141
 
  0.5000000E+00  0.2222222E+00  0.0000000E+00  0.1543210E-02
    1       -9.314561
    2       -8.596483
    3       -4.601189
    4       -4.240147
    5       -2.650038
    6       -2.376241
    7        2.054214
    8        5.088697
    9        8.218697
   10        9.696574
   11       17.063930
   12       17.316508
 
 -0.4444444E+00  0.2222222E+00  0.0000000E+00  0.1543210E-02
    1      -10.219687
    2       -9.454288
    3       -3.551990
    4       -3.304051
    5       -1.937661
    6       -1.755566
    7        1.013990
    8        4.389285
    9        9.390448
   10       10.766850
   11       16.267135
   12       17.180916
 
 -0.3888889E+00  0.2222222E+00  0.0000000E+00  0.1543210E-02
    1      -11.003380
    2      -10.199926
    3       -2.769847
    4       -2.465449
    5       -0.998762
    6       -0.775233
    7        0.094827
    8        3.685522
    9       10.551255
   10       11.908925
   11       15.408628
   12       16.072362
 
 -0.3333333E+00  0.2222222E+00  0.0000000E+00  0.1543210E-02
    1      -11.653968
    2      -10.820185
    3       -2.066751
    4       -1.716591
    5       -0.676145
    6        0.033887
    7        0.266847
    8        3.065196
    9       11.626351
   10       13.045330
   11       14.627244
   12       15.005337
 
 -0.2777778E+00  0.2222222E+00  0.0000000E+00  0.1543210E-02
    1      -12.164939
    2      -11.307742
    3       -1.339406
    4       -1.285371
    5       -0.986766
    6        0.910756
    7        1.121552
    8        2.561901
    9       12.618880
   10       13.992395
   11       14.060237
   12       14.318236
 
 -0.2222222E+00  0.2222222E+00  0.0000000E+00  0.7716049E-03
    1      -12.532384
    2      -11.658442
    3       -1.724980
    4       -0.594130
    5       -0.266505
    6        1.425107
    7        1.619714
    8        2.192847
    9       13.501287
   10       13.655474
   11       14.096576
   12       14.836453
 
  0.2777778E+00  0.2777778E+00  0.0000000E+00  0.7716049E-03
    1       -8.374273
    2       -7.715046
    3       -5.206858
    4       -4.920062
    5       -3.475563
    6       -3.281388
    7        3.114303
    8        5.738900
    9        7.206566
   10        8.783438
   11       18.007880
   12       18.352269
 
  0.3333333E+00  0.2777778E+00  0.0000000E+00  0.1543210E-02
    1       -7.393423
    2       -6.864345
    3       -6.016524
    4       -5.686489
    5       -3.952161
    6       -3.681663
    7        4.127846
    8        5.794636
    9        6.706929
   10        8.114614
   11       18.190706
   12       18.436475
 
  0.3888889E+00  0.2777778E+00  0.0000000E+00  0.1543210E-02
    1       -7.394304
    2       -6.864939
    3       -6.016101
    4       -5.685884
    5       -3.951831
    6       -3.681499
    7        4.127655
    8        5.794933
    9        6.706499
   10        8.114533
   11       18.190864
   12       18.427067
 
  0.4444444E+00  0.2777778E+00  0.0000000E+00  0.1543210E-02
    1       -8.375226
    2       -7.715962
    3       -5.206833
    4       -4.919957
    5       -3.474614
    6       -3.280444
    7        3.113972
    8        5.739250
    9        7.205530
   10        8.783252
   11       18.009867
   12       18.354740
 
  0.5000000E+00  0.2777778E+00  0.0000000E+00  0.1543210E-02
    1       -9.314684
    2       -8.596609
    3       -4.602486
    4       -4.240972
    5       -2.648973
    6       -2.374667
    7        2.054196
    8        5.088685
    9        8.218039
   10        9.696508
   11       17.065774
   12       17.319052
 
 -0.4444444E+00  0.2777778E+00  0.0000000E+00  0.1543210E-02
    1      -10.149092
    2       -9.387221
    3       -4.079012
    4       -3.653528
    5       -1.575927
    6       -1.276835
    7        1.089522
    8        4.408035
    9        9.180029
   10       10.734652
   11       15.804960
   12       16.357698
 
 -0.3888889E+00  0.2777778E+00  0.0000000E+00  0.1543210E-02
    1      -10.859336
    2      -10.062838
    3       -3.495369
    4       -3.055740
    5       -0.495368
    6       -0.227177
    7        0.258265
    8        3.785105
    9       10.089960
   10       11.786088
   11       14.647137
   12       15.426110
 
 -0.3333333E+00  0.2777778E+00  0.0000000E+00  0.1543210E-02
    1      -11.435757
    2      -10.612039
    3       -2.828179
    4       -2.398960
    5       -0.421071
    6        0.376567
    7        0.605704
    8        3.256272
    9       10.983498
   10       12.747690
   11       13.877822
   12       14.655386
 
 -0.2777778E+00  0.2777778E+00  0.0000000E+00  0.7716049E-03
    1      -11.872204
    2      -11.028366
    3       -2.093346
    4       -1.691220
    5       -0.937795
    6        0.864599
    7        1.073952
    8        2.843829
    9       11.850911
   10       13.533926
   11       13.684149
   12       14.308284
 
  0.3333333E+00  0.3333333E+00  0.0000000E+00  0.7716049E-03
    1       -6.670621
    2       -6.353890
    3       -6.353506
    4       -6.015166
    5       -4.245632
    6       -4.245347
    7        4.735884
    8        6.050013
    9        6.051255
   10        7.911599
   11       18.383488
   12       18.599806
 
  0.3888889E+00  0.3333333E+00  0.0000000E+00  0.1543210E-02
    1       -7.394483
    2       -6.865260
    3       -6.016874
    4       -5.686540
    5       -3.951021
    6       -3.680216
    7        4.127837
    8        5.794236
    9        6.706706
   10        8.114231
   11       18.194522
   12       18.426004
 
  0.4444444E+00  0.3333333E+00  0.0000000E+00  0.1543210E-02
    1       -8.316004
    2       -7.671658
    3       -5.751970
    4       -5.291577
    5       -3.038087
    6       -2.684268
    7        3.140870
    8        5.429897
    9        7.453056
   10        8.726889
   11       17.008535
   12       18.123912
 
  0.5000000E+00  0.3333333E+00  0.0000000E+00  0.1543210E-02
    1       -9.178847
    2       -8.472033
    3       -5.389168
    4       -4.885558
    5       -1.933526
    6       -1.598133
    7        2.176566
    8        4.955689
    9        8.084276
   10        9.611737
   11       15.650368
   12       16.820330
 
 -0.4444444E+00  0.3333333E+00  0.0000000E+00  0.1543210E-02
    1       -9.937721
    2       -9.187548
    3       -4.903589
    4       -4.394067
    5       -0.875125
    6       -0.588380
    7        1.313090
    8        4.449333
    9        8.727756
   10       10.548061
   11       14.447674
   12       15.516834
 
 -0.3888889E+00  0.3333333E+00  0.0000000E+00  0.1543210E-02
    1      -10.572816
    2       -9.790368
    3       -4.300896
    4       -3.803901
    5       -0.044057
    6        0.196328
    7        0.581854
    8        3.971307
    9        9.440686
   10       11.426313
   11       13.642093
   12       14.653757
 
 -0.3333333E+00  0.3333333E+00  0.0000000E+00  0.7716049E-03
    1      -11.074277
    2      -10.267340
    3       -3.598037
    4       -3.126942
    5        0.000350
    6        0.394912
    7        0.614061
    8        3.564158
    9       10.212323
   10       12.184002
   11       13.427799
   12       14.377067
 
  0.3888889E+00  0.3888889E+00  0.0000000E+00  0.7716049E-03
    1       -7.500744
    2       -7.174045
    3       -6.318229
    4       -6.155654
    5       -3.155730
    6       -2.780507
    7        3.838999
    8        5.144910
    9        7.575187
   10        8.088803
   11       16.957351
   12       18.434438
 
  0.4444444E+00  0.3888889E+00  0.0000000E+00  0.1543210E-02
    1       -8.156575
    2       -7.595906
    3       -6.492027
    4       -6.035885
    5       -2.105845
    6       -1.756588
    7        3.180968
    8        4.857776
    9        7.890290
   10        8.597782
   11       15.556181
   12       16.809248
 
  0.5000000E+00  0.3888889E+00  0.0000000E+00  0.1543210E-02
    1       -8.914665
    2       -8.237824
    3       -6.205024
    4       -5.663352
    5       -1.104307
    6       -0.808036
    7        2.401528
    8        4.686536
    9        7.993303
   10        9.401996
   11       14.312513
   12       15.459669
 
 -0.4444444E+00  0.3888889E+00  0.0000000E+00  0.1543210E-02
    1       -9.590178
    2       -8.861725
    3       -5.697794
    4       -5.149336
    5       -0.332808
    6       -0.085783
    7        1.673635
    8        4.471551
    9        8.295824
   10       10.167185
   11       13.466836
   12       14.569264
 
 -0.3888889E+00  0.3888889E+00  0.0000000E+00  0.7716049E-03
    1      -10.147673
    2       -9.386896
    3       -5.051094
    4       -4.520348
    5        0.043965
    6        0.269272
    7        1.058229
    8        4.215613
    9        8.802673
   10       10.859868
   11       13.215598
   12       14.283460
 
  0.4444444E+00  0.4444444E+00  0.0000000E+00  0.7716049E-03
    1       -8.073570
    2       -7.734167
    3       -6.823816
    4       -6.593486
    5       -1.180868
    6       -0.881888
    7        3.072472
    8        4.433533
    9        8.111960
   10        8.676045
   11       14.265671
   12       15.434976
 
  0.5000000E+00  0.4444444E+00  0.0000000E+00  0.1543210E-02
    1       -8.548979
    2       -7.969542
    3       -6.846761
    4       -6.359548
    5       -0.479618
    6       -0.229539
    7        2.667663
    8        4.357412
    9        8.027937
   10        9.135154
   11       13.375164
   12       14.517322
 
 -0.4444444E+00  0.4444444E+00  0.0000000E+00  0.7716049E-03
    1       -9.116838
    2       -8.429190
    3       -6.379783
    4       -5.821870
    5       -0.172115
    6        0.056700
    7        2.146044
    8        4.431653
    9        8.048703
   10        9.666713
   11       13.080619
   12       14.207762
 
  0.5000000E+00  0.5000000E+00  0.0000000E+00  0.3858025E-03
    1       -8.265636
    2       -7.922502
    3       -7.008833
    4       -6.768055
    5       -0.245092
    6       -0.015005
    7        2.809586
    8        4.185549
    9        8.082360
   10        8.996452
   11       13.034438
   12       14.180356
 