   32   32    1    1
  0.9341735E+01  0.4932875E-09  0.4932875E-09  0.1419195E-08  0.5000000E-15
  1.000000000000000E-004
  CAR 
 graphite                                
    128     76     84
 
  0.0000000E+00  0.0000000E+00  0.0000000E+00  0.6944444E-02
    1      -15.387166
    2      -15.293715
    3      -15.293057
    4      -15.195301
    5      -10.097234
    6      -10.084113
    7      -10.081359
    8      -10.061925
    9      -10.059583
   10      -10.047825
   11      -10.045447
   12      -10.045445
   13      -10.042628
   14      -10.028125
   15      -10.013365
   16      -10.010743
   17       -9.033625
   18       -9.031545
   19       -9.026670
   20       -9.012310
   21       -9.008475
   22       -9.008180
   23       -9.008175
   24       -9.005044
   25       -9.002231
   26       -8.979514
   27       -8.977564
   28       -8.973248
   29       -4.088646
   30       -3.419315
   31       -3.417928
   32       -2.624049
   33       -2.205335
   34       -2.203245
   35       -2.193106
   36       -2.189738
   37       -2.188509
   38       -2.188506
   39       -2.185714
   40       -2.177833
   41       -2.174864
   42       -2.173218
   43       -2.170386
   44       -2.160265
   45        1.181078
   46        1.189322
   47        1.190910
   48        1.193550
   49        1.194557
   50        1.196161
   51        1.198011
   52        1.206258
   53        1.555346
   54        1.564209
   55        1.566361
   56        1.832599
   57        1.835805
   58        1.847581
   59        1.848778
   60        1.848784
   61        1.851772
   62        2.049087
   63        2.069572
   64        2.071419
   65        5.702631
   66        5.704894
   67        5.716594
   68        5.856182
   69        5.861770
   70        5.862356
   71        5.862776
   72        5.865089
   73        5.869965
   74        6.244821
   75        6.247026
   76        6.248958
   77        8.089822
   78       10.314610
   79       10.317339
   80       11.456325
   81       11.460087
   82       11.489927
   83       11.583224
   84       11.591482
 
  0.1666667E+00  0.0000000E+00  0.0000000E+00  0.1388889E-01
    1      -15.222024
    2      -15.129538
    3      -15.128873
    4      -15.032201
    5      -11.379400
    6      -11.309994
    7      -11.309357
    8      -11.237706
    9      -10.512469
   10      -10.504480
   11      -10.452357
   12      -10.450902
   13      -10.443280
   14      -10.443077
   15      -10.389339
   16      -10.380789
   17       -8.393188
   18       -8.390969
   19       -8.345114
   20       -8.344609
   21       -8.342092
   22       -8.341653
   23       -8.293734
   24       -8.291160
   25       -7.552209
   26       -7.503823
   27       -7.501552
   28       -7.451832
   29       -3.888481
   30       -3.223452
   31       -3.222081
   32       -2.694365
   33       -2.682600
   34       -2.674570
   35       -2.673873
   36       -2.663524
   37       -2.660771
   38       -2.653852
   39       -2.641890
   40       -2.434208
   41       -2.040941
   42       -2.026100
   43       -2.024289
   44       -2.009204
   45        0.517219
   46        0.531435
   47        0.539422
   48        0.543365
   49        0.551206
   50        0.847793
   51        0.854775
   52        0.857807
   53        0.867079
   54        1.001020
   55        1.002321
   56        1.351841
   57        1.360539
   58        1.522022
   59        1.726193
   60        1.729198
   61        1.739314
   62        1.739857
   63        2.084795
   64        2.101037
   65        5.925212
   66        5.933588
   67        6.141252
   68        6.143053
   69        6.144118
   70        6.148695
   71        6.523371
   72        6.525702
   73        6.656935
   74        6.959836
   75        6.963990
   76        7.392555
   77        8.294409
   78       10.501906
   79       10.504614
   80       11.546424
   81       11.668636
   82       11.669135
   83       11.787976
   84       12.192096
 
  0.3333333E+00  0.0000000E+00  0.0000000E+00  0.1388889E-01
    1      -14.728374
    2      -14.638811
    3      -14.638125
    4      -14.544652
    5      -12.785536
    6      -12.707303
    7      -12.706582
    8      -12.625463
    9      -10.931806
   10      -10.928047
   11      -10.865776
   12      -10.864420
   13      -10.861087
   14      -10.860862
   15      -10.796051
   16      -10.792153
   17       -7.221454
   18       -7.215713
   19       -7.177314
   20       -7.176330
   21       -7.170973
   22       -7.170684
   23       -7.130805
   24       -7.125109
   25       -5.441466
   26       -5.402393
   27       -5.399863
   28       -5.360006
   29       -3.848129
   30       -3.838038
   31       -3.821866
   32       -3.820596
   33       -3.812319
   34       -3.809535
   35       -3.793515
   36       -3.783322
   37       -3.292337
   38       -2.641128
   39       -2.639803
   40       -1.870870
   41       -1.567249
   42       -1.553089
   43       -1.551079
   44       -1.536669
   45       -1.116735
   46       -1.099532
   47       -1.095309
   48       -1.078233
   49       -1.002338
   50       -0.423158
   51       -0.422074
   52        0.050799
   53        0.061196
   54        0.064140
   55        0.075437
   56        0.245811
   57        1.070393
   58        1.075512
   59        1.539466
   60        1.542267
   61        1.547175
   62        1.547898
   63        2.050786
   64        2.059218
   65        6.471471
   66        6.474683
   67        6.715947
   68        6.717097
   69        6.717448
   70        6.721400
   71        7.018475
   72        7.020988
   73        8.818086
   74        8.909064
   75        9.099395
   76        9.102797
   77        9.465572
   78       11.054750
   79       11.057508
   80       11.305011
   81       11.828374
   82       11.890122
   83       11.890939
   84       12.095749
 
  0.5000000E+00  0.0000000E+00  0.0000000E+00  0.6944444E-02
    1      -13.913490
    2      -13.910831
    3      -13.829987
    4      -13.826659
    5      -13.826641
    6      -13.824628
    7      -13.739694
    8      -13.736976
    9      -11.079665
   10      -11.078033
   11      -11.012575
   12      -11.010365
   13      -11.010353
   14      -11.009250
   15      -10.941132
   16      -10.939448
   17       -6.321617
   18       -6.320067
   19       -6.298062
   20       -6.297856
   21       -6.297851
   22       -6.294258
   23       -6.275095
   24       -6.272560
   25       -4.743049
   26       -4.741283
   27       -4.728451
   28       -4.726052
   29       -4.724141
   30       -4.724140
   31       -4.707545
   32       -4.706552
   33       -3.228269
   34       -3.224778
   35       -3.200966
   36       -3.195373
   37       -3.195078
   38       -3.195075
   39       -3.167595
   40       -3.165169
   41       -2.317608
   42       -2.315437
   43       -1.693055
   44       -1.690523
   45       -1.690317
   46       -1.687909
   47       -0.958068
   48       -0.955611
   49       -0.834137
   50       -0.831227
   51       -0.821398
   52       -0.819355
   53       -0.819335
   54       -0.813896
   55       -0.806551
   56       -0.798305
   57        0.958718
   58        0.960701
   59        1.456514
   60        1.460208
   61        1.460349
   62        1.461084
   63        2.017086
   64        2.019297
   65        6.806736
   66        6.809115
   67        7.019321
   68        7.020313
   69        7.020318
   70        7.024181
   71        7.234649
   72        7.237109
   73        9.928520
   74        9.929300
   75       11.227842
   76       11.231240
   77       11.333546
   78       11.342664
   79       11.343066
   80       11.349543
   81       11.668712
   82       11.672216
   83       11.965468
   84       11.970486
 
  0.0000000E+00  0.1666667E+00  0.0000000E+00  0.1388889E-01
    1      -15.222020
    2      -15.129531
    3      -15.128873
    4      -15.032197
    5      -11.379412
    6      -11.310022
    7      -11.309358
    8      -11.237724
    9      -10.512551
   10      -10.504276
   11      -10.452555
   12      -10.450903
   13      -10.443131
   14      -10.442664
   15      -10.389371
   16      -10.380517
   17       -8.394026
   18       -8.391324
   19       -8.346856
   20       -8.345102
   21       -8.342088
   22       -8.341452
   23       -8.294368
   24       -8.291380
   25       -7.551347
   26       -7.502157
   27       -7.501545
   28       -7.451017
   29       -3.888491
   30       -3.223468
   31       -3.222088
   32       -2.693285
   33       -2.682409
   34       -2.673873
   35       -2.672353
   36       -2.663559
   37       -2.660771
   38       -2.652627
   39       -2.641924
   40       -2.434222
   41       -2.041897
   42       -2.026619
   43       -2.026101
   44       -2.010691
   45        0.517600
   46        0.533945
   47        0.543270
   48        0.543370
   49        0.552763
   50        0.846642
   51        0.854330
   52        0.854774
   53        0.862496
   54        1.000514
   55        1.001395
   56        1.351950
   57        1.361508
   58        1.521187
   59        1.726465
   60        1.729195
   61        1.739709
   62        1.741506
   63        2.084885
   64        2.102133
   65        5.923404
   66        5.933481
   67        6.137947
   68        6.142918
   69        6.144177
   70        6.148111
   71        6.521713
   72        6.525310
   73        6.658474
   74        6.962256
   75        6.964477
   76        7.394001
   77        8.294402
   78       10.501879
   79       10.504587
   80       11.545835
   81       11.667862
   82       11.668696
   83       11.787354
   84       12.194843
 
  0.1666667E+00  0.1666667E+00  0.0000000E+00  0.1388889E-01
    1      -14.892404
    2      -14.801873
    3      -14.801195
    4      -14.706660
    5      -11.999398
    6      -11.996611
    7      -11.927153
    8      -11.923753
    9      -11.923735
   10      -11.921536
   11      -11.849003
   12      -11.846147
   13       -9.672922
   14       -9.639265
   15       -9.637169
   16       -9.607200
   17       -8.624248
   18       -8.605530
   19       -8.602942
   20       -8.577380
   21       -6.445445
   22       -6.442091
   23       -6.403375
   24       -6.398823
   25       -6.398806
   26       -6.396899
   27       -6.355805
   28       -6.352595
   29       -4.023372
   30       -3.996454
   31       -3.993775
   32       -3.966214
   33       -3.489896
   34       -2.833952
   35       -2.832612
   36       -2.366729
   37       -2.364341
   38       -2.348558
   39       -2.346262
   40       -2.346259
   41       -2.343234
   42       -2.327994
   43       -2.324762
   44       -2.057161
   45       -0.507303
   46       -0.498240
   47       -0.493800
   48       -0.486521
   49       -0.112246
   50       -0.110304
   51        0.173828
   52        0.179510
   53        0.182334
   54        0.190944
   55        0.424885
   56        0.427275
   57        0.427401
   58        0.429732
   59        1.034666
   60        1.036976
   61        2.155025
   62        2.430450
   63        2.433482
   64        2.639064
   65        5.604878
   66        5.648892
   67        5.652592
   68        5.864915
   69        7.619227
   70        7.621611
   71        7.911547
   72        7.915929
   73        7.916110
   74        7.917548
   75        8.283027
   76        8.285665
   77        8.705617
   78       10.877759
   79       10.880457
   80       12.235665
   81       12.238325
   82       12.426602
   83       12.432027
   84       12.476048
 
  0.3333333E+00  0.1666667E+00  0.0000000E+00  0.1388889E-01
    1      -14.237233
    2      -14.150562
    3      -14.149847
    4      -14.059552
    5      -13.266999
    6      -13.185967
    7      -13.185278
    8      -13.101102
    9      -12.313946
   10      -12.238425
   11      -12.237871
   12      -12.159678
   13       -9.646757
   14       -9.591872
   15       -9.590729
   16       -9.534843
   17       -7.756863
   18       -7.720731
   19       -7.718789
   20       -7.681670
   21       -5.457352
   22       -5.430403
   23       -5.427602
   24       -5.398948
   25       -5.290003
   26       -5.258847
   27       -5.258089
   28       -5.226666
   29       -4.308584
   30       -4.276699
   31       -4.274213
   32       -4.241855
   33       -3.267101
   34       -3.247011
   35       -3.244832
   36       -3.223815
   37       -2.702738
   38       -2.228028
   39       -2.210064
   40       -2.205722
   41       -2.186867
   42       -2.065604
   43       -2.064537
   44       -1.728346
   45       -1.711848
   46       -1.710130
   47       -1.693377
   48       -1.554760
   49       -1.316610
   50       -0.952778
   51       -0.951632
   52       -0.830554
   53       -0.819101
   54       -0.815757
   55       -0.803261
   56       -0.443592
   57       -0.251329
   58        0.118848
   59        0.120212
   60        0.765705
   61        2.467545
   62        2.840483
   63        2.843208
   64        3.204083
   65        5.337567
   66        5.502505
   67        5.505095
   68        5.726401
   69        8.415476
   70        8.631264
   71        8.632386
   72        8.861251
   73        9.526937
   74        9.904090
   75       10.121240
   76       10.124262
   77       10.395561
   78       10.745648
   79       11.597351
   80       11.601787
   81       11.961954
   82       12.140221
   83       12.298785
   84       12.303003
 
  0.5000000E+00  0.1666667E+00  0.0000000E+00  0.1388889E-01
    1      -14.238353
    2      -14.151664
    3      -14.150977
    4      -14.060664
    5      -13.265411
    6      -13.184397
    7      -13.183679
    8      -13.099522
    9      -12.315118
   10      -12.239594
   11      -12.239048
   12      -12.160855
   13       -9.643148
   14       -9.587840
   15       -9.587101
   16       -9.530746
   17       -7.755750
   18       -7.718595
   19       -7.718393
   20       -7.680319
   21       -5.462650
   22       -5.435136
   23       -5.433803
   24       -5.404589
   25       -5.296491
   26       -5.265799
   27       -5.263672
   28       -5.232648
   29       -4.313649
   30       -4.282124
   31       -4.278932
   32       -4.246976
   33       -3.259231
   34       -3.239647
   35       -3.235918
   36       -3.215519
   37       -2.704263
   38       -2.221919
   39       -2.203329
   40       -2.200824
   41       -2.181070
   42       -2.067129
   43       -2.066032
   44       -1.723201
   45       -1.707075
   46       -1.704561
   47       -1.688082
   48       -1.552696
   49       -1.318190
   50       -0.950685
   51       -0.949567
   52       -0.836874
   53       -0.824717
   54       -0.823202
   55       -0.810661
   56       -0.445351
   57       -0.249232
   58        0.116774
   59        0.118330
   60        0.763391
   61        2.471185
   62        2.847161
   63        2.848697
   64        3.214312
   65        5.330290
   66        5.499297
   67        5.500322
   68        5.723463
   69        8.413854
   70        8.629491
   71        8.631186
   72        8.860849
   73        9.525105
   74        9.902521
   75       10.118080
   76       10.121698
   77       10.391606
   78       10.748215
   79       11.595674
   80       11.600061
   81       11.960687
   82       12.139996
   83       12.299489
   84       12.303247
 
 -0.3333333E+00  0.1666667E+00  0.0000000E+00  0.1388889E-01
    1      -14.893071
    2      -14.802527
    3      -14.801868
    4      -14.707321
    5      -12.001491
    6      -11.995897
    7      -11.927899
    8      -11.927331
    9      -11.922371
   10      -11.921655
   11      -11.851242
   12      -11.845631
   13       -9.659299
   14       -9.624134
   15       -9.623570
   16       -9.592088
   17       -8.630761
   18       -8.610834
   19       -8.610154
   20       -8.583365
   21       -6.449810
   22       -6.448140
   23       -6.406240
   24       -6.405253
   25       -6.404893
   26       -6.402761
   27       -6.360310
   28       -6.358880
   29       -4.032481
   30       -4.004557
   31       -4.004013
   32       -3.975422
   33       -3.490825
   34       -2.834907
   35       -2.833540
   36       -2.361705
   37       -2.354261
   38       -2.343300
   39       -2.341338
   40       -2.336468
   41       -2.333263
   42       -2.322741
   43       -2.315436
   44       -2.058129
   45       -0.501966
   46       -0.492671
   47       -0.492025
   48       -0.483065
   49       -0.116728
   50       -0.108624
   51        0.170201
   52        0.176369
   53        0.177065
   54        0.183652
   55        0.420265
   56        0.421966
   57        0.429406
   58        0.430548
   59        1.028461
   60        1.038398
   61        2.163396
   62        2.445079
   63        2.445639
   64        2.658835
   65        5.592256
   66        5.642079
   67        5.643912
   68        5.859807
   69        7.617545
   70        7.620365
   71        7.909362
   72        7.912829
   73        7.913180
   74        7.915558
   75        8.279673
   76        8.283519
   77        8.704478
   78       10.876317
   79       10.879014
   80       12.239577
   81       12.244736
   82       12.427365
   83       12.465902
   84       12.479493
 
 -0.1666667E+00  0.1666667E+00  0.0000000E+00  0.1388889E-01
    1      -15.222243
    2      -15.129749
    3      -15.129097
    4      -15.032416
    5      -11.385705
    6      -11.316381
    7      -11.315698
    8      -11.244162
    9      -10.503191
   10      -10.501250
   11      -10.443218
   12      -10.440831
   13      -10.440823
   14      -10.439267
   15      -10.379582
   16      -10.377573
   17       -8.395431
   18       -8.393678
   19       -8.348319
   20       -8.345032
   21       -8.344978
   22       -8.344887
   23       -8.295684
   24       -8.294042
   25       -7.555070
   26       -7.506143
   27       -7.504951
   28       -7.454637
   29       -3.888802
   30       -3.223790
   31       -3.222401
   32       -2.693703
   33       -2.691820
   34       -2.674471
   35       -2.672878
   36       -2.672875
   37       -2.670130
   38       -2.653497
   39       -2.650849
   40       -2.434547
   41       -2.030182
   42       -2.015964
   43       -2.012923
   44       -1.998678
   45        0.509898
   46        0.532137
   47        0.540626
   48        0.544164
   49        0.554612
   50        0.844506
   51        0.852984
   52        0.857311
   53        0.863435
   54        0.990130
   55        0.992129
   56        1.361852
   57        1.363874
   58        1.509099
   59        1.739767
   60        1.741151
   61        1.741234
   62        1.744100
   63        2.101514
   64        2.103597
   65        5.922299
   66        5.924754
   67        6.135316
   68        6.140596
   69        6.141158
   70        6.142229
   71        6.519031
   72        6.521851
   73        6.662057
   74        6.962620
   75        6.965748
   76        7.394062
   77        8.294010
   78       10.501378
   79       10.504087
   80       11.576456
   81       11.698084
   82       11.699967
   83       11.817775
   84       12.190318
 
  0.0000000E+00  0.3333333E+00  0.0000000E+00  0.1388889E-01
    1      -14.728359
    2      -14.638780
    3      -14.638124
    4      -14.544635
    5      -12.785501
    6      -12.707234
    7      -12.706580
    8      -12.625427
    9      -10.932113
   10      -10.927823
   11      -10.866529
   12      -10.864423
   13      -10.861058
   14      -10.860141
   15      -10.796281
   16      -10.791848
   17       -7.222106
   18       -7.216466
   19       -7.178214
   20       -7.177306
   21       -7.171208
   22       -7.170944
   23       -7.131296
   24       -7.125611
   25       -5.440475
   26       -5.400495
   27       -5.399858
   28       -5.359087
   29       -3.847044
   30       -3.837739
   31       -3.820597
   32       -3.819656
   33       -3.811731
   34       -3.809535
   35       -3.792254
   36       -3.783071
   37       -3.292380
   38       -2.641195
   39       -2.639835
   40       -1.870928
   41       -1.568298
   42       -1.553669
   43       -1.553090
   44       -1.538371
   45       -1.114569
   46       -1.096184
   47       -1.095307
   48       -1.076827
   49       -1.002584
   50       -0.423504
   51       -0.422356
   52        0.049538
   53        0.060657
   54        0.061195
   55        0.072456
   56        0.245433
   57        1.070512
   58        1.076299
   59        1.539746
   60        1.542248
   61        1.547640
   62        1.549199
   63        2.051004
   64        2.060151
   65        6.469665
   66        6.474383
   67        6.712542
   68        6.717069
   69        6.717439
   70        6.720781
   71        7.016670
   72        7.020828
   73        8.819169
   74        8.909049
   75        9.100837
   76        9.103272
   77        9.466522
   78       11.054640
   79       11.057402
   80       11.304939
   81       11.827666
   82       11.889450
   83       11.890128
   84       12.095087
 
  0.1666667E+00  0.3333333E+00  0.0000000E+00  0.1388889E-01
    1      -14.237219
    2      -14.150534
    3      -14.149846
    4      -14.059537
    5      -13.266964
    6      -13.185896
    7      -13.185276
    8      -13.101063
    9      -12.313990
   10      -12.238512
   11      -12.237874
   12      -12.159725
   13       -9.646698
   14       -9.591750
   15       -9.590729
   16       -9.534778
   17       -7.757201
   18       -7.720733
   19       -7.719580
   20       -7.682139
   21       -5.456932
   22       -5.429689
   23       -5.427602
   24       -5.398637
   25       -5.291286
   26       -5.260706
   27       -5.258845
   28       -5.228009
   29       -4.307285
   30       -4.274239
   31       -4.274140
   32       -4.240609
   33       -3.265589
   34       -3.244831
   35       -3.243957
   36       -3.222244
   37       -2.702775
   38       -2.226770
   39       -2.208367
   40       -2.205720
   41       -2.186204
   42       -2.065647
   43       -2.064567
   44       -1.729684
   45       -1.713148
   46       -1.711849
   47       -1.695144
   48       -1.554966
   49       -1.316662
   50       -0.953112
   51       -0.951784
   52       -0.831119
   53       -0.819103
   54       -0.817564
   55       -0.805211
   56       -0.443280
   57       -0.251614
   58        0.119366
   59        0.120402
   60        0.766122
   61        2.467995
   62        2.841379
   63        2.843215
   64        3.204496
   65        5.337053
   66        5.502448
   67        5.503818
   68        5.725645
   69        8.414272
   70        8.629836
   71        8.631606
   72        8.860235
   73        9.526939
   74        9.905151
   75       10.122496
   76       10.124861
   77       10.396472
   78       10.745613
   79       11.597184
   80       11.601647
   81       11.961977
   82       12.140539
   83       12.299377
   84       12.303181
 
  0.3333333E+00  0.3333333E+00  0.0000000E+00  0.1388889E-01
    1      -13.430808
    2      -13.428250
    3      -13.425888
    4      -13.350493
    5      -13.346560
    6      -13.346541
    7      -13.345933
    8      -13.343826
    9      -13.342281
   10      -13.262825
   11      -13.260337
   12      -13.257878
   13       -8.428798
   14       -8.378962
   15       -8.376382
   16       -8.369636
   17       -8.366410
   18       -8.360065
   19       -8.358603
   20       -8.309419
   21       -6.325312
   22       -6.324663
   23       -6.323291
   24       -6.322750
   25       -3.559062
   26       -3.551675
   27       -3.548924
   28       -3.543807
   29       -3.539539
   30       -3.535366
   31       -3.533669
   32       -3.533665
   33       -3.529586
   34       -3.525230
   35       -3.518361
   36       -3.513771
   37       -2.202026
   38       -2.195878
   39       -2.190834
   40       -2.189453
   41       -2.184681
   42       -2.184667
   43       -2.184162
   44       -2.179692
   45       -2.176689
   46       -2.174259
   47       -2.171113
   48       -2.163079
   49       -1.743255
   50       -1.741147
   51       -1.738026
   52       -1.135712
   53       -1.132207
   54       -1.132063
   55       -1.131222
   56       -1.128769
   57       -1.126964
   58       -0.422751
   59       -0.420464
   60       -0.417114
   61        3.745902
   62        4.188236
   63        4.192499
   64        4.195630
   65        4.195669
   66        4.212145
   67        4.213797
   68        4.704700
   69       10.408816
   70       10.412399
   71       10.412942
   72       10.537260
   73       10.549576
   74       10.552419
   75       10.573149
   76       10.574519
   77       10.576035
   78       10.576389
   79       10.576553
   80       10.589364
   81       10.740519
   82       10.746329
   83       10.749355
   84       12.517887
 
  0.5000000E+00  0.3333333E+00  0.0000000E+00  0.1388889E-01
    1      -14.239006
    2      -14.152295
    3      -14.151647
    4      -14.061311
    5      -13.268743
    6      -13.187636
    7      -13.187087
    8      -13.102835
    9      -12.310340
   10      -12.234912
   11      -12.234184
   12      -12.156086
   13       -9.635613
   14       -9.580199
   15       -9.579713
   16       -9.523277
   17       -7.765760
   18       -7.729676
   19       -7.728176
   20       -7.691194
   21       -5.459339
   22       -5.431380
   23       -5.431153
   24       -5.401499
   25       -5.300571
   26       -5.270820
   27       -5.267537
   28       -5.237539
   29       -4.315048
   30       -4.282741
   31       -4.280762
   32       -4.247938
   33       -3.258236
   34       -3.238303
   35       -3.235771
   36       -3.214794
   37       -2.705262
   38       -2.226762
   39       -2.207420
   40       -2.206072
   41       -2.185561
   42       -2.068240
   43       -2.067073
   44       -1.719759
   45       -1.704123
   46       -1.700353
   47       -1.684730
   48       -1.557608
   49       -1.319296
   50       -0.955991
   51       -0.954502
   52       -0.831459
   53       -0.819952
   54       -0.817152
   55       -0.805479
   56       -0.438657
   57       -0.254688
   58        0.124022
   59        0.125071
   60        0.770853
   61        2.478515
   62        2.854495
   63        2.855036
   64        3.219581
   65        5.329999
   66        5.491750
   67        5.493876
   68        5.710665
   69        8.412107
   70        8.623994
   71        8.627179
   72        8.851968
   73        9.524180
   74        9.901690
   75       10.118665
   76       10.121290
   77       10.394575
   78       10.743416
   79       11.592820
   80       11.597363
   81       11.967473
   82       12.137824
   83       12.301111
   84       12.304689
 
 -0.3333333E+00  0.3333333E+00  0.0000000E+00  0.1388889E-01
    1      -14.729245
    2      -14.639650
    3      -14.639018
    4      -14.545514
    5      -12.789133
    6      -12.710823
    7      -12.710257
    8      -12.629058
    9      -10.924506
   10      -10.922806
   11      -10.858774
   12      -10.856457
   13      -10.856443
   14      -10.855322
   15      -10.788660
   16      -10.786917
   17       -7.224734
   18       -7.222866
   19       -7.181854
   20       -7.178344
   21       -7.178231
   22       -7.178190
   23       -7.134287
   24       -7.132581
   25       -5.446384
   26       -5.406626
   27       -5.405255
   28       -5.364695
   29       -3.844353
   30       -3.842760
   31       -3.818041
   32       -3.817098
   33       -3.817095
   34       -3.814360
   35       -3.790070
   36       -3.787897
   37       -3.293637
   38       -2.642496
   39       -2.641094
   40       -1.872259
   41       -1.558166
   42       -1.544626
   43       -1.541308
   44       -1.527817
   45       -1.119030
   46       -1.101115
   47       -1.098467
   48       -1.080290
   49       -1.007784
   50       -0.429258
   51       -0.427758
   52        0.052762
   53        0.063088
   54        0.067315
   55        0.077035
   56        0.239250
   57        1.079745
   58        1.081655
   59        1.550576
   60        1.552021
   61        1.552192
   62        1.554966
   63        2.062875
   64        2.065065
   65        6.466872
   66        6.469452
   67        6.707089
   68        6.712089
   69        6.712630
   70        6.713242
   71        7.009149
   72        7.011729
   73        8.817132
   74        8.907654
   75        9.098026
   76        9.100828
   77        9.465100
   78       11.052821
   79       11.055594
   80       11.302525
   81       11.855402
   82       11.915479
   83       11.917618
   84       12.120984
 
 -0.1666667E+00  0.3333333E+00  0.0000000E+00  0.1388889E-01
    1      -14.893060
    2      -14.802504
    3      -14.801867
    4      -14.707309
    5      -12.001899
    6      -11.995621
    7      -11.929082
    8      -11.927345
    9      -11.921691
   10      -11.921133
   11      -11.851534
   12      -11.845207
   13       -9.658629
   14       -9.623574
   15       -9.622744
   16       -9.591375
   17       -8.632435
   18       -8.613753
   19       -8.610158
   20       -8.584726
   21       -6.450702
   22       -6.446755
   23       -6.407568
   24       -6.406233
   25       -6.402765
   26       -6.401180
   27       -6.361144
   28       -6.357095
   29       -4.031582
   30       -4.004016
   31       -4.002567
   32       -3.974317
   33       -3.490856
   34       -2.834955
   35       -2.833560
   36       -2.362948
   37       -2.354284
   38       -2.343961
   39       -2.343300
   40       -2.335653
   41       -2.333263
   42       -2.323943
   43       -2.315091
   44       -2.058170
   45       -0.500651
   46       -0.492023
   47       -0.489010
   48       -0.479322
   49       -0.116797