       N       E                     dE             d eps       ncg     rms          rms(c)
DAV:   1     0.697803116450E+03    0.69780E+03   -0.84566E+04 12768   0.201E+03
DAV:   2    -0.255348954314E+03   -0.95315E+03   -0.91704E+03 15864   0.341E+02
DAV:   3    -0.312323472692E+03   -0.56975E+02   -0.56365E+02 15516   0.817E+01
DAV:   4    -0.313440711117E+03   -0.11172E+01   -0.11150E+01 15840   0.123E+01
DAV:   5    -0.313473757362E+03   -0.33046E-01   -0.33033E-01 16164   0.200E+00    0.221E+01
DAV:   6    -0.299147780147E+03    0.14326E+02   -0.14775E+01 14592   0.107E+01    0.116E+01
DAV:   7    -0.294629274920E+03    0.45185E+01   -0.15429E+01 14520   0.109E+01    0.193E+00
DAV:   8    -0.294690141452E+03   -0.60867E-01   -0.54248E-01 14736   0.207E+00    0.600E-01
DAV:   9    -0.294691723624E+03   -0.15822E-02   -0.82286E-02 14868   0.786E-01    0.432E-01
DAV:  10    -0.294687649774E+03    0.40738E-02   -0.20237E-02 15312   0.339E-01    0.192E-01
DAV:  11    -0.294687464823E+03    0.18495E-03   -0.14965E-02 17328   0.300E-01    0.158E-01
DAV:  12    -0.294687711273E+03   -0.24645E-03   -0.56399E-03 14580   0.163E-01    0.127E-01
DAV:  13    -0.294687906569E+03   -0.19530E-03   -0.83137E-03 16968   0.172E-01    0.115E-01
DAV:  14    -0.294688117169E+03   -0.21060E-03   -0.94628E-03 16464   0.177E-01    0.115E-01
DAV:  15    -0.294687852442E+03    0.26473E-03   -0.34226E-03 17064   0.117E-01    0.423E-02
DAV:  16    -0.294687837244E+03    0.15198E-04   -0.42211E-04 14724   0.425E-02    0.161E-02
DAV:  17    -0.294687837617E+03   -0.37264E-06   -0.12128E-05 14652   0.125E-02    0.150E-02
DAV:  18    -0.294687835927E+03    0.16895E-05   -0.47021E-06 17664   0.356E-03    0.999E-03
DAV:  19    -0.294687835920E+03    0.73633E-08   -0.27069E-05 19044   0.793E-03    0.971E-03
DAV:  20    -0.294687847301E+03   -0.11381E-04   -0.14214E-04 20028   0.170E-02    0.284E-02
DAV:  21    -0.294687834457E+03    0.12844E-04   -0.12675E-04 21516   0.161E-02    0.231E-03
DAV:  22    -0.294687834631E+03   -0.17394E-06   -0.14031E-06 14484   0.383E-03    0.350E-03
DAV:  23    -0.294687834621E+03    0.96043E-08   -0.40381E-08 12636   0.623E-04
   1 F= -.29982128E+03 E0= -.29982128E+03  d E =0.000000E+00
