 vasp.5.3.5 31Mar14 (build Nov 02 2014 15:17:37) complex                        
  
 executed on        ion-Intel-MKL date 2016.10.18  06:22:31
 running on    6 total cores
 distrk:  each k-point on    6 cores,    1 groups
 distr:  one band on NCORES_PER_BAND=   1 cores,    6 groups


--------------------------------------------------------------------------------------------------------


 INCAR:
 POTCAR:   PAW_PBE C 08Apr2002                    

 ----------------------------------------------------------------------------- 
|                                                                             |
|           W    W    AA    RRRRR   N    N  II  N    N   GGGG   !!!           |
|           W    W   A  A   R    R  NN   N  II  NN   N  G    G  !!!           |
|           W    W  A    A  R    R  N N  N  II  N N  N  G       !!!           |
|           W WW W  AAAAAA  RRRRR   N  N N  II  N  N N  G  GGG   !            |
|           WW  WW  A    A  R   R   N   NN  II  N   NN  G    G                |
|           W    W  A    A  R    R  N    N  II  N    N   GGGG   !!!           |
|                                                                             |
|      For optimal performance we recommend to set                            |
|        NCORE= 4 - approx SQRT( number of cores)                             |
|      NCORE specifies how many cores store one orbital (NPAR=cpu/NCORE).     |
|      This setting can  greatly improve the performance of VASP for DFT.     |
|      The default, NPAR=number of cores might be grossly inefficient         |
|      on modern multi-core architectures or massively parallel machines.     |
|      Do your own testing !!!!                                               |
|      Unfortunately you need to use the default for GW and RPA calculations. |
|      (for HF NCORE is supported but not extensively tested yet)             |
|                                                                             |
 ----------------------------------------------------------------------------- 

 POTCAR:   PAW_PBE C 08Apr2002                    
   VRHFIN =C: s2p2                                                              
   LEXCH  = PE                                                                  
   EATOM  =   147.1560 eV,   10.8157 Ry                                         
                                                                                
   TITEL  = PAW_PBE C 08Apr2002                                                 
   LULTRA =        F    use ultrasoft PP ?                                      
   IUNSCR =        0    unscreen: 0-lin 1-nonlin 2-no                           
   RPACOR =     .000    partial core radius                                     
   POMASS =   12.011; ZVAL   =    4.000    mass and valenz                      
   RCORE  =    1.500    outmost cutoff radius                                   
   RWIGS  =    1.630; RWIGS  =     .863    wigner-seitz radius (au A)           
   ENMAX  =  400.000; ENMIN  =  300.000 eV                                      
   ICORE  =        2    local potential                                         
   LCOR   =        T    correct aug charges                                     
   LPAW   =        T    paw PP                                                  
   EAUG   =  644.873                                                            
   DEXC   =     .000                                                            
   RMAX   =    2.266    core radius for proj-oper                               
   RAUG   =    1.300    factor for augmentation sphere                          
   RDEP   =    1.501    radius for radial grids                                 
   RDEPT  =    1.300    core radius for aug-charge                              
   QCUT   =   -5.516; QGAM   =   11.032    optimization parameters              
                                                                                
   Description                                                                  
     l     E      TYP  RCUT    TYP  RCUT                                        
     0   .000     23  1.200                                                     
     0   .000     23  1.200                                                     
     1   .000     23  1.500                                                     
     1  2.500     23  1.500                                                     
     2   .000      7  1.500                                                     
  local pseudopotential read in
  atomic valenz-charges read in
  non local Contribution for L=           0  read in
    real space projection operators read in
  non local Contribution for L=           0  read in
    real space projection operators read in
  non local Contribution for L=           1  read in
    real space projection operators read in
  non local Contribution for L=           1  read in
    real space projection operators read in
    PAW grid and wavefunctions read in
 
   number of l-projection  operators is LMAX  =           4
   number of lm-projection operators is LMMAX =           8
 

 ----------------------------------------------------------------------------- 
|                                                                             |
|  ADVICE TO THIS USER RUNNING 'VASP/VAMP'   (HEAR YOUR MASTER'S VOICE ...):  |
|                                                                             |
|      You have a (more or less) 'large supercell' and for larger cells       |
|      it might be more efficient to use real space projection operators      |
|      So try LREAL= Auto  in the INCAR   file.                               |
|      Mind: If you want to do a very accurate calculations keep the          |
|      reciprocal projection scheme          (i.e. LREAL=.FALSE.)             |
|                                                                             |
 ----------------------------------------------------------------------------- 

 PAW_PBE C 08Apr2002                    :
 energy of atom  1       EATOM= -147.1560
 kinetic energy error for atom=    0.0016 (will be added to EATOM!!)
 
 
 POSCAR: C                                       
  positions in direct lattice
  No initial velocities read in
 exchange correlation table for  LEXCH =        8
   RHO(1)=    0.500       N(1)  =     2000
   RHO(2)=  100.500       N(2)  =     4000
 


--------------------------------------------------------------------------------------------------------


 ion  position               nearest neighbor table
   1  0.499  0.000  0.124-  19 1.42  18 1.42  20 1.43
   2  1.000  0.000  0.125-  17 1.42  20 1.42  19 1.42
   3  0.500  0.500  0.125-  20 1.42  17 1.42  18 1.42
   4  1.000  0.500  0.125-  19 1.42  18 1.42  17 1.42
   5  0.500  0.000  0.625-  22 1.42  23 1.42  24 1.42
   6  1.000  0.000  0.625-  21 1.42  24 1.42  23 1.42
   7  0.500  0.500  0.625-  24 1.42  21 1.42  22 1.42
   8  1.000  0.500  0.625-  23 1.42  22 1.42  21 1.42
   9  0.000  0.500  0.375-  27 1.42  26 1.42  28 1.42
  10  0.500  0.500  0.375-  28 1.42  25 1.42  27 1.42
  11  0.000  1.000  0.375-  25 1.42  28 1.42  26 1.42
  12  0.500  1.000  0.375-  26 1.42  27 1.42  25 1.42
  13  0.000  0.500  0.875-  31 1.42  30 1.42  32 1.42
  14  0.500  0.500  0.875-  32 1.42  29 1.42  31 1.42
  15  0.000  1.000  0.875-  29 1.42  32 1.42  30 1.42
  16  0.500  1.000  0.875-  30 1.42  31 1.42  29 1.42
  17  0.166  0.334  0.125-   2 1.42   3 1.42   4 1.42
  18  0.666  0.334  0.125-   4 1.42   1 1.42   3 1.42
  19  0.166  0.834  0.125-   1 1.42   4 1.42   2 1.42
  20  0.666  0.834  0.125-   3 1.42   2 1.42   1 1.43
  21  0.166  0.334  0.625-   6 1.42   7 1.42   8 1.42
  22  0.666  0.334  0.625-   5 1.42   8 1.42   7 1.42
  23  0.166  0.834  0.625-   8 1.42   5 1.42   6 1.42
  24  0.666  0.834  0.625-   7 1.42   6 1.42   5 1.42
  25  0.334  0.166  0.375-  11 1.42  10 1.42  12 1.42
  26  0.834  0.166  0.375-  12 1.42   9 1.42  11 1.42
  27  0.334  0.666  0.375-   9 1.42  12 1.42  10 1.42
  28  0.834  0.666  0.375-  10 1.42  11 1.42   9 1.42
  29  0.334  0.166  0.875-  15 1.42  14 1.42  16 1.42
  30  0.834  0.166  0.875-  16 1.42  13 1.42  15 1.42
  31  0.334  0.666  0.875-  13 1.42  16 1.42  14 1.42
  32  0.834  0.666  0.875-  14 1.42  15 1.42  13 1.42
 
  LATTYP: Found a base centered orthorhombic cell.
 ALAT       =     4.9295501972
 B/A-ratio  =     1.7336081796
 C/A-ratio  =     2.6637047837
  
  Lattice vectors:
  
 A1 = (   4.9328744980,  -0.0019192860,   0.0000000000)
 A2 = (  -2.4680993993,   4.2710349859,   0.0000000000)
 A3 = (   0.0000000000,   0.0000000000,  13.1308664417)


Analysis of symmetry for initial positions (statically):
=====================================================================
 Subroutine PRICEL returns:
 Original cell was already a primitive cell.
 

 Routine SETGRP: Setting up the symmetry group for a 
 base centered orthorhombic supercell.


 Subroutine GETGRP returns: Found  1 space group operations
 (whereof  1 operations were pure point group operations)
 out of a pool of  8 trial point group operations.


The static configuration has the point symmetry C_1 .


Analysis of symmetry for dynamics (positions and initial velocities):
=====================================================================
 Subroutine PRICEL returns:
 Original cell was already a primitive cell.
 

 Routine SETGRP: Setting up the symmetry group for a 
 base centered orthorhombic supercell.


 Subroutine GETGRP returns: Found  1 space group operations
 (whereof  1 operations were pure point group operations)
 out of a pool of  8 trial point group operations.


The dynamic configuration has the point symmetry C_1 .
 
 
 KPOINTS: B4C B11C-CBC                            

Automatic generation of k-mesh.
Space group operators:
 irot       det(A)        alpha          n_x          n_y          n_z        tau_x        tau_y        tau_z
    1     1.000000     0.000000     1.000000     0.000000     0.000000     0.000000     0.000000     0.000000
 
 Subroutine IBZKPT returns following result:
 ===========================================
 
 Found     76 irreducible k-points:
 
 Following reciprocal coordinates:
            Coordinates               Weight
  0.000000  0.000000  0.000000      1.000000
  0.166667  0.000000  0.000000      2.000000
  0.333333  0.000000  0.000000      2.000000
  0.500000  0.000000  0.000000      1.000000
  0.000000  0.166667  0.000000      2.000000
  0.166667  0.166667  0.000000      2.000000
  0.333333  0.166667  0.000000      2.000000
  0.500000  0.166667  0.000000      2.000000
 -0.333333  0.166667  0.000000      2.000000
 -0.166667  0.166667  0.000000      2.000000
  0.000000  0.333333  0.000000      2.000000
  0.166667  0.333333  0.000000      2.000000
  0.333333  0.333333  0.000000      2.000000
  0.500000  0.333333  0.000000      2.000000
 -0.333333  0.333333  0.000000      2.000000
 -0.166667  0.333333  0.000000      2.000000
  0.000000  0.500000  0.000000      1.000000
  0.166667  0.500000  0.000000      2.000000
  0.333333  0.500000  0.000000      2.000000
  0.500000  0.500000  0.000000      1.000000
  0.000000  0.000000  0.250000      2.000000
  0.166667  0.000000  0.250000      2.000000
  0.333333  0.000000  0.250000      2.000000
  0.500000  0.000000  0.250000      2.000000
 -0.333333 -0.000000  0.250000      2.000000
 -0.166667 -0.000000  0.250000      2.000000
  0.000000  0.166667  0.250000      2.000000
  0.166667  0.166667  0.250000      2.000000
  0.333333  0.166667  0.250000      2.000000
  0.500000  0.166667  0.250000      2.000000
 -0.333333  0.166667  0.250000      2.000000
 -0.166667  0.166667  0.250000      2.000000
  0.000000  0.333333  0.250000      2.000000
  0.166667  0.333333  0.250000      2.000000
  0.333333  0.333333  0.250000      2.000000
  0.500000  0.333333  0.250000      2.000000
 -0.333333  0.333333  0.250000      2.000000
 -0.166667  0.333333  0.250000      2.000000
  0.000000  0.500000  0.250000      2.000000
  0.166667  0.500000  0.250000      2.000000
  0.333333  0.500000  0.250000      2.000000
  0.500000  0.500000  0.250000      2.000000
 -0.333333  0.500000  0.250000      2.000000
 -0.166667  0.500000  0.250000      2.000000
 -0.000000 -0.333333  0.250000      2.000000
  0.166667 -0.333333  0.250000      2.000000
  0.333333 -0.333333  0.250000      2.000000
  0.500000 -0.333333  0.250000      2.000000
 -0.333333 -0.333333  0.250000      2.000000
 -0.166667 -0.333333  0.250000      2.000000
  0.000000 -0.166667  0.250000      2.000000
  0.166667 -0.166667  0.250000      2.000000
  0.333333 -0.166667  0.250000      2.000000
  0.500000 -0.166667  0.250000      2.000000
 -0.333333 -0.166667  0.250000      2.000000
 -0.166667 -0.166667  0.250000      2.000000
  0.000000  0.000000  0.500000      1.000000
  0.166667  0.000000  0.500000      2.000000
  0.333333  0.000000  0.500000      2.000000
  0.500000  0.000000  0.500000      1.000000
  0.000000  0.166667  0.500000      2.000000
  0.166667  0.166667  0.500000      2.000000
  0.333333  0.166667  0.500000      2.000000
  0.500000  0.166667  0.500000      2.000000
 -0.333333  0.166667  0.500000      2.000000
 -0.166667  0.166667  0.500000      2.000000
  0.000000  0.333333  0.500000      2.000000
  0.166667  0.333333  0.500000      2.000000
  0.333333  0.333333  0.500000      2.000000
  0.500000  0.333333  0.500000      2.000000
 -0.333333  0.333333  0.500000      2.000000
 -0.166667  0.333333  0.500000      2.000000
  0.000000  0.500000  0.500000      1.000000
  0.166667  0.500000  0.500000      2.000000
  0.333333  0.500000  0.500000      2.000000
  0.500000  0.500000  0.500000      1.000000
 
 Following cartesian coordinates:
            Coordinates               Weight
  0.000000  0.000000  0.000000      1.000000
  0.033795  0.019529  0.000000      2.000000
  0.067589  0.039058  0.000000      2.000000
  0.101384  0.058586  0.000000      1.000000
  0.000015  0.039031  0.000000      2.000000
  0.033810  0.058560  0.000000      2.000000
  0.067604  0.078089  0.000000      2.000000
  0.101399  0.097618  0.000000      2.000000
 -0.067574 -0.000026  0.000000      2.000000
 -0.033779  0.019503  0.000000      2.000000
  0.000030  0.078063  0.000000      2.000000
  0.033825  0.097591  0.000000      2.000000
  0.067619  0.117120  0.000000      2.000000
  0.101414  0.136649  0.000000      2.000000
 -0.067559  0.039005  0.000000      2.000000
 -0.033764  0.058534  0.000000      2.000000
  0.000046  0.117094  0.000000      1.000000
  0.033840  0.136623  0.000000      2.000000
  0.067635  0.156152  0.000000      2.000000
  0.101429  0.175680  0.000000      1.000000
  0.000000  0.000000  0.019039      2.000000
  0.033795  0.019529  0.019039      2.000000
  0.067589  0.039058  0.019039      2.000000
  0.101384  0.058586  0.019039      2.000000
 -0.067589 -0.039058  0.019039      2.000000
 -0.033795 -0.019529  0.019039      2.000000
  0.000015  0.039031  0.019039      2.000000
  0.033810  0.058560  0.019039      2.000000
  0.067604  0.078089  0.019039      2.000000
  0.101399  0.097618  0.019039      2.000000
 -0.067574 -0.000026  0.019039      2.000000
 -0.033779  0.019503  0.019039      2.000000
  0.000030  0.078063  0.019039      2.000000
  0.033825  0.097591  0.019039      2.000000
  0.067619  0.117120  0.019039      2.000000
  0.101414  0.136649  0.019039      2.000000
 -0.067559  0.039005  0.019039      2.000000
 -0.033764  0.058534  0.019039      2.000000
  0.000046  0.117094  0.019039      2.000000
  0.033840  0.136623  0.019039      2.000000
  0.067635  0.156152  0.019039      2.000000
  0.101429  0.175680  0.019039      2.000000
 -0.067543  0.078036  0.019039      2.000000
 -0.033749  0.097565  0.019039      2.000000
 -0.000030 -0.078063  0.019039      2.000000
  0.033764 -0.058534  0.019039      2.000000
  0.067559 -0.039005  0.019039      2.000000
  0.101353 -0.019476  0.019039      2.000000
 -0.067619 -0.117120  0.019039      2.000000
 -0.033825 -0.097591  0.019039      2.000000
 -0.000015 -0.039031  0.019039      2.000000
  0.033779 -0.019503  0.019039      2.000000
  0.067574  0.000026  0.019039      2.000000
  0.101368  0.019555  0.019039      2.000000
 -0.067604 -0.078089  0.019039      2.000000
 -0.033810 -0.058560  0.019039      2.000000
  0.000000  0.000000  0.038078      1.000000
  0.033795  0.019529  0.038078      2.000000
  0.067589  0.039058  0.038078      2.000000
  0.101384  0.058586  0.038078      1.000000
  0.000015  0.039031  0.038078      2.000000
  0.033810  0.058560  0.038078      2.000000
  0.067604  0.078089  0.038078      2.000000
  0.101399  0.097618  0.038078      2.000000
 -0.067574 -0.000026  0.038078      2.000000
 -0.033779  0.019503  0.038078      2.000000
  0.000030  0.078063  0.038078      2.000000
  0.033825  0.097591  0.038078      2.000000
  0.067619  0.117120  0.038078      2.000000
  0.101414  0.136649  0.038078      2.000000
 -0.067559  0.039005  0.038078      2.000000
 -0.033764  0.058534  0.038078      2.000000
  0.000046  0.117094  0.038078      1.000000
  0.033840  0.136623  0.038078      2.000000
  0.067635  0.156152  0.038078      2.000000
  0.101429  0.175680  0.038078      1.000000
 
 TETIRR: Found    432 inequivalent tetrahedra from      864


--------------------------------------------------------------------------------------------------------




 Dimension of arrays:
   k-points           NKPTS =     76   k-points in BZ     NKDIM =     76   number of bands    NBANDS=     84
   number of dos      NEDOS =    301   number of ions     NIONS =     32
   non local maximal  LDIM  =      4   non local SUM 2l+1 LMDIM =      8
   total plane-waves  NPLWV = 290304
   max r-space proj   IRMAX =      1   max aug-charges    IRDMAX=  12584
   dimension x,y,z NGX =    48 NGY =   48 NGZ =  126
   dimension x,y,z NGXF=    96 NGYF=   96 NGZF=  252
   support grid    NGXF=    96 NGYF=   96 NGZF=  252
   ions per type =              32
 NGX,Y,Z   is equivalent  to a cutoff of  16.18, 16.18, 15.95 a.u.
 NGXF,Y,Z  is equivalent  to a cutoff of  32.35, 32.35, 31.90 a.u.


 I would recommend the setting:
   dimension x,y,z NGX =    46 NGY =   46 NGZ =  121
 SYSTEM =  graphite                                
 POSCAR =  C                                       

 Startparameter for this run:
   NWRITE =      2    write-flag & timer
   PREC   = accura    normal or accurate (medium, high low for compatibility)
   ISTART =      0    job   : 0-new  1-cont  2-samecut
   ICHARG =      2    charge: 1-file 2-atom 10-const
   ISPIN  =      1    spin polarized calculation?
   LNONCOLLINEAR =      F non collinear calculations
   LSORBIT =      F    spin-orbit coupling
   INIWAV =      1    electr: 0-lowe 1-rand  2-diag
   LASPH  =      F    aspherical Exc in radial PAW
   METAGGA=      F    non-selfconsistent MetaGGA calc.

 Electronic Relaxation 1
   ENCUT  =  800.0 eV  58.80 Ry    7.67 a.u.  11.38 11.38 30.28*2*pi/ulx,y,z
   ENINI  =  800.0     initial cutoff
   ENAUG  =  644.9 eV  augmentation charge cutoff
   NELM   =    200;   NELMIN=  2; NELMDL=  0     # of ELM steps 
   EDIFF  = 0.1E-07   stopping-criterion for ELM
   LREAL  =      F    real-space projection
   NLSPLINE    = F    spline interpolate recip. space projectors
   LCOMPAT=      F    compatible to vasp.4.4
   GGA_COMPAT  = T    GGA compatible to vasp.4.4-vasp.4.6
   LMAXPAW     = -100 max onsite density
   LMAXMIX     =    2 max onsite mixed and CHGCAR
   VOSKOWN=      0    Vosko Wilk Nusair interpolation
   ROPT   =    0.00000
 Ionic relaxation
   EDIFFG = 0.1E-02   stopping-criterion for IOM
   NSW    =      0    number of steps for IOM
   NBLOCK =      1;   KBLOCK =      1    inner block; outer block 
   IBRION =     -1    ionic relax: 0-MD 1-quasi-New 2-CG
   NFREE  =      0    steps in history (QN), initial steepest desc. (CG)
   ISIF   =      2    stress and relaxation
   IWAVPR =     10    prediction:  0-non 1-charg 2-wave 3-comb
   ISYM   =      2    0-nonsym 1-usesym 2-fastsym
   LCORR  =      T    Harris-Foulkes like correction to forces

   POTIM  = 0.5000    time-step for ionic-motion
   TEIN   =    0.0    initial temperature
   TEBEG  =    0.0;   TEEND  =   0.0 temperature during run
   SMASS  =  -3.00    Nose mass-parameter (am)
   estimated Nose-frequenzy (Omega)   =  0.10E-29 period in steps =****** mass=  -0.556E-27a.u.
   SCALEE = 1.0000    scale energy and forces
   NPACO  =    256;   APACO  = 16.0  distance and # of slots for P.C.
   PSTRESS=    0.0 pullay stress

  Mass of Ions in am
   POMASS =  12.01
  Ionic Valenz
   ZVAL   =   4.00
  Atomic Wigner-Seitz radii
   RWIGS  =  -1.00
  virtual crystal weights 
   VCA    =   1.00
   NELECT =     128.0000    total number of electrons
   NUPDOWN=      -1.0000    fix difference up-down

 DOS related values:
   EMIN   =  10.00;   EMAX   =-10.00  energy-range for DOS
   EFERMI =   0.00
   ISMEAR =    -5;   SIGMA  =   0.20  broadening in eV -4-tet -1-fermi 0-gaus

 Electronic relaxation 2 (details)
   IALGO  =     38    algorithm
   LDIAG  =      T    sub-space diagonalisation (order eigenvalues)
   LSUBROT=      F    optimize rotation matrix (better conditioning)
   TURBO    =      0    0=normal 1=particle mesh
   IRESTART =      0    0=no restart 2=restart with 2 vectors
   NREBOOT  =      0    no. of reboots
   NMIN     =      0    reboot dimension
   EREF     =   0.00    reference energy to select bands
   IMIX   =      4    mixing-type and parameters
     AMIX     =   0.40;   BMIX     =  1.00
     AMIX_MAG =   1.60;   BMIX_MAG =  1.00
     AMIN     =   0.10
     WC   =   100.;   INIMIX=   1;  MIXPRE=   1;  MAXMIX= -45

 Intra band minimization:
   WEIMIN = 0.0000     energy-eigenvalue tresh-hold
   EBREAK =  0.30E-10  absolut break condition
   DEPER  =   0.30     relativ break condition  

   TIME   =   0.40     timestep for ELM

  volume/ion in A,a.u.               =       8.64        58.33
  Fermi-wavevector in a.u.,A,eV,Ry     =   1.266296  2.392952 21.817012  1.603505
  Thomas-Fermi vector in A             =   2.399504
 
 Write flags
   LWAVE  =      F    write WAVECAR
   LCHARG =      F    write CHGCAR
   LVTOT  =      F    write LOCPOT, total local potential
   LVHAR  =      F    write LOCPOT, Hartree potential only
   LELF   =      F    write electronic localiz. function (ELF)
   LORBIT =      0    0 simple, 1 ext, 2 COOP (PROOUT)


 Dipole corrections
   LMONO  =      F    monopole corrections only (constant potential shift)
   LDIPOL =      F    correct potential (dipole corrections)
   IDIPOL =      0    1-x, 2-y, 3-z, 4-all directions 
   EPSILON=  1.0000000 bulk dielectric constant

 Exchange correlation treatment:
   GGA     =    PE    GGA type
   LEXCH   =     8    internal setting for exchange type
   VOSKOWN=      0    Vosko Wilk Nusair interpolation
   LHFCALC =     F    Hartree Fock is set to
   LHFONE  =     F    Hartree Fock one center treatment
   AEXX    =    0.0000 exact exchange contribution

 Linear response parameters
   LEPSILON=     F    determine dielectric tensor
   LRPA    =     F    only Hartree local field effects (RPA)
   LNABLA  =     F    use nabla operator in PAW spheres
   LVEL    =     F    velocity operator in full k-point grid
   LINTERFAST=   F  fast interpolation
   KINTER  =     0    interpolate to denser k-point grid
   CSHIFT  =0.1000    complex shift for real part using Kramers Kronig
   OMEGAMAX=  -1.0    maximum frequency
   DEG_THRESHOLD= 0.2000000E-02 threshold for treating states as degnerate
   RTIME   =    0.100 relaxation time in fs

 Orbital magnetization related:
   ORBITALMAG=     F  switch on orbital magnetization
   LCHIMAG   =     F  perturbation theory with respect to B field
   DQ        =  0.001000  dq finite difference perturbation B field



--------------------------------------------------------------------------------------------------------


 Static calculation
 charge density and potential will be updated during run
 non-spin polarized calculation
 Variant of blocked Davidson
 Davidson routine will perform the subspace rotation
 perform sub-space diagonalisation
    after iterative eigenvector-optimisation
 modified Broyden-mixing scheme, WC =      100.0
 initial mixing is a Kerker type mixing with AMIX =  0.4000 and BMIX =      1.0000
 Hartree-type preconditioning will be used
 using additional bands           20
 reciprocal scheme for non local part
 calculate Harris-corrections to forces 
   (improved forces if not selfconsistent)
 use gradient corrections 
 use of overlap-Matrix (Vanderbilt PP)
 Fermi weights with tetrahedron method with Bloechl corrections


--------------------------------------------------------------------------------------------------------


  energy-cutoff  :      800.00
  volume of cell :      276.59
      direct lattice vectors                 reciprocal lattice vectors
     4.932874498 -0.001919286  0.000000000     0.202767147  0.117172881  0.000000000
    -2.468099399  4.271034986  0.000000000     0.000091118  0.234187941  0.000000000
     0.000000000  0.000000000 13.130866442     0.000000000  0.000000000  0.076156437

  length of vectors
     4.932874871  4.932874871 13.130866442     0.234187958  0.234187958  0.076156437


 
 k-points in units of 2pi/SCALE and weight: B4C B11C-CBC                            
   0.00000000  0.00000000  0.00000000       0.007
   0.03379452  0.01952881  0.00000000       0.014
   0.06758905  0.03905763  0.00000000       0.014
   0.10138357  0.05858644  0.00000000       0.007
   0.00001519  0.03903132  0.00000000       0.014
   0.03380971  0.05856014  0.00000000       0.014
   0.06760424  0.07808895  0.00000000       0.014
   0.10139876  0.09761776  0.00000000       0.014
  -0.06757386 -0.00002630  0.00000000       0.014
  -0.03377934  0.01950251  0.00000000       0.014
   0.00003037  0.07806265  0.00000000       0.014
   0.03382490  0.09759146  0.00000000       0.014
   0.06761942  0.11712027  0.00000000       0.014
   0.10141395  0.13664909  0.00000000       0.014
  -0.06755868  0.03900502  0.00000000       0.014
  -0.03376415  0.05853383  0.00000000       0.014
   0.00004556  0.11709397  0.00000000       0.007
   0.03384008  0.13662278  0.00000000       0.014
   0.06763461  0.15615160  0.00000000       0.014
   0.10142913  0.17568041  0.00000000       0.007
   0.00000000  0.00000000  0.01903911       0.014
   0.03379452  0.01952881  0.01903911       0.014
   0.06758905  0.03905763  0.01903911       0.014
   0.10138357  0.05858644  0.01903911       0.014
  -0.06758905 -0.03905763  0.01903911       0.014
  -0.03379452 -0.01952881  0.01903911       0.014
   0.00001519  0.03903132  0.01903911       0.014
   0.03380971  0.05856014  0.01903911       0.014
   0.06760424  0.07808895  0.01903911       0.014
   0.10139876  0.09761776  0.01903911       0.014
  -0.06757386 -0.00002630  0.01903911       0.014
  -0.03377934  0.01950251  0.01903911       0.014
   0.00003037  0.07806265  0.01903911       0.014
   0.03382490  0.09759146  0.01903911       0.014
   0.06761942  0.11712027  0.01903911       0.014
   0.10141395  0.13664909  0.01903911       0.014
  -0.06755868  0.03900502  0.01903911       0.014
  -0.03376415  0.05853383  0.01903911       0.014
   0.00004556  0.11709397  0.01903911       0.014
   0.03384008  0.13662278  0.01903911       0.014
   0.06763461  0.15615160  0.01903911       0.014
   0.10142913  0.17568041  0.01903911       0.014
  -0.06754349  0.07803634  0.01903911       0.014
  -0.03374897  0.09756516  0.01903911       0.014
  -0.00003037 -0.07806265  0.01903911       0.014
   0.03376415 -0.05853383  0.01903911       0.014
   0.06755868 -0.03900502  0.01903911       0.014
   0.10135320 -0.01947621  0.01903911       0.014
  -0.06761942 -0.11712027  0.01903911       0.014
  -0.03382490 -0.09759146  0.01903911       0.014
  -0.00001519 -0.03903132  0.01903911       0.014
   0.03377934 -0.01950251  0.01903911       0.014
   0.06757386  0.00002630  0.01903911       0.014
   0.10136839  0.01955512  0.01903911       0.014
  -0.06760424 -0.07808895  0.01903911       0.014
  -0.03380971 -0.05856014  0.01903911       0.014
   0.00000000  0.00000000  0.03807822       0.007
   0.03379452  0.01952881  0.03807822       0.014
   0.06758905  0.03905763  0.03807822       0.014
   0.10138357  0.05858644  0.03807822       0.007
   0.00001519  0.03903132  0.03807822       0.014
   0.03380971  0.05856014  0.03807822       0.014
   0.06760424  0.07808895  0.03807822       0.014
   0.10139876  0.09761776  0.03807822       0.014
  -0.06757386 -0.00002630  0.03807822       0.014
  -0.03377934  0.01950251  0.03807822       0.014
   0.00003037  0.07806265  0.03807822       0.014
   0.03382490  0.09759146  0.03807822       0.014
   0.06761942  0.11712027  0.03807822       0.014
   0.10141395  0.13664909  0.03807822       0.014
  -0.06755868  0.03900502  0.03807822       0.014
  -0.03376415  0.05853383  0.03807822       0.014
   0.00004556  0.11709397  0.03807822       0.007
   0.03384008  0.13662278  0.03807822       0.014
   0.06763461  0.15615160  0.03807822       0.014
   0.10142913  0.17568041  0.03807822       0.007
 
 k-points in reciprocal lattice and weights: B4C B11C-CBC                            
   0.00000000  0.00000000  0.00000000       0.007
   0.16666667  0.00000000  0.00000000       0.014
   0.33333333  0.00000000  0.00000000       0.014
   0.50000000  0.00000000  0.00000000       0.007
   0.00000000  0.16666667  0.00000000       0.014
   0.16666667  0.16666667  0.00000000       0.014
   0.33333333  0.16666667  0.00000000       0.014
   0.50000000  0.16666667  0.00000000       0.014
  -0.33333333  0.16666667  0.00000000       0.014
  -0.16666667  0.16666667  0.00000000       0.014
   0.00000000  0.33333333  0.00000000       0.014
   0.16666667  0.33333333  0.00000000       0.014
   0.33333333  0.33333333  0.00000000       0.014
   0.50000000  0.33333333  0.00000000       0.014
  -0.33333333  0.33333333  0.00000000       0.014
  -0.16666667  0.33333333  0.00000000       0.014
   0.00000000  0.50000000  0.00000000       0.007
   0.16666667  0.50000000  0.00000000       0.014
   0.33333333  0.50000000  0.00000000       0.014
   0.50000000  0.50000000  0.00000000       0.007
   0.00000000  0.00000000  0.25000000       0.014
   0.16666667  0.00000000  0.25000000       0.014
   0.33333333  0.00000000  0.25000000       0.014
   0.50000000  0.00000000  0.25000000       0.014
  -0.33333333 -0.00000000  0.25000000       0.014
  -0.16666667 -0.00000000  0.25000000       0.014
   0.00000000  0.16666667  0.25000000       0.014
   0.16666667  0.16666667  0.25000000       0.014
   0.33333333  0.16666667  0.25000000       0.014
   0.50000000  0.16666667  0.25000000       0.014
  -0.33333333  0.16666667  0.25000000       0.014
  -0.16666667  0.16666667  0.25000000       0.014
   0.00000000  0.33333333  0.25000000       0.014
   0.16666667  0.33333333  0.25000000       0.014
   0.33333333  0.33333333  0.25000000       0.014
   0.50000000  0.33333333  0.25000000       0.014
  -0.33333333  0.33333333  0.25000000       0.014
  -0.16666667  0.33333333  0.25000000       0.014
   0.00000000  0.50000000  0.25000000       0.014
   0.16666667  0.50000000  0.25000000       0.014
   0.33333333  0.50000000  0.25000000       0.014
   0.50000000  0.50000000  0.25000000       0.014
  -0.33333333  0.50000000  0.25000000       0.014
  -0.16666667  0.50000000  0.25000000       0.014
  -0.00000000 -0.33333333  0.25000000       0.014
   0.16666667 -0.33333333  0.25000000       0.014
   0.33333333 -0.33333333  0.25000000       0.014
   0.50000000 -0.33333333  0.25000000       0.014
  -0.33333333 -0.33333333  0.25000000       0.014
  -0.16666667 -0.33333333  0.25000000       0.014
   0.00000000 -0.16666667  0.25000000       0.014
   0.16666667 -0.16666667  0.25000000       0.014
   0.33333333 -0.16666667  0.25000000       0.014
   0.50000000 -0.16666667  0.25000000       0.014
  -0.33333333 -0.16666667  0.25000000       0.014
  -0.16666667 -0.16666667  0.25000000       0.014
   0.00000000  0.00000000  0.50000000       0.007
   0.16666667  0.00000000  0.50000000       0.014
   0.33333333  0.00000000  0.50000000       0.014
   0.50000000  0.00000000  0.50000000       0.007
   0.00000000  0.16666667  0.50000000       0.014
   0.16666667  0.16666667  0.50000000       0.014
   0.33333333  0.16666667  0.50000000       0.014
   0.50000000  0.16666667  0.50000000       0.014
  -0.33333333  0.16666667  0.50000000       0.014
  -0.16666667  0.16666667  0.50000000       0.014
   0.00000000  0.33333333  0.50000000       0.014
   0.16666667  0.33333333  0.50000000       0.014
   0.33333333  0.33333333  0.50000000       0.014
   0.50000000  0.33333333  0.50000000       0.014
  -0.33333333  0.33333333  0.50000000       0.014
  -0.16666667  0.33333333  0.50000000       0.014
   0.00000000  0.50000000  0.50000000       0.007
   0.16666667  0.50000000  0.50000000       0.014
   0.33333333  0.50000000  0.50000000       0.014
   0.50000000  0.50000000  0.50000000       0.007
 
 position of ions in fractional coordinates (direct lattice) 
   0.49896039  0.00032672  0.12428708
   0.99967330  0.00032672  0.12500000
   0.49967330  0.50032672  0.12500000
   0.99967330  0.50032672  0.12500000
   0.49967330  0.00032672  0.62500000
   0.99967330  0.00032672  0.62500000
   0.49967330  0.50032672  0.62500000
   0.99967330  0.50032672  0.62500000
   0.00032672  0.49967330  0.37500000
   0.50032672  0.49967330  0.37500000
   0.00032672  0.99967330  0.37500000
   0.50032672  0.99967330  0.37500000
   0.00032672  0.49967330  0.87500000
   0.50032672  0.49967330  0.87500000
   0.00032672  0.99967330  0.87500000
   0.50032672  0.99967330  0.87500000
   0.16629246  0.33370753  0.12500000
   0.66629246  0.33370753  0.12500000
   0.16629246  0.83370753  0.12500000
   0.66629246  0.83370753  0.12500000
   0.16629246  0.33370753  0.62500000
   0.66629246  0.33370753  0.62500000
   0.16629246  0.83370753  0.62500000
   0.66629246  0.83370753  0.62500000
   0.33370753  0.16629246  0.37500000
   0.83370753  0.16629246  0.37500000
   0.33370753  0.66629246  0.37500000
   0.83370753  0.66629246  0.37500000
   0.33370753  0.16629246  0.87500000
   0.83370753  0.16629246  0.87500000
   0.33370753  0.66629246  0.87500000
   0.83370753  0.66629246  0.87500000
 
 position of ions in cartesian coordinates  (Angst):
   2.46050259  0.00043778  1.63199708
   4.93045658 -0.00052323  1.64135831
   1.22996963  2.13595390  1.64135831
   3.69640688  2.13499426  1.64135831
   2.46401933  0.00043641  8.20679153
   4.93045658 -0.00052323  8.20679153
   1.22996963  2.13595390  8.20679153
   3.69640688  2.13499426  8.20679153
  -1.23163172  2.13412154  4.92407492
   1.23480553  2.13316189  4.92407492
  -2.46568142  4.26963903  4.92407492
   0.00075583  4.26867939  4.92407492
  -1.23163172  2.13412154 11.48950814
   1.23480553  2.13316189 11.48950814
  -2.46568142  4.26963903 11.48950814
   0.00075583  4.26867939 11.48950814
  -0.00332350  1.42495737  1.64135831
   2.46311374  1.42399773  1.64135831
  -1.23737320  3.56047486  1.64135831
   1.22906405  3.55951522  1.64135831
  -0.00332350  1.42495737  8.20679153
   2.46311374  1.42399773  8.20679153
  -1.23737320  3.56047486  8.20679153
   1.22906405  3.55951522  8.20679153
   1.23571103  0.70960044  4.92407492
   3.70214828  0.70864080  4.92407492
   0.00166133  2.84511794  4.92407492
   2.46809858  2.84415829  4.92407492
   1.23571103  0.70960044 11.48950814
   3.70214828  0.70864080 11.48950814
   0.00166133  2.84511794 11.48950814
   2.46809858  2.84415829 11.48950814
 


--------------------------------------------------------------------------------------------------------


 k-point  1 :   0.0000 0.0000 0.0000  plane waves:   14253
 k-point  2 :   0.1667 0.0000 0.0000  plane waves:   14254
 k-point  3 :   0.3333 0.0000 0.0000  plane waves:   14218
 k-point  4 :   0.5000 0.0000 0.0000  plane waves:   14224
 k-point  5 :   0.0000 0.1667 0.0000  plane waves:   14254
 k-point  6 :   0.1667 0.1667 0.0000  plane waves:   14229
 k-point  7 :   0.3333 0.1667 0.0000  plane waves:   14169
 k-point  8 :   0.5000 0.1667 0.0000  plane waves:   14169
 k-point  9 :  -0.3333 0.1667 0.0000  plane waves:   14229
 k-point 10 :  -0.1667 0.1667 0.0000  plane waves:   14258
 k-point 11 :   0.0000 0.3333 0.0000  plane waves:   14218
 k-point 12 :   0.1667 0.3333 0.0000  plane waves:   14169
 k-point 13 :   0.3333 0.3333 0.0000  plane waves:   14198
 k-point 14 :   0.5000 0.3333 0.0000  plane waves:   14163
 k-point 15 :  -0.3333 0.3333 0.0000  plane waves:   14216
 k-point 16 :  -0.1667 0.3333 0.0000  plane waves:   14229
 k-point 17 :   0.0000 0.5000 0.0000  plane waves:   14224
 k-point 18 :   0.1667 0.5000 0.0000  plane waves:   14169
 k-point 19 :   0.3333 0.5000 0.0000  plane waves:   14163
 k-point 20 :   0.5000 0.5000 0.0000  plane waves:   14244
 k-point 21 :   0.0000 0.0000 0.2500  plane waves:   14215
 k-point 22 :   0.1667 0.0000 0.2500  plane waves:   14248
 k-point 23 :   0.3333 0.0000 0.2500  plane waves:   14202
 k-point 24 :   0.5000 0.0000 0.2500  plane waves:   14208
 k-point 25 :  -0.3333-0.0000 0.2500  plane waves:   14202
 k-point 26 :  -0.1667-0.0000 0.2500  plane waves:   14248
 k-point 27 :   0.0000 0.1667 0.2500  plane waves:   14248
 k-point 28 :   0.1667 0.1667 0.2500  plane waves:   14211
 k-point 29 :   0.3333 0.1667 0.2500  plane waves:   14201
 k-point 30 :   0.5000 0.1667 0.2500  plane waves:   14198
 k-point 31 :  -0.3333 0.1667 0.2500  plane waves:   14213
 k-point 32 :  -0.1667 0.1667 0.2500  plane waves:   14249
 k-point 33 :   0.0000 0.3333 0.2500  plane waves:   14202
 k-point 34 :   0.1667 0.3333 0.2500  plane waves:   14201
 k-point 35 :   0.3333 0.3333 0.2500  plane waves:   14194
 k-point 36 :   0.5000 0.3333 0.2500  plane waves:   14197
 k-point 37 :  -0.3333 0.3333 0.2500  plane waves:   14208
 k-point 38 :  -0.1667 0.3333 0.2500  plane waves:   14213
 k-point 39 :   0.0000 0.5000 0.2500  plane waves:   14208
 k-point 40 :   0.1667 0.5000 0.2500  plane waves:   14198
 k-point 41 :   0.3333 0.5000 0.2500  plane waves:   14197
 k-point 42 :   0.5000 0.5000 0.2500  plane waves:   14212
 k-point 43 :  -0.3333 0.5000 0.2500  plane waves:   14197
 k-point 44 :  -0.1667 0.5000 0.2500  plane waves:   14198
 k-point 45 :  -0.0000-0.3333 0.2500  plane waves:   14202
 k-point 46 :   0.1667-0.3333 0.2500  plane waves:   14213
 k-point 47 :   0.3333-0.3333 0.2500  plane waves:   14208
 k-point 48 :   0.5000-0.3333 0.2500  plane waves:   14197
 k-point 49 :  -0.3333-0.3333 0.2500  plane waves:   14194
 k-point 50 :  -0.1667-0.3333 0.2500  plane waves:   14201
 k-point 51 :   0.0000-0.1667 0.2500  plane waves:   14248
 k-point 52 :   0.1667-0.1667 0.2500  plane waves:   14249
 k-point 53 :   0.3333-0.1667 0.2500  plane waves:   14213
 k-point 54 :   0.5000-0.1667 0.2500  plane waves:   14198
 k-point 55 :  -0.3333-0.1667 0.2500  plane waves:   14201
 k-point 56 :  -0.1667-0.1667 0.2500  plane waves:   14211
 k-point 57 :   0.0000 0.0000 0.5000  plane waves:   14220
 k-point 58 :   0.1667 0.0000 0.5000  plane waves:   14240
 k-point 59 :   0.3333 0.0000 0.5000  plane waves:   14210
 k-point 60 :   0.5000 0.0000 0.5000  plane waves:   14192
 k-point 61 :   0.0000 0.1667 0.5000  plane waves:   14240
 k-point 62 :   0.1667 0.1667 0.5000  plane waves:   14216
 k-point 63 :   0.3333 0.1667 0.5000  plane waves:   14210
 k-point 64 :   0.5000 0.1667 0.5000  plane waves:   14212
 k-point 65 :  -0.3333 0.1667 0.5000  plane waves:   14216
 k-point 66 :  -0.1667 0.1667 0.5000  plane waves:   14242
 k-point 67 :   0.0000 0.3333 0.5000  plane waves:   14210
 k-point 68 :   0.1667 0.3333 0.5000  plane waves:   14210
 k-point 69 :   0.3333 0.3333 0.5000  plane waves:   14224
 k-point 70 :   0.5000 0.3333 0.5000  plane waves:   14214
 k-point 71 :  -0.3333 0.3333 0.5000  plane waves:   14196
 k-point 72 :  -0.1667 0.3333 0.5000  plane waves:   14216
 k-point 73 :   0.0000 0.5000 0.5000  plane waves:   14192
 k-point 74 :   0.1667 0.5000 0.5000  plane waves:   14212
 k-point 75 :   0.3333 0.5000 0.5000  plane waves:   14214
 k-point 76 :   0.5000 0.5000 0.5000  plane waves:   14200

 maximum and minimum number of plane-waves per node :     14258    14163

 maximum number of plane-waves:     14258
 maximum index in each direction: 
   IXMAX=   11   IYMAX=   11   IZMAX=   30
   IXMIN=  -11   IYMIN=  -11   IZMIN=  -30

 NGX is ok and might be reduce to  46
 NGY is ok and might be reduce to  46
 NGZ is ok and might be reduce to 122

 serial   3D FFT for wavefunctions
 parallel 3D FFT for charge:
    minimum data exchange during FFTs selected (reduces bandwidth)


 total amount of memory used by VASP on root node   398531. kBytes
========================================================================

   base      :      30000. kBytes
   nonl-proj :      76672. kBytes
   fftplans  :      14247. kBytes
   grid      :      30326. kBytes
   one-center:         98. kBytes
   wavefun   :     247188. kBytes
 
     INWAV:  cpu time    0.00: real time    0.00
 Broyden mixing: mesh for mixing (old mesh)
   NGX = 23   NGY = 23   NGZ = 61
  (NGX  = 96   NGY  = 96   NGZ  =252)
  gives a total of  32269 points

 initial charge density was supplied:
 charge density of overlapping atoms calculated
 number of electron     128.0000000 magnetization 
 keeping initial charge density in first step


--------------------------------------------------------------------------------------------------------


 Maximum index for augmentation-charges         2027 (set IRDMAX)


--------------------------------------------------------------------------------------------------------


 First call to EWALD:  gamma=   0.272
 Maximum number of real-space cells 4x 4x 2
 Maximum number of reciprocal cells 2x 2x 5

 FEWALD executed in parallel
    FEWALD:  cpu time    0.01: real time    0.02


----------------------------------------- Iteration    1(   1)  ---------------------------------------


    POTLOK:  cpu time    1.26: real time    2.18
    SETDIJ:  cpu time    0.06: real time    0.06
     EDDAV:  cpu time  356.89: real time  713.25
 BZINTS: Fermi energy: 17.469132;128.000000 electrons
         Band energy: 192.679575;  BLOECHL correction: -0.137064
       DOS:  cpu time    0.09: real time    0.17
    --------------------------------------------
      LOOP:  cpu time  358.30: real time  715.68

 eigenvalue-minimisations  : 12768
 total energy-change (2. order) : 0.6978031E+03  (-0.8456611E+04)
 number of electron     128.0000000 magnetization 
 augmentation part      128.0000000 magnetization 

 Free energy of the ion-electron system (eV)
  ---------------------------------------------------
  alpha Z        PSCENC =       301.66361325
  Ewald energy   TEWEN  =     -3791.66601115
  -Hartree energ DENC   =     -1120.42036613
  -exchange      EXHF   =         0.00000000
  -V(xc)+E(xc)   XCENC  =       443.42010439
  PAW double counting   =      1210.60617908    -1247.42152856
  entropy T*S    EENTRO =         0.00000000
  eigenvalues    EBANDS =       192.67957512
  atomic energy  EATOM  =      4708.94155045
  ---------------------------------------------------
  free energy    TOTEN  =       697.80311645 eV

  energy without entropy =      697.80311645  energy(sigma->0) =      697.80311645


--------------------------------------------------------------------------------------------------------




----------------------------------------- Iteration    1(   2)  ---------------------------------------


     EDDAV:  cpu time  409.47: real time  817.03
 BZINTS: Fermi energy:  4.196415;128.000000 electrons
         Band energy:-760.472496;  BLOECHL correction: -0.005514
       DOS:  cpu time    0.08: real time    0.16
    --------------------------------------------
      LOOP:  cpu time  409.57: real time  817.23

 eigenvalue-minimisations  : 15864
 total energy-change (2. order) :-0.9531521E+03  (-0.9170396E+03)
 number of electron     128.0000000 magnetization 
 augmentation part      128.0000000 magnetization 

 Free energy of the ion-electron system (eV)
  ---------------------------------------------------
  alpha Z        PSCENC =       301.66361325
  Ewald energy   TEWEN  =     -3791.66601115
  -Hartree energ DENC   =     -1120.42036613
  -exchange      EXHF   =         0.00000000
  -V(xc)+E(xc)   XCENC  =       443.42010439
  PAW double counting   =      1210.60617908    -1247.42152856
  entropy T*S    EENTRO =         0.00000000
  eigenvalues    EBANDS =      -760.47249565
  atomic energy  EATOM  =      4708.94155045
  ---------------------------------------------------
  free energy    TOTEN  =      -255.34895431 eV

  energy without entropy =     -255.34895431  energy(sigma->0) =     -255.34895431


--------------------------------------------------------------------------------------------------------




----------------------------------------- Iteration    1(   3)  ---------------------------------------


     EDDAV:  cpu time  403.39: real time  807.18
 BZINTS: Fermi energy:  3.430824;128.000000 electrons
         Band energy:-817.447014;  BLOECHL correction: -0.000083
       DOS:  cpu time    0.07: real time    0.15
    --------------------------------------------
      LOOP:  cpu time  403.49: real time  807.40

 eigenvalue-minimisations  : 15516
 total energy-change (2. order) :-0.5697452E+02  (-0.5636532E+02)
 number of electron     128.0000000 magnetization 
 augmentation part      128.0000000 magnetization 

 Free energy of the ion-electron system (eV)
  ---------------------------------------------------
  alpha Z        PSCENC =       301.66361325
  Ewald energy   TEWEN  =     -3791.66601115
  -Hartree energ DENC   =     -1120.42036613
  -exchange      EXHF   =         0.00000000
  -V(xc)+E(xc)   XCENC  =       443.42010439
  PAW double counting   =      1210.60617908    -1247.42152856
  entropy T*S    EENTRO =         0.00000000
  eigenvalues    EBANDS =      -817.44701402
  atomic energy  EATOM  =      4708.94155045
  ---------------------------------------------------
  free energy    TOTEN  =      -312.32347269 eV

  energy without entropy =     -312.32347269  energy(sigma->0) =     -312.32347269


--------------------------------------------------------------------------------------------------------




----------------------------------------- Iteration    1(   4)  ---------------------------------------


     EDDAV:  cpu time  409.44: real time  819.27
 BZINTS: Fermi energy:  3.422716;128.000000 electrons
         Band energy:-818.564252;  BLOECHL correction:  0.000000
       DOS:  cpu time    0.06: real time    0.11
    --------------------------------------------
      LOOP:  cpu time  409.52: real time  819.44

 eigenvalue-minimisations  : 15840
 total energy-change (2. order) :-0.1117238E+01  (-0.1114985E+01)
 number of electron     128.0000000 magnetization 
 augmentation part      128.0000000 magnetization 

 Free energy of the ion-electron system (eV)
  ---------------------------------------------------
  alpha Z        PSCENC =       301.66361325
  Ewald energy   TEWEN  =     -3791.66601115
  -Hartree energ DENC   =     -1120.42036613
  -exchange      EXHF   =         0.00000000
  -V(xc)+E(xc)   XCENC  =       443.42010439
  PAW double counting   =      1210.60617908    -1247.42152856
  entropy T*S    EENTRO =         0.00000000
  eigenvalues    EBANDS =      -818.56425245
  atomic energy  EATOM  =      4708.94155045
  ---------------------------------------------------
  free energy    TOTEN  =      -313.44071112 eV

  energy without entropy =     -313.44071112  energy(sigma->0) =     -313.44071112


--------------------------------------------------------------------------------------------------------




----------------------------------------- Iteration    1(   5)  ---------------------------------------


     EDDAV:  cpu time  416.71: real time  833.85
 BZINTS: Fermi energy:  3.422695;128.000000 electrons
         Band energy:-818.597299;  BLOECHL correction:  0.000000
       DOS:  cpu time    0.04: real time    0.07
    CHARGE:  cpu time    6.87: real time   13.76
    MIXING:  cpu time    0.07: real time    0.14
    --------------------------------------------
      LOOP:  cpu time  423.69: real time  847.85

 eigenvalue-minimisations  : 16164
 total energy-change (2. order) :-0.3304625E-01  (-0.3303332E-01)
 number of electron     127.9999992 magnetization 
 augmentation part        3.3901805 magnetization 

 Broyden mixing:
  rms(total) = 0.22080E+01    rms(broyden)= 0.22080E+01
  rms(prec ) = 0.26224E+01
  weight for this iteration     100.00

 Free energy of the ion-electron system (eV)
  ---------------------------------------------------
  alpha Z        PSCENC =       301.66361325
  Ewald energy   TEWEN  =     -3791.66601115
  -Hartree energ DENC   =     -1120.42036613
  -exchange      EXHF   =         0.00000000
  -V(xc)+E(xc)   XCENC  =       443.42010439
  PAW double counting   =      1210.60617908    -1247.42152856
  entropy T*S    EENTRO =         0.00000000
  eigenvalues    EBANDS =      -818.59729869
  atomic energy  EATOM  =      4708.94155045
  ---------------------------------------------------
  free energy    TOTEN  =      -313.47375736 eV

  energy without entropy =     -313.47375736  energy(sigma->0) =     -313.47375736


--------------------------------------------------------------------------------------------------------




----------------------------------------- Iteration    1(   6)  ---------------------------------------


    POTLOK:  cpu time    1.19: real time    2.37
    SETDIJ:  cpu time    0.02: real time    0.04
     EDDAV:  cpu time  393.84: real time  788.06
 BZINTS: Fermi energy:  4.155664;128.000000 electrons
         Band energy:-681.406881;  BLOECHL correction:  0.000000
       DOS:  cpu time    0.03: real time    0.07
    CHARGE:  cpu time    7.71: real time   15.43
    MIXING:  cpu time    0.09: real time    0.20
    --------------------------------------------
      LOOP:  cpu time  402.90: real time  806.21

 eigenvalue-minimisations  : 14592
 total energy-change (2. order) : 0.1432598E+02  (-0.1477524E+01)
 number of electron     127.9999993 magnetization 
 augmentation part        3.2351672 magnetization 

 Broyden mixing:
  rms(total) = 0.11581E+01    rms(broyden)= 0.11581E+01
  rms(prec ) = 0.13652E+01
  weight for this iteration     100.00

 eigenvalues of (default mixing * dielectric matrix)
  average eigenvalue GAMMA=   2.0349
  2.0349

 Free energy of the ion-electron system (eV)
  ---------------------------------------------------
  alpha Z        PSCENC =       301.66361325
  Ewald energy   TEWEN  =     -3791.66601115
  -Hartree energ DENC   =     -1248.73529560
  -exchange      EXHF   =         0.00000000
  -V(xc)+E(xc)   XCENC  =       451.74825053
  PAW double counting   =      1641.54199239    -1681.23499908
  entropy T*S    EENTRO =         0.00000000
  eigenvalues    EBANDS =      -681.40688094
  atomic energy  EATOM  =      4708.94155045
  ---------------------------------------------------
  free energy    TOTEN  =      -299.14778015 eV

  energy without entropy =     -299.14778015  energy(sigma->0) =     -299.14778015


--------------------------------------------------------------------------------------------------------




----------------------------------------- Iteration    1(   7)  ---------------------------------------


    POTLOK:  cpu time    1.21: real time    2.40
    SETDIJ:  cpu time    0.09: real time    0.17
     EDDAV:  cpu time  379.83: real time  760.04
 BZINTS: Fermi energy:  4.870246;128.000000 electrons
         Band energy:-541.860823;  BLOECHL correction:  0.000000
       DOS:  cpu time    0.05: real time    0.10
    CHARGE:  cpu time    8.04: real time   16.08
    MIXING:  cpu time    0.15: real time    0.31
    --------------------------------------------
      LOOP:  cpu time  389.37: real time  779.13

 eigenvalue-minimisations  : 14520
 total energy-change (2. order) : 0.4518505E+01  (-0.1542862E+01)
 number of electron     127.9999993 magnetization 
 augmentation part        3.0707728 magnetization 

 Broyden mixing:
  rms(total) = 0.19302E+00    rms(broyden)= 0.19302E+00
  rms(prec ) = 0.20978E+00
  weight for this iteration     100.00

 eigenvalues of (default mixing * dielectric matrix)
  average eigenvalue GAMMA=   2.1155
  2.1155  2.1155

 Free energy of the ion-electron system (eV)
  ---------------------------------------------------
  alpha Z        PSCENC =       301.66361325
  Ewald energy   TEWEN  =     -3791.66601115
  -Hartree energ DENC   =     -1390.88719422
  -exchange      EXHF   =         0.00000000
  -V(xc)+E(xc)   XCENC  =       461.20752546
  PAW double counting   =      2179.75116076    -2221.77909674
  entropy T*S    EENTRO =         0.00000000
  eigenvalues    EBANDS =      -541.86082274
  atomic energy  EATOM  =      4708.94155045
  ---------------------------------------------------
  free energy    TOTEN  =      -294.62927492 eV

  energy without entropy =     -294.62927492  energy(sigma->0) =     -294.62927492


--------------------------------------------------------------------------------------------------------




----------------------------------------- Iteration    1(   8)  ---------------------------------------


    POTLOK:  cpu time    1.21: real time    2.41
    SETDIJ:  cpu time    0.05: real time    0.11
     EDDAV:  cpu time  384.22: real time  768.81
 BZINTS: Fermi energy:  4.841886;128.000000 electrons
         Band energy:-544.567838;  BLOECHL correction:  0.000000
       DOS:  cpu time    0.03: real time    0.06
    CHARGE:  cpu time    6.74: real time   13.49
    MIXING:  cpu time    0.06: real time    0.13
    --------------------------------------------
      LOOP:  cpu time  392.32: real time  785.03

 eigenvalue-minimisations  : 14736
 total energy-change (2. order) :-0.6086653E-01  (-0.5424805E-01)
 number of electron     127.9999993 magnetization 
 augmentation part        3.0647600 magnetization 

 Broyden mixing:
  rms(total) = 0.59961E-01    rms(broyden)= 0.59959E-01
  rms(prec ) = 0.88036E-01
  weight for this iteration     100.00

 eigenvalues of (default mixing * dielectric matrix)
  average eigenvalue GAMMA=   1.6746
  2.3836  2.0255  0.6148

 Free energy of the ion-electron system (eV)
  ---------------------------------------------------
  alpha Z        PSCENC =       301.66361325
  Ewald energy   TEWEN  =     -3791.66601115
  -Hartree energ DENC   =     -1388.80124005
  -exchange      EXHF   =         0.00000000
  -V(xc)+E(xc)   XCENC  =       461.09732479
  PAW double counting   =      2208.35430158    -2249.71184221
  entropy T*S    EENTRO =         0.00000000
  eigenvalues    EBANDS =      -544.56783812
  atomic energy  EATOM  =      4708.94155045
  ---------------------------------------------------
  free energy    TOTEN  =      -294.69014145 eV

  energy without entropy =     -294.69014145  energy(sigma->0) =     -294.69014145


--------------------------------------------------------------------------------------------------------




----------------------------------------- Iteration    1(   9)  ---------------------------------------


    POTLOK:  cpu time    1.27: real time    2.54
    SETDIJ:  cpu time    0.06: real time    0.11
     EDDAV:  cpu time  390.25: real time  780.89
 BZINTS: Fermi energy:  4.849692;128.000000 electrons
         Band energy:-543.737718;  BLOECHL correction:  0.000000
       DOS:  cpu time    0.04: real time    0.08
    CHARGE:  cpu time    6.96: real time   13.93
    MIXING:  cpu time    0.07: real time    0.13
    --------------------------------------------
      LOOP:  cpu time  398.65: real time  797.68

 eigenvalue-minimisations  : 14868
 total energy-change (2. order) :-0.1582172E-02  (-0.8228584E-02)
 number of electron     127.9999993 magnetization 
 augmentation part        3.0625991 magnetization 

 Broyden mixing:
  rms(total) = 0.43176E-01    rms(broyden)= 0.43175E-01
  rms(prec ) = 0.66206E-01
  weight for this iteration     100.00

 eigenvalues of (default mixing * dielectric matrix)
  average eigenvalue GAMMA=   1.3474
  2.3967  2.0219  0.4855  0.4855

 Free energy of the ion-electron system (eV)
  ---------------------------------------------------
  alpha Z        PSCENC =       301.66361325
  Ewald energy   TEWEN  =     -3791.66601115
  -Hartree energ DENC   =     -1389.84372474
  -exchange      EXHF   =         0.00000000
  -V(xc)+E(xc)   XCENC  =       461.18111689
  PAW double counting   =      2219.24536543    -2260.47591527
  entropy T*S    EENTRO =         0.00000000
  eigenvalues    EBANDS =      -543.73771849
  atomic energy  EATOM  =      4708.94155045
  ---------------------------------------------------
  free energy    TOTEN  =      -294.69172362 eV

  energy without entropy =     -294.69172362  energy(sigma->0) =     -294.69172362


--------------------------------------------------------------------------------------------------------




----------------------------------------- Iteration    1(  10)  ---------------------------------------


    POTLOK:  cpu time    1.27: real time    2.53
    SETDIJ:  cpu time    0.08: real time    0.16
     EDDAV:  cpu time  395.43: real time  791.25
 BZINTS: Fermi energy:  4.845677;128.000000 electrons
         Band energy:-543.452514;  BLOECHL correction:  0.000000
       DOS:  cpu time    0.04: real time    0.08
    CHARGE:  cpu time    6.22: real time   12.45
    MIXING:  cpu time    0.12: real time    0.23
    --------------------------------------------
      LOOP:  cpu time  403.17: real time  806.75

 eigenvalue-minimisations  : 15312
 total energy-change (2. order) : 0.4073850E-02  (-0.2023653E-02)
 number of electron     127.9999993 magnetization 
 augmentation part        3.0619494 magnetization 

 Broyden mixing:
  rms(total) = 0.19155E-01    rms(broyden)= 0.19154E-01
  rms(prec ) = 0.32198E-01
  weight for this iteration     100.00

 eigenvalues of (default mixing * dielectric matrix)
  average eigenvalue GAMMA=   1.2804
  2.4469  1.9936  0.7774  0.7774  0.4065

 Free energy of the ion-electron system (eV)
  ---------------------------------------------------
  alpha Z        PSCENC =       301.66361325
  Ewald energy   TEWEN  =     -3791.66601115
  -Hartree energ DENC   =     -1390.15328412
  -exchange      EXHF   =         0.00000000
  -V(xc)+E(xc)   XCENC  =       461.20405597
  PAW double counting   =      2220.40334468    -2261.62840482
  entropy T*S    EENTRO =         0.00000000
  eigenvalues    EBANDS =      -543.45251404
  atomic energy  EATOM  =      4708.94155045
  ---------------------------------------------------
  free energy    TOTEN  =      -294.68764977 eV

  energy without entropy =     -294.68764977  energy(sigma->0) =     -294.68764977


--------------------------------------------------------------------------------------------------------




----------------------------------------- Iteration    1(  11)  ---------------------------------------


    POTLOK:  cpu time    1.24: real time    2.47
    SETDIJ:  cpu time    0.08: real time    0.15
     EDDAV:  cpu time  424.63: real time  849.68
 BZINTS: Fermi energy:  4.855766;128.000000 electrons
         Band energy:-542.789150;  BLOECHL correction: -0.000000
       DOS:  cpu time    0.06: real time    0.11
    CHARGE:  cpu time    6.47: real time   12.93
    MIXING:  cpu time    0.09: real time    0.19
    --------------------------------------------
      LOOP:  cpu time  432.56: real time  865.55

 eigenvalue-minimisations  : 17328
 total energy-change (2. order) : 0.1849511E-03  (-0.1496480E-02)
 number of electron     127.9999993 magnetization 
 augmentation part        3.0614984 magnetization 

 Broyden mixing:
  rms(total) = 0.15808E-01    rms(broyden)= 0.15808E-01
  rms(prec ) = 0.29675E-01
  weight for this iteration     100.00

 eigenvalues of (default mixing * dielectric matrix)
  average eigenvalue GAMMA=   1.1785
  2.5054  1.9564  1.1583  0.5762  0.5762  0.2982

 Free energy of the ion-electron system (eV)
  ---------------------------------------------------
  alpha Z        PSCENC =       301.66361325
  Ewald energy   TEWEN  =     -3791.66601115
  -Hartree energ DENC   =     -1390.86653277
  -exchange      EXHF   =         0.00000000
  -V(xc)+E(xc)   XCENC  =       461.25566966
  PAW double counting   =      2222.25706605    -2263.48367029
  entropy T*S    EENTRO =         0.00000000
  eigenvalues    EBANDS =      -542.78915001
  atomic energy  EATOM  =      4708.94155045
  ---------------------------------------------------
  free energy    TOTEN  =      -294.68746482 eV

  energy without entropy =     -294.68746482  energy(sigma->0) =     -294.68746482


--------------------------------------------------------------------------------------------------------




----------------------------------------- Iteration    1(  12)  ---------------------------------------


    POTLOK:  cpu time    1.19: real time    2.38
    SETDIJ:  cpu time    0.07: real time    0.15
     EDDAV:  cpu time  373.23: real time  746.82
 BZINTS: Fermi energy:  4.857661;128.000000 electrons
         Band energy:-542.348559;  BLOECHL correction:  0.000000
       DOS:  cpu time    0.03: real time    0.06
    CHARGE:  cpu time    6.25: real time   12.51
    MIXING:  cpu time    0.06: real time    0.12
    --------------------------------------------
      LOOP:  cpu time  380.85: real time  762.07

 eigenvalue-minimisations  : 14580
 total energy-change (2. order) :-0.2464502E-03  (-0.5639851E-03)
 number of electron     127.9999993 magnetization 
 augmentation part        3.0610150 magnetization 

 Broyden mixing:
  rms(total) = 0.12655E-01    rms(broyden)= 0.12655E-01
  rms(prec ) = 0.22935E-01
  weight for this iteration     100.00

 eigenvalues of (default mixing * dielectric matrix)
  average eigenvalue GAMMA=   1.1754
  2.6248  1.8426  1.8426  0.6672  0.6672  0.3666  0.2166

 Free energy of the ion-electron system (eV)
  ---------------------------------------------------
  alpha Z        PSCENC =       301.66361325
  Ewald energy   TEWEN  =     -3791.66601115
  -Hartree energ DENC   =     -1391.34115081
  -exchange      EXHF   =         0.00000000
  -V(xc)+E(xc)   XCENC  =       461.29012455
  PAW double counting   =      2223.49490384    -2264.72218214
  entropy T*S    EENTRO =         0.00000000
  eigenvalues    EBANDS =      -542.34855927
  atomic energy  EATOM  =      4708.94155045
  ---------------------------------------------------
  free energy    TOTEN  =      -294.68771127 eV

  energy without entropy =     -294.68771127  energy(sigma->0) =     -294.68771127


--------------------------------------------------------------------------------------------------------




----------------------------------------- Iteration    1(  13)  ---------------------------------------


    POTLOK:  cpu time    1.13: real time    2.25
    SETDIJ:  cpu time    0.07: real time    0.12
     EDDAV:  cpu time  339.70: real time  676.74
 BZINTS: Fermi energy:  4.861247;128.000000 electrons
         Band energy:-541.970929;  BLOECHL correction:  0.000000
       DOS:  cpu time    0.03: real time    0.06
    CHARGE:  cpu time    6.02: real time   12.04
    MIXING:  cpu time    0.08: real time    0.15
    --------------------------------------------
      LOOP:  cpu time  347.02: real time  691.40

 eigenvalue-minimisations  : 16968
 total energy-change (2. order) :-0.1952952E-03  (-0.8313681E-03)
 number of electron     127.9999993 magnetization 
 augmentation part        3.0607556 magnetization 

 Broyden mixing:
  rms(total) = 0.11533E-01    rms(broyden)= 0.11532E-01
  rms(prec ) = 0.22557E-01
  weight for this iteration     100.00

 eigenvalues of (default mixing * dielectric matrix)
  average eigenvalue GAMMA=   1.2128
  2.6816  2.3930  1.9470  0.9484  0.6079  0.6079  0.2952  0.2214

 Free energy of the ion-electron system (eV)
  ---------------------------------------------------
  alpha Z        PSCENC =       301.66361325
  Ewald energy   TEWEN  =     -3791.66601115
  -Hartree energ DENC   =     -1391.75051369
  -exchange      EXHF   =         0.00000000
  -V(xc)+E(xc)   XCENC  =       461.32025631
  PAW double counting   =      2224.36805272    -2265.59392554
  entropy T*S    EENTRO =         0.00000000
  eigenvalues    EBANDS =      -541.97092893
  atomic energy  EATOM  =      4708.94155045
  ---------------------------------------------------
  free energy    TOTEN  =      -294.68790657 eV

  energy without entropy =     -294.68790657  energy(sigma->0) =     -294.68790657


--------------------------------------------------------------------------------------------------------




----------------------------------------- Iteration    1(  14)  ---------------------------------------


    POTLOK:  cpu time    1.03: real time    2.06
    SETDIJ:  cpu time    0.02: real time    0.04
     EDDAV:  cpu time  262.44: real time  525.14
 BZINTS: Fermi energy:  4.860980;128.000000 electrons
         Band energy:-541.818441;  BLOECHL correction:  0.000000
       DOS:  cpu time    0.03: real time    0.07
    CHARGE:  cpu time    5.97: real time   11.94
    MIXING:  cpu time    0.02: real time    0.04
    --------------------------------------------
      LOOP:  cpu time  269.51: real time  539.30

 eigenvalue-minimisations  : 16464
 total energy-change (2. order) :-0.2106002E-03  (-0.9462768E-03)
 number of electron     127.9999993 magnetization 
 augmentation part        3.0606276 magnetization 

 Broyden mixing:
  rms(total) = 0.11499E-01    rms(broyden)= 0.11499E-01
  rms(prec ) = 0.23098E-01
  weight for this iteration     100.00

 eigenvalues of (default mixing * dielectric matrix)
  average eigenvalue GAMMA=   1.2069
  2.8154  2.4831  1.8894  1.1092  0.8661  0.6030  0.6030  0.2645  0.2287

 Free energy of the ion-electron system (eV)
  ---------------------------------------------------
  alpha Z        PSCENC =       301.66361325
  Ewald energy   TEWEN  =     -3791.66601115
  -Hartree energ DENC   =     -1391.91957942
  -exchange      EXHF   =         0.00000000
  -V(xc)+E(xc)   XCENC  =       461.33433471
  PAW double counting   =      2223.49475125    -2264.71833547
  entropy T*S    EENTRO =         0.00000000
  eigenvalues    EBANDS =      -541.81844079
  atomic energy  EATOM  =      4708.94155045
  ---------------------------------------------------
  free energy    TOTEN  =      -294.68811717 eV

  energy without entropy =     -294.68811717  energy(sigma->0) =     -294.68811717


--------------------------------------------------------------------------------------------------------




----------------------------------------- Iteration    1(  15)  ---------------------------------------


    POTLOK:  cpu time    0.88: real time    1.76
    SETDIJ:  cpu time    0.04: real time    0.07
     EDDAV:  cpu time  269.49: real time  539.27
 BZINTS: Fermi energy:  4.860318;128.000000 electrons
         Band energy:-541.826116;  BLOECHL correction:  0.000000
       DOS:  cpu time    0.03: real time    0.06
    CHARGE:  cpu time    6.18: real time   12.37
    MIXING:  cpu time    0.06: real time    0.11
    --------------------------------------------
      LOOP:  cpu time  276.69: real time  553.66

 eigenvalue-minimisations  : 17064
 total energy-change (2. order) : 0.2647266E-03  (-0.3422580E-03)
 number of electron     127.9999993 magnetization 
 augmentation part        3.0606322 magnetization 

 Broyden mixing:
  rms(total) = 0.42293E-02    rms(broyden)= 0.42286E-02
  rms(prec ) = 0.86230E-02
  weight for this iteration     100.00

 eigenvalues of (default mixing * dielectric matrix)
  average eigenvalue GAMMA=   1.1508
  2.8683  2.4787  1.8903  1.0952  0.9009  0.6223  0.6223  0.5406  0.2593  0.2298

 Free energy of the ion-electron system (eV)
  ---------------------------------------------------
  alpha Z        PSCENC =       301.66361325
  Ewald energy   TEWEN  =     -3791.66601115
  -Hartree energ DENC   =     -1391.91457361
  -exchange      EXHF   =         0.00000000
  -V(xc)+E(xc)   XCENC  =       461.33426846
  PAW double counting   =      2223.24315915    -2264.46374256
  entropy T*S    EENTRO =         0.00000000
  eigenvalues    EBANDS =      -541.82611644
  atomic energy  EATOM  =      4708.94155045
  ---------------------------------------------------
  free energy    TOTEN  =      -294.68785244 eV

  energy without entropy =     -294.68785244  energy(sigma->0) =     -294.68785244


--------------------------------------------------------------------------------------------------------




----------------------------------------- Iteration    1(  16)  ---------------------------------------


    POTLOK:  cpu time    1.13: real time    2.26
    SETDIJ:  cpu time    0.02: real time    0.05
     EDDAV:  cpu time  241.61: real time  483.49
 BZINTS: Fermi energy:  4.858839;128.000000 electrons
         Band energy:-541.815216;  BLOECHL correction: -0.000000
       DOS:  cpu time    0.03: real time    0.06
    CHARGE:  cpu time    5.93: real time   11.87
    MIXING:  cpu time    0.06: real time    0.14
    --------------------------------------------
      LOOP:  cpu time  248.80: real time  497.90

 eigenvalue-minimisations  : 14724
 total energy-change (2. order) : 0.1519819E-04  (-0.4221069E-04)
 number of electron     127.9999993 magnetization 
 augmentation part        3.0606418 magnetization 

 Broyden mixing:
  rms(total) = 0.16130E-02    rms(broyden)= 0.16129E-02
  rms(prec ) = 0.28521E-02
  weight for this iteration     100.00

 eigenvalues of (default mixing * dielectric matrix)
  average eigenvalue GAMMA=   1.0491
  2.8681  2.4793  1.8898  1.1015  0.9022  0.6228  0.6228  0.5451  0.2592  0.2298
  0.0196

 Free energy of the ion-electron system (eV)
  ---------------------------------------------------
  alpha Z        PSCENC =       301.66361325
  Ewald energy   TEWEN  =     -3791.66601115
  -Hartree energ DENC   =     -1391.92639448
  -exchange      EXHF   =         0.00000000
  -V(xc)+E(xc)   XCENC  =       461.33501896
  PAW double counting   =      2223.23545851    -2264.45585646
  entropy T*S    EENTRO =         0.00000000
  eigenvalues    EBANDS =      -541.81521632
  atomic energy  EATOM  =      4708.94155045
  ---------------------------------------------------
  free energy    TOTEN  =      -294.68783724 eV

  energy without entropy =     -294.68783724  energy(sigma->0) =     -294.68783724


--------------------------------------------------------------------------------------------------------




----------------------------------------- Iteration    1(  17)  ---------------------------------------


    POTLOK:  cpu time    1.00: real time    1.99
    SETDIJ:  cpu time    0.02: real time    0.04
     EDDAV:  cpu time  237.78: real time  475.80
 BZINTS: Fermi energy:  4.860278;128.000000 electrons
         Band energy:-541.814566;  BLOECHL correction:  0.000000
       DOS:  cpu time    0.03: real time    0.06
    CHARGE:  cpu time    5.98: real time   11.98
    MIXING:  cpu time    0.02: real time    0.05
    --------------------------------------------
      LOOP:  cpu time  244.85: real time  489.95

 eigenvalue-minimisations  : 14652
 total energy-change (2. order) :-0.3726400E-06  (-0.1212813E-05)
 number of electron     127.9999993 magnetization 
 augmentation part        3.0606412 magnetization 

 Broyden mixing:
  rms(total) = 0.14961E-02    rms(broyden)= 0.14961E-02
  rms(prec ) = 0.26230E-02
  weight for this iteration     100.00

 eigenvalues of (default mixing * dielectric matrix)
  average eigenvalue GAMMA=   0.9908
  2.8708  2.4796  1.8879  1.1124  0.8897  0.6202  0.6202  0.5600  0.2598  0.2297
  0.1794  0.1794

 Free energy of the ion-electron system (eV)
  ---------------------------------------------------
  alpha Z        PSCENC =       301.66361325
  Ewald energy   TEWEN  =     -3791.66601115
  -Hartree energ DENC   =     -1391.92707235
  -exchange      EXHF   =         0.00000000
  -V(xc)+E(xc)   XCENC  =       461.33506221
  PAW double counting   =      2223.23727859    -2264.45769302
  entropy T*S    EENTRO =         0.00000000
  eigenvalues    EBANDS =      -541.81456560
  atomic energy  EATOM  =      4708.94155045
  ---------------------------------------------------
  free energy    TOTEN  =      -294.68783762 eV

  energy without entropy =     -294.68783762  energy(sigma->0) =     -294.68783762


--------------------------------------------------------------------------------------------------------




----------------------------------------- Iteration    1(  18)  ---------------------------------------


    POTLOK:  cpu time    0.89: real time    1.77
    SETDIJ:  cpu time    0.05: real time    0.09
     EDDAV:  cpu time  274.50: real time  549.29
 BZINTS: Fermi energy:  4.860244;128.000000 electrons
         Band energy:-541.813097;  BLOECHL correction:  0.000000
       DOS:  cpu time    0.03: real time    0.07
    CHARGE:  cpu time    6.01: real time   12.01
    MIXING:  cpu time    0.06: real time    0.12
    --------------------------------------------
      LOOP:  cpu time  281.54: real time  563.37

 eigenvalue-minimisations  : 17664
 total energy-change (2. order) : 0.1689494E-05  (-0.4702084E-06)
 number of electron     127.9999993 magnetization 
 augmentation part        3.0606417 magnetization 

 Broyden mixing:
  rms(total) = 0.99853E-03    rms(broyden)= 0.99852E-03
  rms(prec ) = 0.17752E-02
  weight for this iteration     100.00

 eigenvalues of (default mixing * dielectric matrix)
  average eigenvalue GAMMA=   1.0355
  2.8564  2.5033  1.7829  1.6142  0.8781  0.6655  0.6655  0.6319  0.5920  0.5920
  0.2577  0.2307  0.1905

 Free energy of the ion-electron system (eV)
  ---------------------------------------------------
  alpha Z        PSCENC =       301.66361325
  Ewald energy   TEWEN  =     -3791.66601115
  -Hartree energ DENC   =     -1391.92864831
  -exchange      EXHF   =         0.00000000
  -V(xc)+E(xc)   XCENC  =       461.33511637
  PAW double counting   =      2223.22996543    -2264.45032545
  entropy T*S    EENTRO =         0.00000000
  eigenvalues    EBANDS =      -541.81309652
  atomic energy  EATOM  =      4708.94155045
  ---------------------------------------------------
  free energy    TOTEN  =      -294.68783593 eV

  energy without entropy =     -294.68783593  energy(sigma->0) =     -294.68783593


--------------------------------------------------------------------------------------------------------




----------------------------------------- Iteration    1(  19)  ---------------------------------------


    POTLOK:  cpu time    0.85: real time    1.69
    SETDIJ:  cpu time    0.03: real time    0.06
     EDDAV:  cpu time  288.93: real time  578.15
 BZINTS: Fermi energy:  4.860240;128.000000 electrons
         Band energy:-541.812557;  BLOECHL correction:  0.000000
       DOS:  cpu time    0.04: real time    0.08
    CHARGE:  cpu time    6.41: real time   12.83
    MIXING:  cpu time    0.13: real time    0.26
    --------------------------------------------
      LOOP:  cpu time  296.39: real time  593.10

 eigenvalue-minimisations  : 19044
 total energy-change (2. order) : 0.7363269E-08  (-0.2706880E-05)
 number of electron     127.9999993 magnetization 
 augmentation part        3.0606432 magnetization 

 Broyden mixing:
  rms(total) = 0.97121E-03    rms(broyden)= 0.97117E-03
  rms(prec ) = 0.18496E-02
  weight for this iteration     100.00

 eigenvalues of (default mixing * dielectric matrix)
  average eigenvalue GAMMA=   1.1168
  2.9530  2.5216  2.1905  1.7520  1.5038  1.0193  0.8014  0.6094  0.6094  0.4913
  0.4913  0.2588  0.2304  0.2023

 Free energy of the ion-electron system (eV)
  ---------------------------------------------------
  alpha Z        PSCENC =       301.66361325
  Ewald energy   TEWEN  =     -3791.66601115
  -Hartree energ DENC   =     -1391.92924648
  -exchange      EXHF   =         0.00000000
  -V(xc)+E(xc)   XCENC  =       461.33499425
  PAW double counting   =      2223.19596596    -2264.41614517
  entropy T*S    EENTRO =         0.00000000
  eigenvalues    EBANDS =      -541.81255703
  atomic energy  EATOM  =      4708.94155045
  ---------------------------------------------------
  free energy    TOTEN  =      -294.68783592 eV

  energy without entropy =     -294.68783592  energy(sigma->0) =     -294.68783592


--------------------------------------------------------------------------------------------------------




----------------------------------------- Iteration    1(  20)  ---------------------------------------


    POTLOK:  cpu time    1.03: real time    2.06
    SETDIJ:  cpu time    0.02: real time    0.04
     EDDAV:  cpu time  294.83: real time  589.98
 BZINTS: Fermi energy:  4.860338;128.000000 electrons
         Band energy:-541.789477;  BLOECHL correction:  0.000000
       DOS:  cpu time    0.03: real time    0.07
    CHARGE:  cpu time    6.48: real time   12.97
    MIXING:  cpu time    0.04: real time    0.09
    --------------------------------------------
      LOOP:  cpu time  302.44: real time  605.21

 eigenvalue-minimisations  : 20028
 total energy-change (2. order) :-0.1138114E-04  (-0.1421426E-04)
 number of electron     127.9999993 magnetization 
 augmentation part        3.0606362 magnetization 

 Broyden mixing:
  rms(total) = 0.28376E-02    rms(broyden)= 0.28376E-02
  rms(prec ) = 0.51350E-02
  weight for this iteration     100.00

 eigenvalues of (default mixing * dielectric matrix)
  average eigenvalue GAMMA=   1.0889
  3.0098  2.5825  2.4305  1.8847  1.2062  1.0526  0.7435  0.6225  0.6225  0.5895
  0.4499  0.4499  0.2588  0.2304  0.2001

 Free energy of the ion-electron system (eV)
  ---------------------------------------------------
  alpha Z        PSCENC =       301.66361325
  Ewald energy   TEWEN  =     -3791.66601115
  -Hartree energ DENC   =     -1391.95340191
  -exchange      EXHF   =         0.00000000
  -V(xc)+E(xc)   XCENC  =       461.33636994
  PAW double counting   =      2223.19655571    -2264.41704651
  entropy T*S    EENTRO =         0.00000000
  eigenvalues    EBANDS =      -541.78947709
  atomic energy  EATOM  =      4708.94155045
  ---------------------------------------------------
  free energy    TOTEN  =      -294.68784730 eV

  energy without entropy =     -294.68784730  energy(sigma->0) =     -294.68784730


--------------------------------------------------------------------------------------------------------




----------------------------------------- Iteration    1(  21)  ---------------------------------------


    POTLOK:  cpu time    1.02: real time    2.05
    SETDIJ:  cpu time    0.03: real time    0.06
     EDDAV:  cpu time  321.32: real time  642.96
 BZINTS: Fermi energy:  4.860326;128.000000 electrons
         Band energy:-541.789434;  BLOECHL correction:  0.000000
       DOS:  cpu time    0.03: real time    0.08
    CHARGE:  cpu time    6.41: real time   12.81
    MIXING:  cpu time    0.06: real time    0.11
    --------------------------------------------
      LOOP:  cpu time  328.88: real time  658.10

 eigenvalue-minimisations  : 21516
 total energy-change (2. order) : 0.1284429E-04  (-0.1267467E-04)
 number of electron     127.9999993 magnetization 
 augmentation part        3.0606320 magnetization 

 Broyden mixing:
  rms(total) = 0.23112E-03    rms(broyden)= 0.23084E-03
  rms(prec ) = 0.34631E-03
  weight for this iteration     100.00

 eigenvalues of (default mixing * dielectric matrix)
  average eigenvalue GAMMA=   1.0906
  3.0359  2.5016  2.4721  1.9166  1.3209  1.0717  0.8984  0.8984  0.6142  0.6142
  0.4518  0.4518  0.5127  0.2588  0.2304  0.2002

 Free energy of the ion-electron system (eV)
  ---------------------------------------------------
  alpha Z        PSCENC =       301.66361325
  Ewald energy   TEWEN  =     -3791.66601115
  -Hartree energ DENC   =     -1391.95348050
  -exchange      EXHF   =         0.00000000
  -V(xc)+E(xc)   XCENC  =       461.33631562
[...]
     79      12.6239      0.00000
     80      12.6280      0.00000
     81      12.7708      0.00000
     82      12.7734      0.00000
     83      13.1205      0.00000
     84      13.1220      0.00000

 k-point    75 :       0.3333    0.5000    0.5000
  band No.  band energies     occupation 
      1     -13.5870      2.00000
      2     -13.5868      2.00000
      3     -13.3536      2.00000
      4     -13.3532      2.00000
      5     -12.6151      2.00000
      6     -12.6148      2.00000
      7     -12.3959      2.00000
      8     -12.3955      2.00000
      9     -11.6546      2.00000
     10     -11.6543      2.00000
     11     -11.4495      2.00000
     12     -11.4491      2.00000
     13      -8.9736      2.00000
     14      -8.9731      2.00000
     15      -8.8212      2.00000
     16      -8.8206      2.00000
     17      -7.0963      2.00000
     18      -7.0936      2.00000
     19      -6.9935      2.00000
     20      -6.9909      2.00000
     21      -4.7886      2.00000
     22      -4.7864      2.00000
     23      -4.7078      2.00000
     24      -4.7054      2.00000
     25      -4.6260      2.00000
     26      -4.6246      2.00000
     27      -4.5377      2.00000
     28      -4.5361      2.00000
     29      -3.6481      2.00000
     30      -3.6461      2.00000
     31      -3.5536      2.00000
     32      -3.5515      2.00000
     33      -2.5864      2.00000
     34      -2.5846      2.00000
     35      -2.5248      2.00000
     36      -2.5230      2.00000
     37      -2.0745      2.00000
     38      -2.0733      2.00000
     39      -1.5549      2.00000
     40      -1.5512      2.00000
     41      -1.4952      2.00000
     42      -1.4908      2.00000
     43      -1.0382      2.00000
     44      -1.0355      2.00000
     45      -0.9867      2.00000
     46      -0.9842      2.00000
     47      -0.9276      2.00000
     48      -0.9263      2.00000
     49      -0.6180      2.00000
     50      -0.6165      2.00000
     51      -0.1500      2.00000
     52      -0.1449      2.00000
     53      -0.1104      2.00000
     54      -0.1063      2.00000
     55       0.1886      2.00000
     56       0.1899      2.00000
     57       0.4484      2.00000
     58       0.4499      2.00000
     59       1.4731      2.00000
     60       1.4746      2.00000
     61       3.1047      2.00000
     62       3.1070      2.00000
     63       3.9132      2.00000
     64       3.9161      2.00000
     65       5.9764      0.00000
     66       5.9799      0.00000
     67       6.4037      0.00000
     68       6.4074      0.00000
     69       9.0468      0.00000
     70       9.0488      0.00000
     71       9.5447      0.00000
     72       9.5472      0.00000
     73      10.5148      0.00000
     74      10.5175      0.00000
     75      11.0832      0.00000
     76      11.0847      0.00000
     77      11.4953      0.00000
     78      11.4972      0.00000
     79      12.6214      0.00000
     80      12.6256      0.00000
     81      12.7676      0.00000
     82      12.7708      0.00000
     83      13.1192      0.00000
     84      13.1212      0.00000

 k-point    76 :       0.5000    0.5000    0.5000
  band No.  band energies     occupation 
      1     -13.2643      2.00000
      2     -13.2615      2.00000
      3     -13.2614      2.00000
      4     -13.2586      2.00000
      5     -13.0356      2.00000
      6     -13.0327      2.00000
      7     -13.0327      2.00000
      8     -13.0297      2.00000
      9     -10.4159      2.00000
     10     -10.4141      2.00000
     11     -10.4140      2.00000
     12     -10.4124      2.00000
     13     -10.2302      2.00000
     14     -10.2284      2.00000
     15     -10.2283      2.00000
     16     -10.2265      2.00000
     17      -5.6579      2.00000
     18      -5.6535      2.00000
     19      -5.6531      2.00000
     20      -5.6531      2.00000
     21      -5.5933      2.00000
     22      -5.5894      2.00000
     23      -5.5889      2.00000
     24      -5.5889      2.00000
     25      -4.0616      2.00000
     26      -4.0616      2.00000
     27      -4.0603      2.00000
     28      -4.0578      2.00000
     29      -4.0142      2.00000
     30      -4.0141      2.00000
     31      -4.0127      2.00000
     32      -4.0095      2.00000
     33      -2.5635      2.00000
     34      -2.5631      2.00000
     35      -2.5631      2.00000
     36      -2.5577      2.00000
     37      -2.4784      2.00000
     38      -2.4779      2.00000
     39      -2.4779      2.00000
     40      -2.4716      2.00000
     41      -1.6907      2.00000
     42      -1.6879      2.00000
     43      -1.6878      2.00000
     44      -1.6855      2.00000
     45      -0.2606      2.00000
     46      -0.2573      2.00000
     47      -0.2572      2.00000
     48      -0.2547      2.00000
     49      -0.1492      2.00000
     50      -0.1393      2.00000
     51      -0.1393      2.00000
     52      -0.1378      2.00000
     53      -0.1043      2.00000
     54      -0.0974      2.00000
     55      -0.0974      2.00000
     56      -0.0958      2.00000
     57       1.5928      2.00000
     58       1.5940      2.00000
     59       1.5941      2.00000
     60       1.5974      2.00000
     61       2.7279      2.00000
     62       2.7291      2.00000
     63       2.7293      2.00000
     64       2.7334      2.00000
     65       7.4396      0.00000
     66       7.4443      0.00000
     67       7.4446      0.00000
     68       7.4455      0.00000
     69       7.9140      0.00000
     70       7.9195      0.00000
     71       7.9198      0.00000
     72       7.9207      0.00000
     73      11.6617      0.00000
     74      11.6718      0.00000
     75      11.6740      0.00000
     76      11.6839      0.00000
     77      12.0286      0.00000
     78      12.0399      0.00000
     79      12.0416      0.00000
     80      12.0542      0.00000
     81      12.3457      0.00000
     82      12.3474      0.00000
     83      12.3478      0.00000
     84      12.3529      0.00000


--------------------------------------------------------------------------------------------------------


 soft charge-density along one line, spin component           1
         0         1         2         3         4         5         6         7         8         9
 total charge-density along one line
 
 pseudopotential strength for first ion, spin component:           1
  9.760   0.005  -0.000   0.000  -0.000   0.000  -0.000   0.000
  0.005  -0.002   0.000  -0.000  -0.000   0.000  -0.000   0.000
 -0.000   0.000  -3.935  -0.000  -0.000  -0.015  -0.000  -0.000
  0.000  -0.000  -0.000  -3.928   0.000  -0.000  -0.012   0.000
 -0.000  -0.000  -0.000   0.000  -3.935  -0.000   0.000  -0.015
  0.000   0.000  -0.015  -0.000  -0.000  -0.763  -0.000  -0.000
 -0.000  -0.000  -0.000  -0.012   0.000  -0.000  -0.763   0.000
  0.000   0.000  -0.000   0.000  -0.015  -0.000   0.000  -0.763
 total augmentation occupancy for first ion, spin component:           1
  1.469  -1.121   0.000  -0.000  -0.003   0.000   0.001  -0.001
 -1.121   1.058  -0.000  -0.006   0.003  -0.000  -0.002   0.001
  0.000  -0.000   1.222  -0.000   0.003   0.228   0.000   0.001
 -0.000  -0.006  -0.000   0.926  -0.000   0.000   0.105  -0.000
 -0.003   0.003   0.003  -0.000   1.222   0.001  -0.000   0.228
  0.000  -0.000   0.228   0.000   0.001   0.048   0.000   0.000
  0.001  -0.002   0.000   0.105  -0.000   0.000   0.013  -0.000
 -0.001   0.001   0.001  -0.000   0.228   0.000  -0.000   0.048


------------------------ aborting loop because EDIFF is reached ----------------------------------------


    CHARGE:  cpu time    6.56: real time   13.14
    FORLOC:  cpu time    0.09: real time    0.18
    FORNL :  cpu time   33.64: real time   67.34
    STRESS:  cpu time   63.62: real time  127.32
    FORHAR:  cpu time    0.27: real time    0.55
    MIXING:  cpu time    0.08: real time    0.14
    OFIELD:  cpu time    0.00: real time    0.00

 ---------------------------------------------------------------------------------------------

         DFTD3 V3.0 Rev 1        
 IVDW         = 12
 DF pbe       
 parameters
 VDW_S6       =    1.0000
 VDW_S8       =    0.7875
 VDW_A1       =    0.4289
 VDW_A2       =    4.4407
 k1-k3        =   16.0000    1.3333   -4.0000
 VDW_RADIUS   =   50.2022 A
 VDW_CNRADIUS =   21.1671 A
 Edisp (eV)   -5.13345

 E6    (eV) :    -3.6745
 E8    (eV) :    -1.4590
 % E8        : 28.42
    FORVDW:  cpu time    0.25: real time    0.50

  FORCE on cell =-STRESS in cart. coord.  units (eV):
  Direction    XX          YY          ZZ          XY          YZ          ZX
  --------------------------------------------------------------------------------------
  Alpha Z   301.66361   301.66361   301.66361
  Ewald     512.24182   511.76016 -4815.68519     0.35134     0.00060    -0.00944
  Hartree  1211.68719  1211.69037 -1031.42516     0.10897     0.00027    -0.00230
  E(xc)    -467.83387  -467.84074  -484.66514    -0.00297     0.00004    -0.00011
  Local   -3356.19845 -3355.81896  3946.43472    -0.40052    -0.00009     0.00807
  n-local  -111.66064  -111.77316  -102.59218    -0.09210     0.00070    -0.00159
  augment   -12.36701   -12.36610   -11.33683    -0.00044    -0.00001     0.00006
  Kinetic  1922.50170  1923.26938  2204.96748     0.53529    -0.00941     0.02236
  Fock        0.00000     0.00000     0.00000     0.00000     0.00000     0.00000
  vdW        -0.72771    -0.71746    -6.06572     0.00849    -0.00000    -0.00002
  -------------------------------------------------------------------------------------
  Total      -0.69334    -0.13290     1.29558     0.50806    -0.00791     0.01703
  in kB      -4.01632    -0.76986     7.50491     2.94304    -0.04580     0.09864
  external pressure =        0.91 kB  Pullay stress =        0.00 kB


 VOLUME and BASIS-vectors are now :
 -----------------------------------------------------------------------------
  energy-cutoff  :      800.00
  volume of cell :      276.59
      direct lattice vectors                 reciprocal lattice vectors
     4.932874498 -0.001919286  0.000000000     0.202767147  0.117172881  0.000000000
    -2.468099399  4.271034986  0.000000000     0.000091118  0.234187941  0.000000000
     0.000000000  0.000000000 13.130866442     0.000000000  0.000000000  0.076156437

  length of vectors
     4.932874871  4.932874871 13.130866442     0.234187958  0.234187958  0.076156437


 FORCES acting on ions
    electron-ion (+dipol)            ewald-force                    non-local-force                 convergence-correction
 -----------------------------------------------------------------------------------------------
   -.884E+00 0.637E-01 0.164E+01   0.993E+00 -.587E-01 -.168E+01   0.914E-01 0.298E-02 0.169E+00   -.507E-04 0.854E-05 -.961E-03
   0.864E-01 0.658E-01 -.382E+00   -.115E+00 -.618E-01 0.365E+00   -.241E-01 0.287E-02 0.192E-01   0.625E-04 0.214E-04 -.980E-03
   -.908E-01 -.365E-01 -.381E+00   0.877E-01 0.555E-01 0.365E+00   -.131E-01 0.909E-02 0.192E-01   0.319E-05 -.129E-04 -.978E-03
   -.913E-01 0.169E+00 -.382E+00   0.881E-01 -.179E+00 0.365E+00   -.131E-01 -.356E-02 0.193E-01   0.143E-04 0.452E-04 -.975E-03
   -.114E+00 0.663E-01 0.978E-01   0.107E+00 -.619E-01 -.987E-01   -.468E-02 0.287E-02 -.452E-02   -.124E-03 0.533E-05 0.278E-03
   -.114E+00 0.663E-01 0.968E-01   0.107E+00 -.619E-01 -.977E-01   -.466E-02 0.287E-02 -.457E-02   -.730E-04 0.346E-04 0.275E-03
   -.114E+00 0.663E-01 0.968E-01   0.107E+00 -.618E-01 -.977E-01   -.468E-02 0.287E-02 -.457E-02   -.137E-03 -.162E-04 0.271E-03
   -.114E+00 0.664E-01 0.968E-01   0.107E+00 -.620E-01 -.978E-01   -.468E-02 0.288E-02 -.457E-02   -.471E-04 0.948E-05 0.276E-03
   0.115E+00 -.625E-01 0.793E-01   -.107E+00 0.573E-01 -.830E-01   0.487E-02 -.296E-02 0.469E-02   -.531E-04 0.561E-04 0.422E-02
   0.115E+00 -.713E-01 0.790E-01   -.107E+00 0.663E-01 -.829E-01   0.499E-02 -.313E-02 0.500E-02   -.191E-04 0.212E-04 0.422E-02
   0.122E+00 -.670E-01 0.791E-01   -.115E+00 0.619E-01 -.828E-01   0.508E-02 -.316E-02 0.484E-02   -.105E-04 0.106E-05 0.422E-02
   0.106E+00 -.670E-01 0.142E+00   -.984E-01 0.619E-01 -.146E+00   0.483E-02 -.308E-02 0.439E-02   -.526E-04 0.146E-04 0.422E-02
   0.115E+00 -.613E-01 0.866E-01   -.107E+00 0.571E-01 -.827E-01   0.514E-02 -.267E-02 0.492E-02   -.422E-04 0.383E-04 -.351E-02
   0.115E+00 -.706E-01 0.868E-01   -.107E+00 0.667E-01 -.827E-01   0.499E-02 -.285E-02 0.460E-02   -.377E-04 0.297E-04 -.352E-02
   0.123E+00 -.657E-01 0.868E-01   -.116E+00 0.618E-01 -.827E-01   0.522E-02 -.265E-02 0.476E-02   -.357E-04 0.242E-04 -.352E-02
   0.106E+00 -.657E-01 0.150E+00   -.977E-01 0.617E-01 -.147E+00   0.497E-02 -.273E-02 0.452E-02   -.492E-04 0.270E-04 -.351E-02
   0.194E+00 -.650E-01 -.319E+00   -.185E+00 0.617E-01 0.318E+00   0.401E-02 -.238E-02 -.998E-02   0.203E-04 -.715E-05 -.976E-03
   -.125E+00 -.581E-01 -.840E+00   0.131E+00 0.540E-01 0.873E+00   -.211E-01 -.204E-02 -.787E-01   -.500E-04 -.133E-04 -.987E-03
   0.446E+00 0.265E+00 -.844E+00   -.494E+00 -.300E+00 0.878E+00   -.141E-01 0.167E-02 -.789E-01   0.264E-06 0.168E-04 -.981E-03
   0.456E+00 -.399E+00 -.835E+00   -.504E+00 0.427E+00 0.868E+00   -.130E-01 -.696E-02 -.784E-01   -.199E-04 -.337E-04 -.985E-03
   0.112E+00 -.650E-01 0.970E-01   -.107E+00 0.615E-01 -.976E-01   0.392E-02 -.242E-02 0.119E-02   0.115E-03 0.471E-05 0.272E-03
   0.112E+00 -.650E-01 0.974E-01   -.106E+00 0.615E-01 -.981E-01   0.392E-02 -.242E-02 0.118E-02   0.711E-04 -.593E-04 0.258E-03
   0.112E+00 -.650E-01 0.974E-01   -.107E+00 0.615E-01 -.981E-01   0.392E-02 -.242E-02 0.118E-02   0.136E-03 0.143E-04 0.264E-03
   0.112E+00 -.650E-01 0.974E-01   -.107E+00 0.616E-01 -.981E-01   0.392E-02 -.242E-02 0.117E-02   0.642E-04 -.164E-04 0.271E-03
   -.135E+00 0.761E-01 0.923E-01   0.129E+00 -.719E-01 -.962E-01   -.430E-02 0.260E-02 -.171E-02   0.583E-04 -.538E-04 0.423E-02
   -.901E-01 0.810E-01 0.108E+00   0.836E-01 -.771E-01 -.113E+00   -.430E-02 0.272E-02 -.133E-02   0.178E-04 -.365E-04 0.423E-02
   -.117E+00 0.401E-01 0.100E+00   0.111E+00 -.355E-01 -.104E+00   -.440E-02 0.266E-02 -.153E-02   0.194E-04 0.152E-04 0.424E-02
   -.109E+00 0.658E-01 0.734E-01   0.103E+00 -.616E-01 -.773E-01   -.414E-02 0.266E-02 -.875E-03   0.659E-04 -.136E-04 0.423E-02
   -.899E-01 0.490E-01 0.117E+00   0.834E-01 -.456E-01 -.113E+00   -.420E-02 0.222E-02 -.140E-02   0.509E-04 -.387E-04 -.352E-02
   -.135E+00 0.544E-01 0.997E-01   0.129E+00 -.512E-01 -.957E-01   -.423E-02 0.234E-02 -.175E-02   0.392E-04 -.346E-04 -.352E-02
   -.117E+00 0.904E-01 0.108E+00   0.111E+00 -.878E-01 -.104E+00   -.432E-02 0.230E-02 -.154E-02   0.376E-04 -.169E-04 -.352E-02
   -.109E+00 0.645E-01 0.810E-01   0.103E+00 -.615E-01 -.771E-01   -.405E-02 0.228E-02 -.897E-03   0.469E-04 -.249E-04 -.352E-02
 -----------------------------------------------------------------------------------------------
   -.313E-04 -.302E-06 0.644E-02   -.317E-13 0.805E-15 -.283E-13   -.182E-04 -.705E-05 -.640E-02   0.212E-04 0.987E-05 0.100E-04
 
 
 POSITION                                       TOTAL-FORCE (eV/Angst)
 -----------------------------------------------------------------------------------
      2.46050      0.00044      1.63200         0.202288      0.008015      0.131498
      4.93046     -0.00052      1.64136        -0.054118      0.006995      0.001656
      1.22997      2.13595      1.64136        -0.016550      0.028708      0.001724
      3.69641      2.13499      1.64136        -0.016656     -0.014705      0.001673
      2.46402      0.00044      8.20679        -0.011441      0.007338     -0.005155
      4.93046     -0.00052      8.20679        -0.011481      0.007339     -0.005201
      1.22997      2.13595      8.20679        -0.011462      0.007347     -0.005200
      3.69641      2.13499      8.20679        -0.011471      0.007329     -0.005201
     -1.23163      2.13412      4.92407         0.012358     -0.008207      0.005308
      1.23481      2.13316      4.92407         0.012585     -0.008108      0.005395
     -2.46568      4.26964      4.92407         0.012391     -0.008356      0.005349
      0.00076      4.26868      4.92407         0.012577     -0.008205      0.004407
     -1.23163      2.13412     11.48951         0.013080     -0.006844      0.005356
      1.23481      2.13316     11.48951         0.012833     -0.006762      0.005263
     -2.46568      4.26964     11.48951         0.012888     -0.006576      0.005312
      0.00076      4.26868     11.48951         0.013056     -0.006707      0.004560
     -0.00332      1.42496      1.64136         0.013124     -0.005754     -0.011802
      2.46311      1.42400      1.64136        -0.014773     -0.006248     -0.046291
     -1.23737      3.56047      1.64136        -0.061479     -0.032696     -0.045859
      1.22906      3.55952      1.64136        -0.060867      0.020805     -0.046643
     -0.00332      1.42496      8.20679         0.009150     -0.005955      0.000789
      2.46311      1.42400      8.20679         0.009148     -0.005946      0.000767
     -1.23737      3.56047      8.20679         0.009144     -0.005951      0.000765
      1.22906      3.55952      8.20679         0.009148     -0.005950      0.000763
      1.23571      0.70960      4.92407        -0.010225      0.006796     -0.001355
      3.70215      0.70864      4.92407        -0.010848      0.006673     -0.001405
      0.00166      2.84512      4.92407        -0.010426      0.007254     -0.001394
      2.46810      2.84416      4.92407        -0.010630      0.006913     -0.000504
      1.23571      0.70960     11.48951        -0.010723      0.005652     -0.001425
      3.70215      0.70864     11.48951        -0.009963      0.005522     -0.001331
      0.00166      2.84512     11.48951        -0.010229      0.004919     -0.001344
      2.46810      2.84416     11.48951        -0.010425      0.005363     -0.000473
 -----------------------------------------------------------------------------------
    total drift:                               -0.000028      0.000003      0.000052


--------------------------------------------------------------------------------------------------------



  FREE ENERGIE OF THE ION-ELECTRON SYSTEM (eV)
  ---------------------------------------------------
  free  energy   TOTEN  =      -299.82128012 eV

  energy  without entropy=     -299.82128012  energy(sigma->0) =     -299.82128012
 


--------------------------------------------------------------------------------------------------------


    POTLOK:  cpu time    0.97: real time    1.93


--------------------------------------------------------------------------------------------------------


     LOOP+:  cpu time 7983.00: real time15967.62
    4ORBIT:  cpu time    0.00: real time    0.00
 BZINTS: Fermi energy:  4.860224;128.000000 electrons
         Band energy:-541.789927;  BLOECHL correction:  0.000000

 total amount of memory used by VASP on root node   398531. kBytes
========================================================================

   base      :      30000. kBytes
   nonl-proj :      76672. kBytes
   fftplans  :      14247. kBytes
   grid      :      30326. kBytes
   one-center:         98. kBytes
   wavefun   :     247188. kBytes
 
  
  
 General timing and accounting informations for this job:
 ========================================================
  
                  Total CPU time used (sec):     8070.084
                            User time (sec):     4087.177
                          System time (sec):     3982.908
                         Elapsed time (sec):    16142.158
  
                   Maximum memory used (kb):      487220.
                   Average memory used (kb):           0.
  
                          Minor page faults:     52341596
                          Major page faults:            0
                 Voluntary context switches:         1048
