   32   32    1    1
  0.5760957E+01  0.4934311E-09  0.4934311E-09  0.8743465E-09  0.5000000E-15
  1.000000000000000E-004
  CAR 
 graphite                                
    128    163     84
 
  0.0000000E+00  0.0000000E+00  0.0000000E+00  0.3086420E-02
    1      -12.075835
    2      -10.668877
    3      -10.663801
    4       -8.154979
    5       -6.400138
    6       -6.399077
    7       -6.398683
    8       -5.578447
    9       -5.576776
   10       -5.574584
   11       -5.250099
   12       -5.244779
   13       -5.243721
   14       -5.242961
   15       -5.241836
   16       -5.236419
   17       -4.201794
   18       -4.199239
   19       -4.197098
   20       -4.196924
   21       -4.194154
   22       -4.192300
   23       -2.912280
   24       -2.911283
   25       -2.909806
   26       -2.644338
   27       -2.642816
   28       -2.641386
   29       -2.173083
   30        2.254776
   31        2.257545
   32        2.258760
   33        2.938113
   34        2.940140
   35        2.942931
   36        2.943791
   37        2.944752
   38        2.946300
   39        2.947016
   40        2.949936
   41        3.731270
   42        3.734328
   43        3.735975
   44        3.778926
   45        3.779514
   46        3.780096
   47        6.038123
   48        6.042925
   49        6.360904
   50        6.366024
   51        6.371004
   52        6.375233
   53        6.519297
   54        6.522258
   55        6.523486
   56        6.683550
   57        6.689761
   58        7.659891
   59        7.672741
   60        7.673069
   61        7.674493
   62        7.674946
   63        7.687611
   64        8.528807
   65       11.174426
   66       11.186640
   67       11.187663
   68       11.189108
   69       11.189765
   70       11.202059
   71       13.557385
   72       13.559404
   73       13.561414
   74       14.537578
   75       14.542468
   76       14.545872
   77       14.682240
   78       14.684375
   79       14.686839
   80       16.703885
   81       16.711103
   82       16.713856
   83       16.717707
   84       16.726644
 
  0.1111111E+00 -0.1387779E-16  0.0000000E+00  0.6172840E-02
    1      -11.998437
    2      -10.593435
    3      -10.588366
    4       -8.087480
    5       -7.279880
    6       -6.684682
    7       -6.682650
    8       -6.031556
    9       -6.027057
   10       -5.481736
   11       -5.477175
   12       -5.475255
   13       -5.473393
   14       -5.181209
   15       -5.177785
   16       -4.710330
   17       -3.842132
   18       -3.840170
   19       -3.837935
   20       -3.835221
   21       -3.703192
   22       -3.303115
   23       -3.298479
   24       -3.267517
   25       -3.265107
   26       -2.165505
   27       -2.163159
   28       -2.081769
   29       -1.619518
   30        1.990954
   31        1.993854
   32        2.333383
   33        2.695907
   34        2.699794
   35        2.701949
   36        2.703191
   37        3.015687
   38        3.015972
   39        3.020333
   40        3.022980
   41        3.172169
   42        3.541801
   43        3.545015
   44        3.660398
   45        3.661792
   46        3.804322
   47        5.660271
   48        5.831614
   49        6.055411
   50        6.063022
   51        6.207279
   52        6.215035
   53        6.456381
   54        6.592582
   55        6.779968
   56        6.783520
   57        7.212723
   58        7.298785
   59        7.308218
   60        7.620164
   61        7.630470
   62        7.632121
   63        7.638901
   64        8.589125
   65       11.308116
   66       11.315104
   67       11.317473
   68       11.327381
   69       11.619729
   70       11.629748
   71       13.154449
   72       13.225651
   73       13.227913
   74       14.601582
   75       14.829722
   76       14.833308
   77       14.931107
   78       14.937404
   79       15.190066
   80       16.796779
   81       16.802157
   82       17.032026
   83       17.036627
   84       17.056198
 
  0.2222222E+00 -0.1387779E-16  0.0000000E+00  0.6172840E-02
    1      -11.766474
    2      -10.367480
    3      -10.362434
    4       -8.359316
    5       -7.885551
    6       -7.069997
    7       -7.067068
    8       -7.062742
    9       -7.058612
   10       -5.830671
   11       -5.826937
   12       -5.824797
   13       -5.822667
   14       -4.974675
   15       -4.522822
   16       -4.518167
   17       -3.526638
   18       -3.523988
   19       -3.126406
   20       -3.124278
   21       -3.122147
   22       -3.119162
   23       -2.956429
   24       -1.942210
   25       -1.937672
   26       -1.809008
   27       -1.500632
   28       -1.498039
   29       -0.378290
   30        1.311438
   31        1.314023
   32        2.046788
   33        2.051293
   34        2.052910
   35        2.054649
   36        2.088816
   37        2.557693
   38        3.021116
   39        3.024160
   40        3.232126
   41        3.236405
   42        3.240488
   43        3.247407
   44        3.416417
   45        3.418413
   46        4.009476
   47        4.671113
   48        5.219758
   49        5.226457
   50        5.315182
   51        5.783403
   52        5.786959
   53        5.793073
   54        6.286585
   55        6.515560
   56        6.523883
   57        7.445892
   58        7.449788
   59        7.521684
   60        7.531756
   61        7.533291
   62        7.540304
   63        8.466937
   64        8.766018
   65       11.616926
   66       11.624191
   67       11.626919
   68       11.637102
   69       12.481883
   70       12.484680
   71       12.588832
   72       12.598264
   73       12.654487
   74       14.781226
   75       15.030308
   76       15.034835
   77       16.003766
   78       16.009702
   79       16.076887
   80       16.896235
   81       17.059846
   82       17.064330
   83       17.085002
   84       17.092455
 
  0.3333333E+00 -0.2775558E-16  0.0000000E+00  0.6172840E-02
    1      -11.381025
    2       -9.992196
    3       -9.987190
    4       -9.326507
    5       -7.998107
    6       -7.993305
    7       -7.550217
    8       -7.346010
    9       -7.343887
   10       -6.091738
   11       -6.088343
   12       -6.086089
   13       -6.083895
   14       -5.775402
   15       -4.215291
   16       -4.211086
   17       -3.191627
   18       -3.189503
   19       -2.290440
   20       -2.288296
   21       -2.286271
   22       -2.282999
   23       -1.452508
   24       -1.356739
   25       -0.908290
   26       -0.905289
   27       -0.477602
   28       -0.473133
   29        0.549163
   30        0.551313
   31        0.928891
   32        1.017112
   33        1.180928
   34        1.185037
   35        1.185979
   36        1.188256
   37        2.287317
   38        2.290109
   39        2.923564
   40        3.196124
   41        3.198460
   42        3.309808
   43        3.523192
   44        3.528598
   45        3.583253
   46        3.588044
   47        4.113393
   48        4.118847
   49        4.340460
   50        4.669216
   51        4.783234
   52        5.214930
   53        5.221340
   54        5.668335
   55        5.676141
   56        5.819392
   57        7.421318
   58        7.431525
   59        7.432970
   60        7.439943
   61        8.348892
   62        8.352607
   63        9.042848
   64        9.452234
   65       11.535355
   66       11.538606
   67       11.953943
   68       11.961491
   69       11.964353
   70       11.974996
   71       12.672194
   72       13.699184
   73       13.707737
   74       15.074353
   75       15.145856
   76       15.151173
   77       16.447620
   78       16.489069
   79       16.495871
   80       16.619329
   81       17.058490
   82       17.498996
   83       17.518267
   84       17.547733
 
  0.4444444E+00 -0.2775558E-16  0.0000000E+00  0.6172840E-02
    1      -10.843655
    2      -10.157288
    3       -9.469759
    4       -9.464802
    5       -8.803145
    6       -8.798256
    7       -7.488061
    8       -7.485958
    9       -7.083515
   10       -6.489323
   11       -6.227112
   12       -6.223862
   13       -6.221554
   14       -6.219324
   15       -4.246102
   16       -4.242881
   17       -2.405901
   18       -2.403688
   19       -1.519824
   20       -1.518321
   21       -1.516482
   22       -1.512130
   23       -1.082058
   24       -1.079047
   25       -0.728978
   26        0.067083
   27        0.145879
   28        0.368404
   29        0.372498
   30        0.374096
   31        0.375874
   32        0.569658
   33        0.571846
   34        1.030985
   35        1.035567
   36        1.500967
   37        1.503438
   38        1.760767
   39        2.262781
   40        2.516440
   41        2.521282
   42        3.073447
   43        3.075814
   44        3.416759
   45        3.572208
   46        4.012244
   47        4.052819
   48        4.058365
   49        4.237066
   50        4.244479
   51        4.612475
   52        4.618083
   53        4.778214
   54        4.888720
   55        4.896290
   56        5.289272
   57        7.361257
   58        7.371359
   59        7.372770
   60        7.379804
   61        9.373420
   62        9.376567
   63        9.378724
   64        9.641980
   65       10.487386
   66       10.490962
   67       12.170499
   68       12.178267
   69       12.181125
   70       12.191986
   71       13.637036
   72       14.766339
   73       14.774498
   74       15.119162
   75       15.189316
   76       15.195049
   77       15.469307
   78       15.706360
   79       15.713795
   80       15.942476
   81       18.085177
   82       18.090022
   83       18.095159
   84       18.741786
 
  0.1694066E-20  0.1111111E+00  0.0000000E+00  0.6172840E-02
    1      -11.998435
    2      -10.593433
    3      -10.588364
    4       -8.087475
    5       -7.279870
    6       -6.685433
    7       -6.681818
    8       -6.031668
    9       -6.027182
   10       -5.481486
   11       -5.477292
   12       -5.476096
   13       -5.471807
   14       -5.181388
   15       -5.177798
   16       -4.710875
   17       -3.844469
   18       -3.840464
   19       -3.838754
   20       -3.834740
   21       -3.701420
   22       -3.301379
   23       -3.297531
   24       -3.269072
   25       -3.264933
   26       -2.167320
   27       -2.162689
   28       -2.081774
   29       -1.618336
   30        1.992601
   31        1.993856
   32        2.331772
   33        2.697925
   34        2.699678
   35        2.702430
   36        2.704196
   37        3.014501
   38        3.015709
   39        3.018189
   40        3.023113
   41        3.171680
   42        3.543597
   43        3.545054
   44        3.660062
   45        3.662754
   46        3.802434
   47        5.663662
   48        5.828147
   49        6.061831
   50        6.063745
   51        6.206617
   52        6.208452
   53        6.460321
   54        6.588607
   55        6.779899
   56        6.784190
   57        7.211915
   58        7.297785
   59        7.306638
   60        7.621601
   61        7.630370
   62        7.631936
   63        7.640904
   64        8.589096
   65       11.305430
   66       11.314499
   67       11.316926
   68       11.325744
   69       11.622627
   70       11.631545
   71       13.156646
   72       13.223926
   73       13.228422
   74       14.600716
   75       14.828645
   76       14.831852
   77       14.933014
   78       14.936428
   79       15.191641
   80       16.796073
   81       16.801300
   82       17.034561
   83       17.038901
   84       17.111392
 
  0.1111111E+00  0.1111111E+00  0.0000000E+00  0.6172840E-02
    1      -11.843742
    2      -10.442695
    3      -10.437641
    4       -7.952778
    5       -7.778049
    6       -7.774159
    7       -6.507205
    8       -6.501741
    9       -6.501148
   10       -6.496195
   11       -6.197946
   12       -5.369197
   13       -5.053187
   14       -5.049168
   15       -4.579437
   16       -4.574715
   17       -4.006003
   18       -4.000998
   19       -3.535903
   20       -3.531875
   21       -2.739742
   22       -2.602260
   23       -2.595832
   24       -2.595375
   25       -2.591484
   26       -2.505450
   27       -1.899776
   28       -0.983881
   29       -0.979080
   30        1.226284
   31        1.974267
   32        1.978473
   33        2.145677
   34        2.148978
   35        2.703626
   36        2.706622
   37        2.843753
   38        2.845379
   39        2.846172
   40        2.851726
   41        2.953762
   42        3.166959
   43        3.173985
   44        3.679849
   45        3.683760
   46        4.019471
   47        5.050887
   48        5.362470
   49        5.514228
   50        5.521492
   51        5.884392
   52        5.892047
   53        6.100991
   54        6.329387
   55        6.760248
   56        6.982732
   57        6.990506
   58        6.990994
   59        7.000129
   60        7.885893
   61        7.889503
   62        7.906217
   63        7.916353
   64        8.707833
   65       11.177743
   66       11.188757
   67       12.076628
   68       12.086692
   69       12.087710
   70       12.094637
   71       12.677413
   72       12.742147
   73       12.746044
   74       14.761149
   75       15.050015
   76       15.055453
   77       15.520407
   78       15.523083
   79       15.949097
   80       17.173772
   81       17.199188
   82       17.204637
   83       17.224120
   84       17.266164
 
  0.2222222E+00  0.1111111E+00  0.0000000E+00  0.6172840E-02
    1      -11.535026
    2      -10.142079
    3      -10.137057
    4       -8.803607
    5       -8.139946
    6       -7.684149
    7       -7.492519
    8       -7.487790
    9       -6.852585
   10       -6.847939
   11       -6.271101
   12       -5.333682
   13       -5.085008
   14       -5.080771
   15       -4.790000
   16       -4.780111
   17       -3.479319
   18       -3.474428
   19       -2.944881
   20       -2.785863
   21       -2.184380
   22       -1.934256
   23       -1.792680
   24       -1.788937
   25       -1.537264
   26       -1.184963
   27       -1.180607
   28       -0.321319
   29        0.278649
   30        0.280916
   31        1.016968
   32        1.021205
   33        1.581154
   34        1.605986
   35        2.146280
   36        2.276003
   37        2.278659
   38        2.341072
   39        2.456810
   40        3.133415
   41        3.137789
   42        3.228738
   43        3.446775
   44        3.453432
   45        3.951712
   46        3.953810
   47        4.134930
   48        4.571673
   49        4.578921
   50        4.638025
   51        5.329925
   52        5.337565
   53        5.385915
   54        5.884309
   55        6.146266
   56        6.154262
   57        6.739737
   58        6.747897
   59        7.252913
   60        8.091540
   61        8.101588
   62        8.704880
   63        8.936062
   64        9.100671
   65       11.192362
   66       11.203025
   67       11.683212
   68       12.163152
   69       12.455756
   70       12.590134
   71       12.598728
   72       13.157593
   73       13.166238
   74       14.874861
   75       15.289262
   76       15.663659
   77       16.181385
   78       16.410424
   79       16.871486
   80       16.879413
   81       16.985235
   82       17.121327
   83       17.434308
   84       17.537242
 
  0.3333333E+00  0.1111111E+00  0.0000000E+00  0.6172840E-02
    1      -11.073599
    2       -9.703848
    3       -9.692879
    4       -9.687814
    5       -8.364782
    6       -8.360114
    7       -8.356595
    8       -7.283061
    9       -7.065207
   10       -7.060529
   11       -6.438192
   12       -6.097860
   13       -5.226900
   14       -5.222531
   15       -4.957652
   16       -3.955907
   17       -3.093939
   18       -2.673405
   19       -2.668578
   20       -1.902350
   21       -1.601334
   22       -0.997655
   23       -0.970028
   24       -0.966187
   25       -0.630284
   26       -0.286362
   27       -0.024048
   28        0.024574
   29        0.028922
   30        0.294579
   31        0.298910
   32        0.589981
   33        1.197679
   34        1.250785
   35        1.524261
   36        1.527294
   37        1.569969
   38        2.113564
   39        2.531791
   40        2.573790
   41        2.918192
   42        3.159231
   43        3.164751
   44        3.552062
   45        3.556577
   46        3.826770
   47        4.046972
   48        4.054192
   49        4.114233
   50        4.341187
   51        4.424311
   52        4.700578
   53        4.707352
   54        5.324957
   55        5.332619
   56        5.359391
   57        6.583406
   58        6.591431
   59        8.116039
   60        8.181792
   61        8.191150
   62        9.248131
   63        9.576649
   64        9.693378
   65       10.539182
   66       11.274801
   67       11.284654
   68       11.462563
   69       12.956957
   70       12.989192
   71       12.997804
   72       14.274356
   73       14.282729
   74       14.978072
   75       15.631735
   76       15.669298
   77       15.760917
   78       16.189472
   79       16.197441
   80       16.541429
   81       17.386627
   82       17.770832
   83       18.015980
   84       18.020745
 
  0.4444444E+00  0.1111111E+00  0.0000000E+00  0.6172840E-02
    1      -10.463648
    2      -10.459922
    3       -9.101643
    4       -9.096801
    5       -9.095967
    6       -9.090660
    7       -8.434798
    8       -7.136527
    9       -7.131841
   10       -6.754639
   11       -6.750521
   12       -6.500857
   13       -5.283146
   14       -5.278744
   15       -5.017204
   16       -3.537086
   17       -3.012966
   18       -2.153711
   19       -2.149592
   20       -1.927150
   21       -1.280299
   22       -0.555816
   23       -0.552139
   24       -0.487264
   25       -0.482701
   26       -0.394199
   27       -0.286260
   28       -0.282722
   29        0.056003
   30        0.574952
   31        0.965320
   32        0.969270
   33        1.051624
   34        1.056093
   35        1.505061
   36        1.775949
   37        1.782857
   38        1.784459
   39        1.785332
   40        2.036381
   41        2.041603
   42        2.804550
   43        2.808547
   44        3.548472
   45        3.554008
   46        4.077285
   47        4.079192
   48        4.079508
   49        4.088476
   50        4.095133
   51        4.603990
   52        4.610594
   53        4.611283
   54        4.619603
   55        4.820457
   56        4.827552
   57        6.529912
   58        6.537930
   59        8.206481
   60        8.215419
   61        8.901122
   62        9.572882
   63        9.577062
   64        9.665554
   65       10.201979
   66       10.899768
   67       11.319021
   68       11.328095
   69       13.140828
   70       13.149954
   71       14.256395
   72       14.262354
   73       15.015296
   74       15.301607
   75       15.310962
   76       15.312833
   77       15.317088
   78       15.653514
   79       16.059964
   80       16.063957
   81       18.430838
   82       18.446047
   83       18.572757
   84       18.578520
 
 -0.4444444E+00  0.1111111E+00  0.0000000E+00  0.6172840E-02
    1      -11.073682
    2       -9.703730
    3       -9.692955
    4       -9.687889
    5       -8.363491
    6       -8.360713
    7       -8.357216
    8       -7.283161
    9       -7.065479
   10       -7.060794
   11       -6.437932
   12       -6.097740
   13       -5.226516
   14       -5.222155
   15       -4.957938
   16       -3.953976
   17       -3.095356
   18       -2.672298
   19       -2.668764
   20       -1.903136
   21       -1.601222
   22       -0.997749
   23       -0.971573
   24       -0.966336
   25       -0.630619
   26       -0.286579
   27       -0.023914
   28        0.024421
   29        0.027355
   30        0.294051
   31        0.298687
   32        0.590132
   33        1.197996
   34        1.249990
   35        1.524414
   36        1.529344
   37        1.569299
   38        2.113374
   39        2.531935
   40        2.574917
   41        2.918877
   42        3.160463
   43        3.164426
   44        3.552170
   45        3.557238
   46        3.827461
   47        4.046821
   48        4.054012
   49        4.114336
   50        4.341588
   51        4.423573
   52        4.700987
   53        4.705909
   54        5.325050
   55        5.332735
   56        5.358898
   57        6.583049
   58        6.591178
   59        8.118803
   60        8.182586
   61        8.191574
   62        9.247969
   63        9.573625
   64        9.693334
   65       10.536619
   66       11.274785
   67       11.283580
   68       11.465528
   69       12.957636
   70       12.989160
   71       12.998220
   72       14.273969
   73       14.282635
   74       14.977699
   75       15.631442
   76       15.669581
   77       15.760515
   78       16.189960
   79       16.197132
   80       16.541544
   81       17.385566
   82       17.774413
   83       18.015617
   84       18.020498
 
 -0.3333333E+00  0.1111111E+00  0.0000000E+00  0.6172840E-02
    1      -11.535085
    2      -10.142138
    3      -10.137115
    4       -8.803448
    5       -8.140317
    6       -7.684200
    7       -7.492369
    8       -7.487635
    9       -6.852989
   10       -6.848340
   11       -6.270520
   12       -5.333560
   13       -5.084054
   14       -5.079914
   15       -4.790329
   16       -4.779037
   17       -3.478377
   18       -3.475024
   19       -2.945521
   20       -2.786371
   21       -2.184639
   22       -1.933895
   23       -1.793949
   24       -1.789292
   25       -1.537336
   26       -1.185354
   27       -1.180861
   28       -0.321902
   29        0.277625
   30        0.280424
   31        1.016486
   32        1.019424
   33        1.582507
   34        1.606181
   35        2.145303
   36        2.276453
   37        2.280920
   38        2.340700
   39        2.457247
   40        3.133594
   41        3.138292
   42        3.229767
   43        3.446731
   44        3.453364
   45        3.951209
   46        3.954768
   47        4.135197
   48        4.573811
   49        4.577772
   50        4.638130
   51        5.331256
   52        5.335148
   53        5.385829
   54        5.883684
   55        6.146371
   56        6.154441
   57        6.738981
   58        6.747353
   59        7.255649
   60        8.093111
   61        8.102451
   62        8.701819
   63        8.935954
   64        9.100451
   65       11.192171
   66       11.201239
   67       11.680707
   68       12.165917
   69       12.456521
   70       12.590233
   71       12.599728
   72       13.157201
   73       13.166149
   74       14.874092
   75       15.289030
   76       15.664353
   77       16.184968
   78       16.409368
   79       16.872273
   80       16.878042
   81       16.984409
   82       17.119527
   83       17.431526
   84       17.539726
 
 -0.2222222E+00  0.1111111E+00  0.0000000E+00  0.6172840E-02
    1      -11.843777
    2      -10.442730
    3      -10.437676
    4       -7.952828
    5       -7.776621
    6       -7.775951
    7       -6.505844
    8       -6.502354
    9       -6.501197
   10       -6.497813
   11       -6.196922
   12       -5.368211
   13       -5.051415
   14       -5.047887
   15       -4.578819
   16       -4.576610
   17       -4.005108
   18       -4.002705
   19       -3.534996
   20       -3.532719
   21       -2.739370
   22       -2.600307
   23       -2.597552
   24       -2.595809
   25       -2.592858
   26       -2.506025
   27       -1.899819
   28       -0.982515
   29       -0.981302
   30        1.225019
   31        1.973748
   32        1.976481
   33        2.147989
   34        2.148462
   35        2.704412
   36        2.705502
   37        2.844764
   38        2.845905
   39        2.849115
   40        2.850335
   41        2.952718
   42        3.166926
   43        3.173931
   44        3.682019
   45        3.682878
   46        4.019861
   47        5.050881
   48        5.362533
   49        5.517276
   50        5.519231
   51        5.886906
   52        5.888587
   53        6.101670
   54        6.328511
   55        6.763087
   56        6.982143
   57        6.990352
   58        6.991040
   59        6.999069
   60        7.883951
   61        7.887931
   62        7.908263
   63        7.917719
   64        8.707757
   65       11.177336
   66       11.186664
   67       12.077540
   68       12.086265
   69       12.087242
   70       12.095892
   71       12.675251
   72       12.743894
   73       12.747459
   74       14.759904
   75       15.053065
   76       15.055866
   77       15.519780
   78       15.523864
   79       15.945184
   80       17.175891
   81       17.202978
   82       17.208111
   83       17.220100
   84       17.262300
 
 -0.1111111E+00  0.1111111E+00  0.0000000E+00  0.6172840E-02
    1      -11.998447
    2      -10.593444
    3      -10.588375
    4       -8.087487
    5       -7.280624
    6       -6.683982
    7       -6.682135
    8       -6.032539
    9       -6.028048
   10       -5.479453
   11       -5.477614
   12       -5.475721
   13       -5.471163
   14       -5.180693
   15       -5.177472
   16       -4.712613
   17       -3.843589
   18       -3.840503
   19       -3.838239
   20       -3.836539
   21       -3.700900
   22       -3.302299
   23       -3.297694
   24       -3.267858
   25       -3.265504
   26       -2.166463
   27       -2.163872
   28       -2.081789
   29       -1.618598
   30        1.991140
   31        1.994013
   32        2.333248
   33        2.697663
   34        2.699050
   35        2.699927
   36        2.705105
   37        3.015088
   38        3.016235
   39        3.019942
   40        3.022895
   41        3.171123
   42        3.541984
   43        3.545567
   44        3.661018
   45        3.662431
   46        3.803609
   47        5.663461
   48        5.828315
   49        6.059223
   50        6.066854
   51        6.203417
   52        6.211090
   53        6.460957
   54        6.587969
   55        6.782468
   56        6.784252
   57        7.208990
   58        7.296353
   59        7.305659
   60        7.623557
   61        7.630241
   62        7.631770
   63        7.642356
   64        8.589070
   65       11.304401
   66       11.314819
   67       11.316919
   68       11.323768
   69       11.623082
   70       11.633285
   71       13.158553
   72       13.224421
   73       13.226657
   74       14.604436
   75       14.827477
   76       14.830799
   77       14.930241
   78       14.935329
   79       15.193169
   80       16.799206
   81       16.804693
   82       17.029487
   83       17.036263
   84       17.118332
 
  0.1694066E-20  0.2222222E+00  0.0000000E+00  0.6172840E-02
    1      -11.766465
    2      -10.367471
    3      -10.362424
    4       -8.359245
    5       -7.885545
    6       -7.070924
    7       -7.066847
    8       -7.062571
    9       -7.058072
   10       -5.831241
   11       -5.826917
   12       -5.825568
   13       -5.821129
   14       -4.974900
   15       -4.521999
   16       -4.518443
   17       -3.527985
   18       -3.524347
   19       -3.128912
   20       -3.124580
   21       -3.122777
   22       -3.118444
   23       -2.954918
   24       -1.940718
   25       -1.936907
   26       -1.809024
   27       -1.502710
   28       -1.497662
   29       -0.376982
   30        1.312775
   31        1.314687
   32        2.048337
   33        2.051304
   34        2.053509
   35        2.055877
   36        2.088592
   37        2.556016
   38        3.022338
   39        3.024748
   40        3.231199
   41        3.233470
   42        3.240613
   43        3.247438
   44        3.415775
   45        3.419697
   46        4.007481
   47        4.674021
   48        5.224912
   49        5.227242
   50        5.312448
   51        5.780478
   52        5.783851
   53        5.795927
   54        6.282916
   55        6.514976
   56        6.523073
   57        7.445505
   58        7.450718
   59        7.522873
   60        7.531620
   61        7.533118
   62        7.542338
   63        8.465316
   64        8.765885
   65       11.614304
   66       11.623758
   67       11.626289
   68       11.635595
   69       12.480680
   70       12.485620
   71       12.591073
   72       12.599490
   73       12.657092
   74       14.780306
   75       15.029415
   76       15.032074
   77       16.005188
   78       16.009437
   79       16.078301
   80       16.893124
   81       17.059389
   82       17.064061
   83       17.083834
   84       17.087916
 
  0.1111111E+00  0.2222222E+00  0.0000000E+00  0.6172840E-02
    1      -11.535019
    2      -10.142071
    3      -10.137048
    4       -8.803530
    5       -8.140035
    6       -7.684109
    7       -7.492478
    8       -7.487749
    9       -6.852633
   10       -6.847987
   11       -6.271118
   12       -5.333755
   13       -5.084991
   14       -5.080761
   15       -4.789171
   16       -4.780709
   17       -3.479335
   18       -3.474619
   19       -2.944596
   20       -2.787407
   21       -2.183016
   22       -1.934920
   23       -1.794213
   24       -1.789873
   25       -1.537275
   26       -1.183366
   27       -1.179665
   28       -0.323022
   29        0.279895
   30        0.281686
   31        1.017151
   32        1.021231
   33        1.583091
   34        1.605748
   35        2.146318
   36        2.277036
   37        2.281215
   38        2.341411
   39        2.454876
   40        3.132461
   41        3.134919
   42        3.230630
   43        3.446771
   44        3.453414
   45        3.949684
   46        3.955674
   47        4.135061
   48        4.574372
   49        4.579095