 running on    6 total cores
 distrk:  each k-point on    6 cores,    1 groups
 distr:  one band on    1 cores,    6 groups
 using from now: INCAR     
 vasp.5.3.5 31Mar14 (build Nov 02 2014 15:17:37) complex                        
  
 POSCAR found :  1 types and      32 ions
 scaLAPACK will be used

 ----------------------------------------------------------------------------- 
|                                                                             |
|           W    W    AA    RRRRR   N    N  II  N    N   GGGG   !!!           |
|           W    W   A  A   R    R  NN   N  II  NN   N  G    G  !!!           |
|           W    W  A    A  R    R  N N  N  II  N N  N  G       !!!           |
|           W WW W  AAAAAA  RRRRR   N  N N  II  N  N N  G  GGG   !            |
|           WW  WW  A    A  R   R   N   NN  II  N   NN  G    G                |
|           W    W  A    A  R    R  N    N  II  N    N   GGGG   !!!           |
|                                                                             |
|      For optimal performance we recommend to set                            |
|        NCORE= 4 - approx SQRT( number of cores)                             |
|      NCORE specifies how many cores store one orbital (NPAR=cpu/NCORE).     |
|      This setting can  greatly improve the performance of VASP for DFT.     |
|      The default, NPAR=number of cores might be grossly inefficient         |
|      on modern multi-core architectures or massively parallel machines.     |
|      Do your own testing !!!!                                               |
|      Unfortunately you need to use the default for GW and RPA calculations. |
|      (for HF NCORE is supported but not extensively tested yet)             |
|                                                                             |
 ----------------------------------------------------------------------------- 


 ----------------------------------------------------------------------------- 
|                                                                             |
|  ADVICE TO THIS USER RUNNING 'VASP/VAMP'   (HEAR YOUR MASTER'S VOICE ...):  |
|                                                                             |
|      You have a (more or less) 'large supercell' and for larger cells       |
|      it might be more efficient to use real space projection operators      |
|      So try LREAL= Auto  in the INCAR   file.                               |
|      Mind: If you want to do a very accurate calculations keep the          |
|      reciprocal projection scheme          (i.e. LREAL=.FALSE.)             |
|                                                                             |
 ----------------------------------------------------------------------------- 

 LDA part: xc-table for Pade appr. of Perdew
 POSCAR, INCAR and KPOINTS ok, starting setup
 WARNING: small aliasing (wrap around) errors must be expected
 FFT: planning ...
 WAVECAR not read
 WARNING: random wavefunctions but no delay for mixing, default for NELMDL
 entering main loop
       N       E                     dE             d eps       ncg     rms          rms(c)
DAV:   1     0.462578622032E+03    0.46258E+03   -0.76266E+04 27384   0.168E+03
DAV:   2    -0.250184322824E+03   -0.71276E+03   -0.68264E+03 34248   0.304E+02
DAV:   3    -0.286259459222E+03   -0.36075E+02   -0.35552E+02 33612   0.641E+01
DAV:   4    -0.286821362769E+03   -0.56190E+00   -0.56010E+00 33144   0.869E+00
DAV:   5    -0.286833726584E+03   -0.12364E-01   -0.12357E-01 33300   0.119E+00    0.219E+01
DAV:   6    -0.275512583956E+03    0.11321E+02   -0.96891E+00 31092   0.983E+00    0.116E+01
DAV:   7    -0.271897269339E+03    0.36153E+01   -0.96724E+00 29484   0.100E+01    0.156E+00
DAV:   8    -0.271923371485E+03   -0.26102E-01   -0.22390E-01 32184   0.154E+00    0.533E-01
DAV:   9    -0.271925887531E+03   -0.25160E-02   -0.56091E-03 32496   0.319E-01    0.668E-02
DAV:  10    -0.271926019510E+03   -0.13198E-03   -0.20322E-04 33612   0.506E-02    0.301E-02
DAV:  11    -0.271926066774E+03   -0.47264E-04   -0.53245E-05 31164   0.303E-02    0.420E-03
DAV:  12    -0.271926067228E+03   -0.45389E-06   -0.16750E-06 20796   0.524E-03
   1 F= -.27555499E+03 E0= -.27554574E+03  d E =-.185041E-01
