  80  80   0   0
  0.1059341E+02  0.1201214E-08  0.8402103E-09  0.8396871E-09  0.5000000E-15
  1.000000000000000E-004
  CAR 
 diamond                                 
      8.28500976    -16.88647873  301     -6.52421597      1.00000000
    -16.886  0.0000E+00  0.0000E+00
    -16.803  0.0000E+00  0.0000E+00
    -16.719  0.0000E+00  0.0000E+00
    -16.635  0.0000E+00  0.0000E+00
    -16.551  0.0000E+00  0.0000E+00
    -16.467  0.0000E+00  0.0000E+00
    -16.383  0.0000E+00  0.0000E+00
    -16.299  0.0000E+00  0.0000E+00
    -16.215  0.0000E+00  0.0000E+00
    -16.131  0.0000E+00  0.0000E+00
    -16.047  0.0000E+00  0.0000E+00
    -15.964  0.0000E+00  0.0000E+00
    -15.880  0.0000E+00  0.0000E+00
    -15.796  0.0000E+00  0.0000E+00
    -15.712  0.0000E+00  0.0000E+00
    -15.628  0.0000E+00  0.0000E+00
    -15.544  0.0000E+00  0.0000E+00
    -15.460  0.0000E+00  0.0000E+00
    -15.376  0.0000E+00  0.0000E+00
    -15.292  0.0000E+00  0.0000E+00
    -15.208  0.0000E+00  0.0000E+00
    -15.124  0.0000E+00  0.0000E+00
    -15.041  0.0000E+00  0.0000E+00
    -14.957  0.0000E+00  0.0000E+00
    -14.873  0.1092E-01  0.4993E-04
    -14.789  0.1183E+00  0.5824E-02
    -14.705  0.1350E+00  0.2053E-01
    -14.621  0.4987E+00  0.4376E-01
    -14.537  0.7199E+00  0.9436E-01
    -14.453  0.1700E+00  0.1595E+00
    -14.369  0.0000E+00  0.1600E+00
    -14.285  0.0000E+00  0.1600E+00
    -14.202  0.0000E+00  0.1600E+00
    -14.118  0.0000E+00  0.1600E+00
    -14.034  0.0000E+00  0.1600E+00
    -13.950  0.0000E+00  0.1600E+00
    -13.866  0.0000E+00  0.1600E+00
    -13.782  0.0000E+00  0.1600E+00
    -13.698  0.0000E+00  0.1600E+00
    -13.614  0.0000E+00  0.1600E+00
    -13.530  0.0000E+00  0.1600E+00
    -13.446  0.0000E+00  0.1600E+00
    -13.362  0.0000E+00  0.1600E+00
    -13.279  0.0000E+00  0.1600E+00
    -13.195  0.0000E+00  0.1600E+00
    -13.111  0.0000E+00  0.1600E+00
    -13.027  0.0000E+00  0.1600E+00
    -12.943  0.0000E+00  0.1600E+00
    -12.859  0.0000E+00  0.1600E+00
    -12.775  0.0000E+00  0.1600E+00
    -12.691  0.0000E+00  0.1600E+00
    -12.607  0.0000E+00  0.1600E+00
    -12.523  0.0000E+00  0.1600E+00
    -12.440  0.0000E+00  0.1600E+00
    -12.356  0.0000E+00  0.1600E+00
    -12.272  0.0000E+00  0.1600E+00
    -12.188  0.0000E+00  0.1600E+00
    -12.104  0.0000E+00  0.1600E+00
    -12.020  0.0000E+00  0.1600E+00
    -11.936  0.0000E+00  0.1600E+00
    -11.852  0.0000E+00  0.1600E+00
    -11.768  0.0000E+00  0.1600E+00
    -11.684  0.0000E+00  0.1600E+00
    -11.600  0.0000E+00  0.1600E+00
    -11.517  0.0000E+00  0.1600E+00
    -11.433  0.0000E+00  0.1600E+00
    -11.349  0.0000E+00  0.1600E+00
    -11.265  0.0000E+00  0.1600E+00
    -11.181  0.0000E+00  0.1600E+00
    -11.097  0.0000E+00  0.1600E+00
    -11.013  0.0000E+00  0.1600E+00
    -10.929  0.0000E+00  0.1600E+00
    -10.845  0.0000E+00  0.1600E+00
    -10.761  0.0000E+00  0.1600E+00
    -10.678  0.0000E+00  0.1600E+00
    -10.594  0.0000E+00  0.1600E+00
    -10.510  0.0000E+00  0.1600E+00
    -10.426  0.0000E+00  0.1600E+00
    -10.342  0.0000E+00  0.1600E+00
    -10.258  0.0000E+00  0.1600E+00
    -10.174  0.0000E+00  0.1600E+00
    -10.090  0.0000E+00  0.1600E+00
    -10.006  0.0000E+00  0.1600E+00
     -9.922  0.0000E+00  0.1600E+00
     -9.838  0.0000E+00  0.1600E+00
     -9.755  0.0000E+00  0.1600E+00
     -9.671  0.0000E+00  0.1600E+00
     -9.587  0.0000E+00  0.1600E+00
     -9.503  0.0000E+00  0.1600E+00
     -9.419  0.0000E+00  0.1600E+00
     -9.335  0.0000E+00  0.1600E+00
     -9.251  0.0000E+00  0.1600E+00
     -9.167  0.0000E+00  0.1600E+00
     -9.083  0.0000E+00  0.1600E+00
     -8.999  0.0000E+00  0.1600E+00
     -8.916  0.0000E+00  0.1600E+00
     -8.832  0.0000E+00  0.1600E+00
     -8.748  0.0000E+00  0.1600E+00
     -8.664  0.0000E+00  0.1600E+00
     -8.580  0.0000E+00  0.1600E+00
     -8.496  0.0000E+00  0.1600E+00
     -8.412  0.0000E+00  0.1600E+00
     -8.328  0.0000E+00  0.1600E+00
     -8.244  0.0000E+00  0.1600E+00
     -8.160  0.0000E+00  0.1600E+00
     -8.076  0.0000E+00  0.1600E+00
     -7.993  0.0000E+00  0.1600E+00
     -7.909  0.0000E+00  0.1600E+00
     -7.825  0.0000E+00  0.1600E+00
     -7.741  0.0000E+00  0.1600E+00
     -7.657  0.0000E+00  0.1600E+00
     -7.573  0.2163E+00  0.1675E+00
     -7.489  0.4168E+00  0.1921E+00
     -7.405  0.4518E+00  0.2302E+00
     -7.321  0.3142E+00  0.2625E+00
     -7.237  0.2096E+00  0.2887E+00
     -7.154  0.1677E+00  0.3103E+00
     -7.070  0.2903E+00  0.3299E+00
     -6.986  0.3270E+00  0.3579E+00
     -6.902  0.4665E+00  0.3867E+00
     -6.818  0.6311E+00  0.4463E+00
     -6.734  0.1039E+01  0.5167E+00
     -6.650  0.6170E+00  0.5935E+00
     -6.566  0.1286E+00  0.6392E+00
     -6.482  0.0000E+00  0.6400E+00
     -6.398  0.0000E+00  0.6400E+00
     -6.314  0.0000E+00  0.6400E+00
     -6.231  0.0000E+00  0.6400E+00
     -6.147  0.0000E+00  0.6400E+00
     -6.063  0.0000E+00  0.6400E+00
     -5.979  0.0000E+00  0.6400E+00
     -5.895  0.0000E+00  0.6400E+00
     -5.811  0.0000E+00  0.6400E+00
     -5.727  0.0000E+00  0.6400E+00
     -5.643  0.0000E+00  0.6400E+00
     -5.559  0.0000E+00  0.6400E+00
     -5.475  0.0000E+00  0.6400E+00
     -5.391  0.0000E+00  0.6400E+00
     -5.308  0.0000E+00  0.6400E+00
     -5.224  0.0000E+00  0.6400E+00
     -5.140  0.0000E+00  0.6400E+00
     -5.056  0.0000E+00  0.6400E+00
     -4.972  0.0000E+00  0.6400E+00
     -4.888  0.0000E+00  0.6400E+00
     -4.804  0.0000E+00  0.6400E+00
     -4.720  0.0000E+00  0.6400E+00
     -4.636  0.0000E+00  0.6400E+00
     -4.552  0.0000E+00  0.6400E+00
     -4.469  0.0000E+00  0.6400E+00
     -4.385  0.0000E+00  0.6400E+00
     -4.301  0.0000E+00  0.6400E+00
     -4.217  0.0000E+00  0.6400E+00
     -4.133  0.0000E+00  0.6400E+00
     -4.049  0.0000E+00  0.6400E+00
     -3.965  0.0000E+00  0.6400E+00
     -3.881  0.0000E+00  0.6400E+00
     -3.797  0.0000E+00  0.6400E+00
     -3.713  0.0000E+00  0.6400E+00
     -3.629  0.0000E+00  0.6400E+00
     -3.546  0.0000E+00  0.6400E+00
     -3.462  0.0000E+00  0.6400E+00
     -3.378  0.0000E+00  0.6400E+00
     -3.294  0.0000E+00  0.6400E+00
     -3.210  0.0000E+00  0.6400E+00
     -3.126  0.0000E+00  0.6400E+00
     -3.042  0.0000E+00  0.6400E+00
     -2.958  0.0000E+00  0.6400E+00
     -2.874  0.0000E+00  0.6400E+00
     -2.790  0.0000E+00  0.6400E+00
     -2.707  0.0000E+00  0.6400E+00
     -2.623  0.0000E+00  0.6400E+00
     -2.539  0.0000E+00  0.6400E+00
     -2.455  0.0000E+00  0.6400E+00
     -2.371  0.0000E+00  0.6400E+00
     -2.287  0.0000E+00  0.6400E+00
     -2.203  0.0000E+00  0.6400E+00
     -2.119  0.0000E+00  0.6400E+00
     -2.035  0.0000E+00  0.6400E+00
     -1.951  0.0000E+00  0.6400E+00
     -1.867  0.0000E+00  0.6400E+00
     -1.784  0.0000E+00  0.6400E+00
     -1.700  0.0000E+00  0.6400E+00
     -1.616  0.0000E+00  0.6400E+00
     -1.532  0.0000E+00  0.6400E+00
     -1.448  0.0000E+00  0.6400E+00
     -1.364  0.0000E+00  0.6400E+00
     -1.280  0.0000E+00  0.6400E+00
     -1.196  0.0000E+00  0.6400E+00
     -1.112  0.0000E+00  0.6400E+00
     -1.028  0.0000E+00  0.6400E+00
     -0.945  0.0000E+00  0.6400E+00
     -0.861  0.0000E+00  0.6400E+00
     -0.777  0.0000E+00  0.6400E+00
     -0.693  0.0000E+00  0.6400E+00
     -0.609  0.0000E+00  0.6400E+00
     -0.525  0.0000E+00  0.6400E+00
     -0.441  0.0000E+00  0.6400E+00
     -0.357  0.0000E+00  0.6400E+00
     -0.273  0.0000E+00  0.6400E+00
     -0.189  0.0000E+00  0.6400E+00
     -0.105  0.0000E+00  0.6400E+00
     -0.022  0.0000E+00  0.6400E+00
      0.062  0.0000E+00  0.6400E+00
      0.146  0.0000E+00  0.6400E+00
      0.230  0.0000E+00  0.6400E+00
      0.314  0.0000E+00  0.6400E+00
      0.398  0.0000E+00  0.6400E+00
      0.482  0.0000E+00  0.6400E+00
      0.566  0.0000E+00  0.6400E+00
      0.650  0.0000E+00  0.6400E+00
      0.734  0.0000E+00  0.6400E+00
      0.817  0.0000E+00  0.6400E+00
      0.901  0.0000E+00  0.6400E+00
      0.985  0.0000E+00  0.6400E+00
      1.069  0.9814E-05  0.6400E+00
      1.153  0.1375E-02  0.6400E+00
      1.237  0.4504E-02  0.6403E+00
      1.321  0.7821E-02  0.6408E+00
      1.405  0.9276E-02  0.6415E+00
      1.489  0.1050E-01  0.6424E+00
      1.573  0.1217E-01  0.6433E+00
      1.657  0.1381E-01  0.6444E+00
      1.740  0.1634E-01  0.6457E+00
      1.824  0.2007E-01  0.6472E+00
      1.908  0.2524E-01  0.6491E+00
      1.992  0.3008E-01  0.6514E+00
      2.076  0.2925E-01  0.6540E+00
      2.160  0.2233E-01  0.6561E+00
      2.244  0.1921E-01  0.6578E+00
      2.328  0.2089E-01  0.6595E+00
      2.412  0.2523E-01  0.6614E+00
      2.496  0.3984E-01  0.6640E+00
      2.579  0.6554E-01  0.6684E+00
      2.663  0.6200E-01  0.6740E+00
      2.747  0.4067E-01  0.6784E+00
      2.831  0.2953E-01  0.6810E+00
      2.915  0.1534E+00  0.6869E+00
      2.999  0.7611E-01  0.6955E+00
      3.083  0.1048E+00  0.7026E+00
      3.167  0.1170E+00  0.7121E+00
      3.251  0.6523E-01  0.7200E+00
      3.335  0.5872E-01  0.7240E+00
      3.419  0.1088E+00  0.7324E+00
      3.502  0.7253E-01  0.7392E+00
      3.586  0.8913E-01  0.7455E+00
      3.670  0.1219E+00  0.7547E+00
      3.754  0.1157E+00  0.7644E+00
      3.838  0.9573E-01  0.7735E+00
      3.922  0.1836E+00  0.7842E+00
      4.006  0.8535E-01  0.7996E+00
      4.090  0.1007E+00  0.8060E+00
      4.174  0.1473E+00  0.8166E+00
      4.258  0.1320E+00  0.8303E+00
      4.341  0.8084E-01  0.8382E+00
      4.425  0.9234E-01  0.8452E+00
      4.509  0.1428E+00  0.8550E+00
      4.593  0.1787E+00  0.8696E+00
      4.677  0.8347E-01  0.8795E+00
      4.761  0.3838E+00  0.9008E+00
      4.845  0.2547E-01  0.9200E+00
      4.929  0.1086E+00  0.9265E+00
      5.013  0.9519E-01  0.9350E+00
      5.097  0.1325E+00  0.9448E+00
      5.181  0.8561E-01  0.9542E+00
      5.264  0.2130E+00  0.9627E+00
      5.348  0.1613E+00  0.9793E+00
      5.432  0.1312E+00  0.9922E+00
      5.516  0.1208E+00  0.9994E+00
      5.600  0.1634E+00  0.1014E+01
      5.684  0.1306E+00  0.1026E+01
      5.768  0.6973E-01  0.1035E+01
      5.852  0.1026E+00  0.1042E+01
      5.936  0.7816E-01  0.1050E+01
      6.020  0.4058E-01  0.1056E+01
      6.103  0.2592E-01  0.1058E+01
      6.187  0.7864E-02  0.1060E+01
      6.271  0.1633E-03  0.1060E+01
      6.355  0.0000E+00  0.1060E+01
      6.439  0.0000E+00  0.1060E+01
      6.523  0.0000E+00  0.1060E+01
      6.607  0.0000E+00  0.1060E+01
      6.691  0.0000E+00  0.1060E+01
      6.775  0.0000E+00  0.1060E+01
      6.859  0.0000E+00  0.1060E+01
      6.943  0.0000E+00  0.1060E+01
      7.026  0.0000E+00  0.1060E+01
      7.110  0.0000E+00  0.1060E+01
      7.194  0.0000E+00  0.1060E+01
      7.278  0.0000E+00  0.1060E+01
      7.362  0.0000E+00  0.1060E+01
      7.446  0.0000E+00  0.1060E+01
      7.530  0.0000E+00  0.1060E+01
      7.614  0.0000E+00  0.1060E+01
      7.698  0.0000E+00  0.1060E+01
      7.782  0.0000E+00  0.1060E+01
      7.865  0.0000E+00  0.1060E+01
      7.949  0.0000E+00  0.1060E+01
      8.033  0.0000E+00  0.1060E+01
      8.117  0.0000E+00  0.1060E+01
      8.201  0.0000E+00  0.1060E+01
      8.285  0.0000E+00  0.1060E+01
