  72  72   0   0
  0.1133451E+02  0.1186197E-08  0.8297066E-09  0.8291900E-09  0.5000000E-15
  1.000000000000000E-004
  CAR 
 diamond                                 
      8.03119338    -16.77279919  301     -2.11777358      1.00000000
    -16.773  0.0000E+00  0.0000E+00
    -16.690  0.0000E+00  0.0000E+00
    -16.607  0.0000E+00  0.0000E+00
    -16.525  0.0000E+00  0.0000E+00
    -16.442  0.0000E+00  0.0000E+00
    -16.359  0.0000E+00  0.0000E+00
    -16.277  0.0000E+00  0.0000E+00
    -16.194  0.0000E+00  0.0000E+00
    -16.111  0.0000E+00  0.0000E+00
    -16.029  0.0000E+00  0.0000E+00
    -15.946  0.0000E+00  0.0000E+00
    -15.863  0.0000E+00  0.0000E+00
    -15.781  0.0000E+00  0.0000E+00
    -15.698  0.0000E+00  0.0000E+00
    -15.615  0.0000E+00  0.0000E+00
    -15.533  0.0000E+00  0.0000E+00
    -15.450  0.0000E+00  0.0000E+00
    -15.367  0.0000E+00  0.0000E+00
    -15.285  0.0000E+00  0.0000E+00
    -15.202  0.0000E+00  0.0000E+00
    -15.119  0.0000E+00  0.0000E+00
    -15.037  0.0000E+00  0.0000E+00
    -14.954  0.0000E+00  0.0000E+00
    -14.871  0.0000E+00  0.0000E+00
    -14.788  0.0000E+00  0.0000E+00
    -14.706  0.9593E-01  0.3287E-02
    -14.623  0.1109E+00  0.1871E-01
    -14.540  0.7294E+00  0.4528E-01
    -14.458  0.2666E+00  0.7635E-01
    -14.375  0.0000E+00  0.8000E-01
    -14.292  0.1153E+00  0.8202E-01
    -14.210  0.3802E+00  0.1190E+00
    -14.127  0.0000E+00  0.1600E+00
    -14.044  0.0000E+00  0.1600E+00
    -13.962  0.0000E+00  0.1600E+00
    -13.879  0.0000E+00  0.1600E+00
    -13.796  0.0000E+00  0.1600E+00
    -13.714  0.0000E+00  0.1600E+00
    -13.631  0.0000E+00  0.1600E+00
    -13.548  0.0000E+00  0.1600E+00
    -13.466  0.0000E+00  0.1600E+00
    -13.383  0.0000E+00  0.1600E+00
    -13.300  0.0000E+00  0.1600E+00
    -13.218  0.0000E+00  0.1600E+00
    -13.135  0.0000E+00  0.1600E+00
    -13.052  0.0000E+00  0.1600E+00
    -12.970  0.0000E+00  0.1600E+00
    -12.887  0.0000E+00  0.1600E+00
    -12.804  0.0000E+00  0.1600E+00
    -12.721  0.0000E+00  0.1600E+00
    -12.639  0.0000E+00  0.1600E+00
    -12.556  0.0000E+00  0.1600E+00
    -12.473  0.0000E+00  0.1600E+00
    -12.391  0.0000E+00  0.1600E+00
    -12.308  0.0000E+00  0.1600E+00
    -12.225  0.0000E+00  0.1600E+00
    -12.143  0.0000E+00  0.1600E+00
    -12.060  0.0000E+00  0.1600E+00
    -11.977  0.0000E+00  0.1600E+00
    -11.895  0.0000E+00  0.1600E+00
    -11.812  0.0000E+00  0.1600E+00
    -11.729  0.0000E+00  0.1600E+00
    -11.647  0.0000E+00  0.1600E+00
    -11.564  0.0000E+00  0.1600E+00
    -11.481  0.0000E+00  0.1600E+00
    -11.399  0.0000E+00  0.1600E+00
    -11.316  0.0000E+00  0.1600E+00
    -11.233  0.0000E+00  0.1600E+00
    -11.151  0.0000E+00  0.1600E+00
    -11.068  0.0000E+00  0.1600E+00
    -10.985  0.0000E+00  0.1600E+00
    -10.903  0.0000E+00  0.1600E+00
    -10.820  0.0000E+00  0.1600E+00
    -10.737  0.0000E+00  0.1600E+00
    -10.654  0.0000E+00  0.1600E+00
    -10.572  0.0000E+00  0.1600E+00
    -10.489  0.0000E+00  0.1600E+00
    -10.406  0.0000E+00  0.1600E+00
    -10.324  0.0000E+00  0.1600E+00
    -10.241  0.0000E+00  0.1600E+00
    -10.158  0.0000E+00  0.1600E+00
    -10.076  0.0000E+00  0.1600E+00
     -9.993  0.0000E+00  0.1600E+00
     -9.910  0.0000E+00  0.1600E+00
     -9.828  0.0000E+00  0.1600E+00
     -9.745  0.0000E+00  0.1600E+00
     -9.662  0.0000E+00  0.1600E+00
     -9.580  0.0000E+00  0.1600E+00
     -9.497  0.0000E+00  0.1600E+00
     -9.414  0.0000E+00  0.1600E+00
     -9.332  0.0000E+00  0.1600E+00
     -9.249  0.0000E+00  0.1600E+00
     -9.166  0.0000E+00  0.1600E+00
     -9.084  0.0000E+00  0.1600E+00
     -9.001  0.0000E+00  0.1600E+00
     -8.918  0.0000E+00  0.1600E+00
     -8.836  0.0000E+00  0.1600E+00
     -8.753  0.0000E+00  0.1600E+00
     -8.670  0.0000E+00  0.1600E+00
     -8.587  0.0000E+00  0.1600E+00
     -8.505  0.0000E+00  0.1600E+00
     -8.422  0.0000E+00  0.1600E+00
     -8.339  0.0000E+00  0.1600E+00
     -8.257  0.0000E+00  0.1600E+00
     -8.174  0.3809E-01  0.1609E+00
     -8.091  0.2567E+00  0.1707E+00
     -8.009  0.5265E+00  0.2000E+00
     -7.926  0.5025E+00  0.2399E+00
     -7.843  0.3321E+00  0.2725E+00
     -7.761  0.1186E+00  0.2888E+00
     -7.678  0.1321E+00  0.2987E+00
     -7.595  0.2256E+00  0.3157E+00
     -7.513  0.0000E+00  0.3200E+00
     -7.430  0.0000E+00  0.3200E+00
     -7.347  0.0000E+00  0.3200E+00
     -7.265  0.3165E-02  0.3200E+00
     -7.182  0.1585E+00  0.3248E+00
     -7.099  0.3985E+00  0.3503E+00
     -7.017  0.4457E+00  0.3809E+00
     -6.934  0.7524E+00  0.4265E+00
     -6.851  0.4657E+00  0.4786E+00
     -6.769  0.3755E+00  0.5085E+00
     -6.686  0.4049E+00  0.5411E+00
     -6.603  0.7253E-01  0.5594E+00
     -6.520  0.0000E+00  0.5600E+00
     -6.438  0.0000E+00  0.5600E+00
     -6.355  0.0000E+00  0.5600E+00
     -6.272  0.0000E+00  0.5600E+00
     -6.190  0.0000E+00  0.5600E+00
     -6.107  0.0000E+00  0.5600E+00
     -6.024  0.0000E+00  0.5600E+00
     -5.942  0.0000E+00  0.5600E+00
     -5.859  0.0000E+00  0.5600E+00
     -5.776  0.0000E+00  0.5600E+00
     -5.694  0.0000E+00  0.5600E+00
     -5.611  0.0000E+00  0.5600E+00
     -5.528  0.0000E+00  0.5600E+00
     -5.446  0.0000E+00  0.5600E+00
     -5.363  0.0000E+00  0.5600E+00
     -5.280  0.0000E+00  0.5600E+00
     -5.198  0.0000E+00  0.5600E+00
     -5.115  0.0000E+00  0.5600E+00
     -5.032  0.0000E+00  0.5600E+00
     -4.950  0.0000E+00  0.5600E+00
     -4.867  0.0000E+00  0.5600E+00
     -4.784  0.0000E+00  0.5600E+00
     -4.702  0.0000E+00  0.5600E+00
     -4.619  0.0000E+00  0.5600E+00
     -4.536  0.0000E+00  0.5600E+00
     -4.453  0.0000E+00  0.5600E+00
     -4.371  0.0000E+00  0.5600E+00
     -4.288  0.0000E+00  0.5600E+00
     -4.205  0.0000E+00  0.5600E+00
     -4.123  0.0000E+00  0.5600E+00
     -4.040  0.0000E+00  0.5600E+00
     -3.957  0.0000E+00  0.5600E+00
     -3.875  0.0000E+00  0.5600E+00
     -3.792  0.0000E+00  0.5600E+00
     -3.709  0.0000E+00  0.5600E+00
     -3.627  0.0000E+00  0.5600E+00
     -3.544  0.0000E+00  0.5600E+00
     -3.461  0.0000E+00  0.5600E+00
     -3.379  0.0000E+00  0.5600E+00
     -3.296  0.0000E+00  0.5600E+00
     -3.213  0.0000E+00  0.5600E+00
     -3.131  0.0000E+00  0.5600E+00
     -3.048  0.0000E+00  0.5600E+00
     -2.965  0.0000E+00  0.5600E+00
     -2.883  0.0000E+00  0.5600E+00
     -2.800  0.0000E+00  0.5600E+00
     -2.717  0.0000E+00  0.5600E+00
     -2.635  0.8328E-02  0.5601E+00
     -2.552  0.4282E-01  0.5621E+00
     -2.469  0.9670E-01  0.5681E+00
     -2.386  0.1392E+00  0.5785E+00
     -2.304  0.9840E-01  0.5881E+00
     -2.221  0.8964E-01  0.5960E+00
     -2.138  0.0000E+00  0.6000E+00
     -2.056  0.7771E-01  0.6025E+00
     -1.973  0.7867E-01  0.6090E+00
     -1.890  0.7869E-01  0.6155E+00
     -1.808  0.1285E+00  0.6233E+00
     -1.725  0.1455E+00  0.6352E+00
     -1.642  0.0000E+00  0.6400E+00
     -1.560  0.0000E+00  0.6400E+00
     -1.477  0.0000E+00  0.6400E+00
     -1.394  0.0000E+00  0.6400E+00
     -1.312  0.0000E+00  0.6400E+00
     -1.229  0.0000E+00  0.6400E+00
     -1.146  0.0000E+00  0.6400E+00
     -1.064  0.0000E+00  0.6400E+00
     -0.981  0.0000E+00  0.6400E+00
     -0.898  0.0000E+00  0.6400E+00
     -0.816  0.0000E+00  0.6400E+00
     -0.733  0.0000E+00  0.6400E+00
     -0.650  0.0000E+00  0.6400E+00
     -0.568  0.0000E+00  0.6400E+00
     -0.485  0.0000E+00  0.6400E+00
     -0.402  0.0000E+00  0.6400E+00
     -0.319  0.0000E+00  0.6400E+00
     -0.237  0.0000E+00  0.6400E+00
     -0.154  0.0000E+00  0.6400E+00
     -0.071  0.0000E+00  0.6400E+00
      0.011  0.0000E+00  0.6400E+00
      0.094  0.0000E+00  0.6400E+00
      0.177  0.0000E+00  0.6400E+00
      0.259  0.0000E+00  0.6400E+00
      0.342  0.0000E+00  0.6400E+00
      0.425  0.0000E+00  0.6400E+00
      0.507  0.0000E+00  0.6400E+00
      0.590  0.0000E+00  0.6400E+00
      0.673  0.0000E+00  0.6400E+00
      0.755  0.0000E+00  0.6400E+00
      0.838  0.0000E+00  0.6400E+00
      0.921  0.0000E+00  0.6400E+00
      1.003  0.0000E+00  0.6400E+00
      1.086  0.0000E+00  0.6400E+00
      1.169  0.0000E+00  0.6400E+00
      1.251  0.2127E-03  0.6400E+00
      1.334  0.2121E-02  0.6401E+00
      1.417  0.5171E-02  0.6404E+00
      1.499  0.8110E-02  0.6409E+00
      1.582  0.9556E-02  0.6417E+00
      1.665  0.1081E-01  0.6425E+00
      1.748  0.1243E-01  0.6435E+00
      1.830  0.1422E-01  0.6446E+00
      1.913  0.1696E-01  0.6459E+00
      1.996  0.2074E-01  0.6474E+00
      2.078  0.2701E-01  0.6494E+00
      2.161  0.3349E-01  0.6518E+00
      2.244  0.3139E-01  0.6547E+00
      2.326  0.2325E-01  0.6569E+00
      2.409  0.2084E-01  0.6587E+00
      2.492  0.2072E-01  0.6604E+00
      2.574  0.2641E-01  0.6623E+00
      2.657  0.4142E-01  0.6650E+00
      2.740  0.9224E-01  0.6701E+00
      2.822  0.8228E-01  0.6774E+00
      2.905  0.4565E-01  0.6819E+00
      2.988  0.1219E+00  0.6898E+00
      3.070  0.6834E-01  0.6975E+00
      3.153  0.8591E-01  0.7032E+00
      3.236  0.9053E-01  0.7104E+00
      3.318  0.4808E-01  0.7164E+00
      3.401  0.3299E-01  0.7195E+00
      3.484  0.6173E-01  0.7231E+00
      3.566  0.1010E+00  0.7296E+00
      3.649  0.8719E-01  0.7379E+00
      3.732  0.6796E-01  0.7439E+00
      3.815  0.8734E-01  0.7500E+00
      3.897  0.9569E-01  0.7578E+00
      3.980  0.6474E-01  0.7644E+00
      4.063  0.1449E+00  0.7710E+00
      4.145  0.2091E+00  0.7882E+00
      4.228  0.6186E-01  0.7989E+00
      4.311  0.9907E-01  0.8043E+00
      4.393  0.1483E+00  0.8156E+00
      4.476  0.1176E+00  0.8259E+00
      4.559  0.8287E-01  0.8349E+00
      4.641  0.1814E+00  0.8432E+00
      4.724  0.1743E+00  0.8588E+00
      4.807  0.1206E+00  0.8708E+00
      4.889  0.1333E+00  0.8817E+00
      4.972  0.1090E+00  0.8916E+00
      5.055  0.7080E-01  0.9001E+00
      5.137  0.1235E+00  0.9080E+00
      5.220  0.1061E+00  0.9174E+00
      5.303  0.2310E+00  0.9295E+00
      5.385  0.1266E+00  0.9449E+00
      5.468  0.1050E+00  0.9543E+00
      5.551  0.8161E-01  0.9616E+00
      5.633  0.8189E-01  0.9684E+00
      5.716  0.4624E-01  0.9733E+00
      5.799  0.3123E-01  0.9768E+00
      5.882  0.1854E-01  0.9788E+00
      5.964  0.7197E-02  0.9798E+00
      6.047  0.0000E+00  0.9800E+00
      6.130  0.0000E+00  0.9800E+00
      6.212  0.0000E+00  0.9800E+00
      6.295  0.0000E+00  0.9800E+00
      6.378  0.0000E+00  0.9800E+00
      6.460  0.0000E+00  0.9800E+00
      6.543  0.0000E+00  0.9800E+00
      6.626  0.0000E+00  0.9800E+00
      6.708  0.0000E+00  0.9800E+00
      6.791  0.0000E+00  0.9800E+00
      6.874  0.0000E+00  0.9800E+00
      6.956  0.0000E+00  0.9800E+00
      7.039  0.0000E+00  0.9800E+00
      7.122  0.0000E+00  0.9800E+00
      7.204  0.0000E+00  0.9800E+00
      7.287  0.0000E+00  0.9800E+00
      7.370  0.0000E+00  0.9800E+00
      7.452  0.0000E+00  0.9800E+00
      7.535  0.0000E+00  0.9800E+00
      7.618  0.0000E+00  0.9800E+00
      7.700  0.0000E+00  0.9800E+00
      7.783  0.0000E+00  0.9800E+00
      7.866  0.0000E+00  0.9800E+00
      7.949  0.0000E+00  0.9800E+00
      8.031  0.0000E+00  0.9800E+00
