   80   80  200    1
  0.1059341E+02  0.1201214E-08  0.8402103E-09  0.8396871E-09  0.5000000E-15
  1.000000000000000E-004
  CAR 
 diamond                                 
    128     27    106
 
  0.0000000E+00  0.0000000E+00  0.0000000E+00  0.1562500E-01
    1      -14.886521
    2      -14.728347
    3      -14.648481
    4      -14.623452
    5      -14.619125
    6      -14.607321
    7      -14.603308
    8      -14.563660
    9      -14.550245
   10      -14.542746
   11      -14.540302
   12      -14.509837
   13      -14.496484
   14      -14.474693
   15      -14.448445
   16      -14.446912
   17       -7.642587
   18       -7.630907
   19       -7.621473
   20       -7.576735
   21       -7.563947
   22       -7.561959
   23       -7.544595
   24       -7.491734
   25       -7.329540
   26       -7.297801
   27       -7.268822
   28       -7.253312
   29       -7.237581
   30       -7.136073
   31       -7.126018
   32       -7.123402
   33       -7.123181
   34       -7.059708
   35       -7.013609
   36       -6.992943
   37       -6.941388
   38       -6.912658
   39       -6.909856
   40       -6.880639
   41       -6.874996
   42       -6.866903
   43       -6.865870
   44       -6.851715
   45       -6.843016
   46       -6.757910
   47       -6.744215
   48       -6.734178
   49       -6.720839
   50       -6.693973
   51       -6.689810
   52       -6.686482
   53       -6.683614
   54       -6.673422
   55       -6.657471
   56       -6.655683
   57       -6.651906
   58       -6.650639
   59       -6.648799
   60       -6.644404
   61       -6.636410
   62       -6.592810
   63       -6.578325
   64       -6.538675
   65        1.061563
   66        2.354981
   67        2.390369
   68        2.774035
   69        2.873548
   70        2.963797
   71        3.169955
   72        3.171771
   73        3.274377
   74        3.304254
   75        3.314544
   76        3.472969
   77        3.527826
   78        3.580634
   79        3.612413
   80        3.791641
   81        4.107131
   82        4.270048
   83        4.391104
   84        4.467748
   85        4.519998
   86        4.608602
   87        4.651865
   88        4.724713
   89        4.783673
   90        4.798895
   91        4.819360
   92        4.830210
   93        4.853119
   94        4.919398
   95        5.307251
   96        5.308245
   97        5.339269
   98        5.404628
   99        5.424606
  100        5.533529
  101        5.593427
  102        5.781972
  103        5.799662
  104        5.925764
  105        5.952349
  106        6.019942
 
  0.2500000E+00  0.0000000E+00  0.0000000E+00  0.3125000E-01
    1      -14.872515
    2      -14.774079
    3      -14.622812
    4      -14.619747
    5      -14.606718
    6      -14.603896
    7      -14.600485
    8      -14.561791
    9      -14.551893
   10      -14.543347
   11      -14.540997
   12      -14.507202
   13      -14.498003
   14      -14.491135
   15      -14.448143
   16      -14.447000
   17       -7.618752
   18       -7.616771
   19       -7.602752
   20       -7.562023
   21       -7.557203
   22       -7.528023
   23       -7.524756
   24       -7.488430
   25       -7.394456
   26       -7.351732
   27       -7.333253
   28       -7.319666
   29       -7.314562
   30       -7.279988
   31       -7.073094
   32       -7.072513
   33       -7.039861
   34       -6.989052
   35       -6.988345
   36       -6.905123
   37       -6.900521
   38       -6.887338
   39       -6.885447
   40       -6.880076
   41       -6.866659
   42       -6.864077
   43       -6.853792
   44       -6.847519
   45       -6.839117
   46       -6.792086
   47       -6.749394
   48       -6.724424
   49       -6.711651
   50       -6.706201
   51       -6.700470
   52       -6.694185
   53       -6.689803
   54       -6.685149
   55       -6.669164
   56       -6.665334
   57       -6.664218
   58       -6.654772
   59       -6.651507
   60       -6.638021
   61       -6.636278
   62       -6.593535
   63       -6.588553
   64       -6.583375
   65        1.162299
   66        1.875098
   67        2.838029
   68        2.847884
   69        2.912374
   70        3.010973
   71        3.121718
   72        3.193292
   73        3.196682
   74        3.260125
   75        3.277842
   76        3.458743
   77        3.551937
   78        3.558505
   79        3.701032
   80        3.849337
   81        4.140794
   82        4.183533
   83        4.231160
   84        4.366446
   85        4.517738
   86        4.543723
   87        4.632009
   88        4.738549
   89        4.758694
   90        4.761192
   91        4.779695
   92        4.831562
   93        4.942567
   94        5.035951
   95        5.162797
   96        5.264059
   97        5.326971
   98        5.418326
   99        5.439089
  100        5.534107
  101        5.543981
  102        5.671086
  103        5.846721
  104        5.862076
  105        6.023046
  106        6.284072
 
  0.5000000E+00  0.0000000E+00  0.0000000E+00  0.1562500E-01
    1      -14.832607
    2      -14.832605
    3      -14.621290
    4      -14.621289
    5      -14.605293
    6      -14.605292
    7      -14.556934
    8      -14.556932
    9      -14.542606
   10      -14.542604
   11      -14.536555
   12      -14.536553
   13      -14.502100
   14      -14.502099
   15      -14.447520
   16      -14.447517
   17       -7.596233
   18       -7.596232
   19       -7.556244
   20       -7.556243
   21       -7.531026
   22       -7.531024
   23       -7.432870
   24       -7.432870
   25       -7.431013
   26       -7.431013
   27       -7.430110
   28       -7.430108
   29       -7.369436
   30       -7.369435
   31       -7.013709
   32       -7.013708
   33       -7.007161
   34       -7.007160
   35       -6.933580
   36       -6.933579
   37       -6.885841
   38       -6.885839
   39       -6.875265
   40       -6.875265
   41       -6.839371
   42       -6.839370
   43       -6.773168
   44       -6.773168
   45       -6.770426
   46       -6.770425
   47       -6.761294
   48       -6.761293
   49       -6.734945
   50       -6.734944
   51       -6.716502
   52       -6.716501
   53       -6.710889
   54       -6.710888
   55       -6.684142
   56       -6.684141
   57       -6.659273
   58       -6.659270
   59       -6.655559
   60       -6.655557
   61       -6.615137
   62       -6.615136
   63       -6.608919
   64       -6.608919
   65        1.448431
   66        1.448433
   67        3.012245
   68        3.012246
   69        3.027449
   70        3.027451
   71        3.131414
   72        3.131414
   73        3.149203
   74        3.149204
   75        3.286354
   76        3.286354
   77        3.596696
   78        3.596697
   79        3.938664
   80        3.938664
   81        4.009245
   82        4.009247
   83        4.234887
   84        4.234888
   85        4.513089
   86        4.513090
   87        4.685415
   88        4.685417
   89        4.693618
   90        4.693618
   91        4.708746
   92        4.708746
   93        5.133918
   94        5.133918
   95        5.234068
   96        5.234068
   97        5.345589
   98        5.345590
   99        5.532610
  100        5.532610
  101        5.587178
  102        5.587179
  103        5.679103
  104        5.679105
  105        6.149468
  106        6.149470
 
  0.0000000E+00  0.2500000E+00  0.0000000E+00  0.3125000E-01
    1      -14.858801
    2      -14.712887
    3      -14.688321
    4      -14.635830
    5      -14.633145
    6      -14.594238
    7      -14.591332
    8      -14.556638
    9      -14.556543
   10      -14.533644
   11      -14.529068
   12      -14.504265
   13      -14.502858
   14      -14.474622
   15      -14.462250
   16      -14.461326
   17       -7.654799
   18       -7.581002
   19       -7.571564
   20       -7.561083
   21       -7.526235
   22       -7.521749
   23       -7.504877
   24       -7.380478
   25       -7.375655
   26       -7.299491
   27       -7.261114
   28       -7.251679
   29       -7.200735
   30       -7.197058
   31       -7.166945
   32       -7.142658
   33       -7.130979
   34       -7.060304
   35       -7.000684
   36       -6.986295
   37       -6.967925
   38       -6.919813
   39       -6.875611
   40       -6.861869
   41       -6.857616
   42       -6.850313
   43       -6.835469
   44       -6.831638
   45       -6.829379
   46       -6.823348
   47       -6.778431
   48       -6.752114
   49       -6.729951
   50       -6.726411
   51       -6.724595
   52       -6.719315
   53       -6.705383
   54       -6.688958
   55       -6.684591
   56       -6.681391
   57       -6.665823
   58       -6.664589
   59       -6.655166
   60       -6.647103
   61       -6.631287
   62       -6.613083
   63       -6.584347
   64       -6.560931
   65        1.258826
   66        2.490757
   67        2.521851
   68        2.525477
   69        2.869217
   70        2.888939
   71        3.084513
   72        3.180124
   73        3.295342
   74        3.359077
   75        3.489993
   76        3.516469
   77        3.610835
   78        3.689232
   79        3.836057
   80        4.064957
   81        4.151622
   82        4.187478
   83        4.255358
   84        4.289064
   85        4.307801
   86        4.620494
   87        4.675198
   88        4.676463
   89        4.696056
   90        4.769907
   91        4.771627
   92        4.823626
   93        4.842390
   94        4.885311
   95        5.160704
   96        5.255283
   97        5.292604
   98        5.347010
   99        5.437206
  100        5.528324
  101        5.671816
  102        5.740110
  103        5.740652
  104        5.873856
  105        6.034819
  106        6.142561
 
  0.2500000E+00  0.2500000E+00  0.0000000E+00  0.6250000E-01
    1      -14.845705
    2      -14.754184
    3      -14.682532
    4      -14.646757
    5      -14.593816
    6      -14.591937
    7      -14.589886
    8      -14.554816
    9      -14.546274
   10      -14.540955
   11      -14.523771
   12      -14.507553
   13      -14.504488
   14      -14.489795
   15      -14.462078
   16      -14.461247
   17       -7.632382
   18       -7.589564
   19       -7.577435
   20       -7.559404
   21       -7.497058
   22       -7.483647
   23       -7.476748
   24       -7.428111
   25       -7.404813
   26       -7.349398
   27       -7.312810
   28       -7.276061
   29       -7.261335
   30       -7.217550
   31       -7.169564
   32       -7.094434
   33       -7.027544
   34       -7.009396
   35       -7.008213
   36       -6.952285
   37       -6.951369
   38       -6.901403
   39       -6.887208
   40       -6.871968
   41       -6.849327
   42       -6.848707
   43       -6.845957
   44       -6.817913
   45       -6.816530
   46       -6.801788
   47       -6.801050
   48       -6.788138
   49       -6.738717
   50       -6.738159
   51       -6.728727
   52       -6.727353
   53       -6.707140
   54       -6.703306
   55       -6.696969
   56       -6.689519
   57       -6.682080
   58       -6.654188
   59       -6.637978
   60       -6.637293
   61       -6.627880
   62       -6.608247
   63       -6.594578
   64       -6.561065
   65        1.352413
   66        2.025022
   67        2.547187
   68        2.759680
   69        2.957245
   70        2.978237
   71        3.120041
   72        3.269937
   73        3.271401
   74        3.395883
   75        3.459776
   76        3.493306
   77        3.582696
   78        3.753914
   79        3.887210
   80        3.971246
   81        4.138928
   82        4.145686
   83        4.174332
   84        4.196441
   85        4.317625
   86        4.564335
   87        4.587085
   88        4.639938
   89        4.722376
   90        4.744613
   91        4.753485
   92        4.773434
   93        5.023514
   94        5.057520
   95        5.109284
   96        5.235294
   97        5.297551
   98        5.419611
   99        5.421655
  100        5.452672
  101        5.580729
  102        5.610391
  103        5.666749
  104        5.931172
  105        5.954722
  106        6.216312
 
  0.5000000E+00  0.2500000E+00  0.0000000E+00  0.3125000E-01
    1      -14.808430
    2      -14.808429
    3      -14.666800
    4      -14.666799
    5      -14.592796
    6      -14.592795
    7      -14.549138
    8      -14.549136
    9      -14.531492
   10      -14.531490
   11      -14.529327
   12      -14.529326
   13      -14.508320
   14      -14.508320
   15      -14.461619
   16      -14.461617
   17       -7.588117
   18       -7.588116
   19       -7.576572
   20       -7.576571
   21       -7.482131
   22       -7.482131
   23       -7.425825
   24       -7.425824
   25       -7.390277
   26       -7.390277
   27       -7.370581
   28       -7.370580
   29       -7.274714
   30       -7.274712
   31       -7.105878
   32       -7.105877
   33       -6.960294
   34       -6.960294
   35       -6.952932
   36       -6.952932
   37       -6.910430
   38       -6.910430
   39       -6.868293
   40       -6.868292
   41       -6.866849
   42       -6.866848
   43       -6.835592
   44       -6.835592
   45       -6.810661
   46       -6.810660
   47       -6.788368
   48       -6.788368
   49       -6.773696
   50       -6.773695
   51       -6.739842
   52       -6.739841
   53       -6.716955
   54       -6.716954
   55       -6.702448
   56       -6.702447
   57       -6.648341
   58       -6.648340
   59       -6.637516
   60       -6.637515
   61       -6.613438
   62       -6.613437
   63       -6.581627
   64       -6.581627
   65        1.620170
   66        1.620172
   67        2.626358
   68        2.626359
   69        3.134327
   70        3.134329
   71        3.199045
   72        3.199045
   73        3.315776
   74        3.315777
   75        3.479705
   76        3.479707
   77        3.725080
   78        3.725080
   79        3.937467
   80        3.937468
   81        4.019709
   82        4.019710
   83        4.143989
   84        4.143991
   85        4.441863
   86        4.441864
   87        4.570663
   88        4.570664
   89        4.678949
   90        4.678950
   91        4.773066
   92        4.773067
   93        5.091943
   94        5.091943
   95        5.294898
   96        5.294898
   97        5.353612
   98        5.353612
   99        5.446046
  100        5.446047
  101        5.482094
  102        5.482095
  103        5.667778
  104        5.667778
  105        6.088723
  106        6.088724
 
  0.0000000E+00  0.5000000E+00  0.0000000E+00  0.1562500E-01
    1      -14.784462
    2      -14.784462
    3      -14.674947
    4      -14.674947
    5      -14.595358
    6      -14.595358
    7      -14.564969
    8      -14.564969
    9      -14.562560
   10      -14.562560
   11      -14.495560
   12      -14.495560
   13      -14.492151
   14      -14.492151
   15      -14.480936
   16      -14.480936
   17       -7.626291
   18       -7.626291
   19       -7.471638
   20       -7.471638
   21       -7.452220
   22       -7.452220
   23       -7.409345
   24       -7.409345
   25       -7.377874
   26       -7.377874
   27       -7.310547
   28       -7.310547
   29       -7.183607
   30       -7.183607
   31       -7.129318
   32       -7.129318
   33       -7.078929
   34       -7.078929
   35       -6.988897
   36       -6.988897
   37       -6.954078
   38       -6.954078
   39       -6.908720
   40       -6.908720
   41       -6.853691
   42       -6.853691
   43       -6.847390
   44       -6.847390
   45       -6.802889
   46       -6.802889
   47       -6.781426
   48       -6.781426
   49       -6.755667
   50       -6.755667
   51       -6.727682
   52       -6.727682
   53       -6.727317
   54       -6.727317
   55       -6.716888
   56       -6.716888
   57       -6.675904
   58       -6.675904
   59       -6.669757
   60       -6.669757
   61       -6.614195
   62       -6.614195
   63       -6.586754
   64       -6.586754
   65        1.790266
   66        1.790266
   67        2.750636
   68        2.750636
   69        2.854285
   70        2.854285
   71        3.147187
   72        3.147187
   73        3.392053
   74        3.392053
   75        3.792681
   76        3.792681
   77        3.823321
   78        3.823321
   79        3.828079
   80        3.828079
   81        3.874989
   82        3.874989
   83        4.398974
   84        4.398974
   85        4.426330
   86        4.426330
   87        4.538530
   88        4.538530
   89        4.566874
   90        4.566874
   91        4.775437
   92        4.775437
   93        4.960497
   94        4.960497
   95        5.125638
   96        5.125638
   97        5.317345
   98        5.317345
   99        5.603379
  100        5.603379
  101        5.752392
  102        5.752392
  103        5.805156
  104        5.805156
  105        5.876927
  106        5.876927
 
  0.2500000E+00  0.5000000E+00  0.0000000E+00  0.3125000E-01
    1      -14.774057
    2      -14.774057
    3      -14.703450
    4      -14.703450
    5      -14.567099
    6      -14.567099
    7      -14.563776
    8      -14.563776
    9      -14.562932
   10      -14.562932
   11      -14.496595
   12      -14.496595
   13      -14.492538
   14      -14.492538
   15      -14.490506
   16      -14.490506
   17       -7.613503
   18       -7.613503
   19       -7.526338
   20       -7.526338
   21       -7.425894
   22       -7.425894
   23       -7.420508
   24       -7.420508
   25       -7.384501
   26       -7.384501
   27       -7.234257
   28       -7.234257
   29       -7.223685
   30       -7.223685
   31       -7.090215
   32       -7.090215
   33       -7.056725
   34       -7.056725
   35       -6.999288
   36       -6.999288
   37       -6.988939
   38       -6.988939
   39       -6.912065
   40       -6.912065
   41       -6.876061
   42       -6.876061
   43       -6.838181
   44       -6.838181
   45       -6.822935
   46       -6.822935
   47       -6.781267
   48       -6.781267
   49       -6.763413
   50       -6.763413
   51       -6.749849
   52       -6.749849
   53       -6.737595
   54       -6.737595
   55       -6.732120
   56       -6.732120
   57       -6.648023
   58       -6.648023
   59       -6.632320
   60       -6.632320
   61       -6.603628
   62       -6.603628
   63       -6.589429
   64       -6.589429
   65        1.861009
   66        1.861009
   67        2.389642
   68        2.389642
   69        3.187350
   70        3.187350
   71        3.248144
   72        3.248144
   73        3.365523
   74        3.365523
   75        3.783647
   76        3.783647
   77        3.788999
   78        3.788999
   79        3.861590
   80        3.861590
   81        3.872607
   82        3.872607
   83        4.197992
   84        4.197992
   85        4.397784
   86        4.397784
   87        4.519873
   88        4.519873
   89        4.695245
   90        4.695245
   91        4.754626
   92        4.754626
   93        4.998975
   94        4.998975
   95        5.203463
   96        5.203463
   97        5.308234
   98        5.308234
   99        5.532222
  100        5.532222
  101        5.661274
  102        5.661274
  103        5.769752
  104        5.769752
  105        5.841585
  106        5.841585
 
  0.5000000E+00  0.5000000E+00  0.0000000E+00  0.1562500E-01
    1      -14.744785
    2      -14.744785
    3      -14.744784
    4      -14.744784
    5      -14.563853
    6      -14.563853
    7      -14.563852
    8      -14.563852
    9      -14.523494
   10      -14.523494
   11      -14.523493
   12      -14.523493
   13      -14.493362
   14      -14.493362
   15      -14.493360
   16      -14.493360
   17       -7.578089
   18       -7.578089
   19       -7.578088
   20       -7.578088
   21       -7.440037
   22       -7.440037
   23       -7.440037
   24       -7.440037
   25       -7.303790
   26       -7.303790
   27       -7.303789
   28       -7.303789
   29       -7.116778
   30       -7.116778
   31       -7.116778
   32       -7.116777
   33       -7.027959
   34       -7.027959
   35       -7.027959
   36       -7.027959
   37       -6.962890
   38       -6.962890
   39       -6.962889
   40       -6.962889
   41       -6.887463
   42       -6.887463
   43       -6.887463
   44       -6.887463
   45       -6.790231
   46       -6.790231
   47       -6.790231
   48       -6.790231
   49       -6.753541
   50       -6.753541
   51       -6.753540
   52       -6.753540
   53       -6.750377
   54       -6.750377
   55       -6.750377
   56       -6.750377
   57       -6.623157
   58       -6.623157
   59       -6.623156
   60       -6.623156
   61       -6.591025
   62       -6.591025
   63       -6.591024
   64       -6.591024
   65        2.067122
   66        2.067122
   67        2.067124
   68        2.067124
   69        3.279906
   70        3.279906
   71        3.279907
   72        3.279907
   73        3.635473
   74        3.635473
   75        3.635474
   76        3.635474
   77        3.796703
   78        3.796703
   79        3.796704
   80        3.796704
   81        3.983926
   82        3.983926
   83        3.983927
   84        3.983927
   85        4.430721
   86        4.430721
   87        4.430722
   88        4.430722
   89        4.732593
   90        4.732593
   91        4.732594
   92        4.732594
   93        5.197797
   94        5.197797
   95        5.197798
   96        5.197798
   97        5.361633
   98        5.361633
   99        5.361634
  100        5.361634
  101        5.624362
  102        5.624362
  103        5.624362
  104        5.624362
  105        5.941189
  106        5.941189
 
  0.0000000E+00  0.0000000E+00  0.2500000E+00  0.3125000E-01
    1      -14.857899
    2      -14.710809
    3      -14.681099
    4      -14.633471
    5      -14.622564
    6      -14.608237
    7      -14.604127
    8      -14.558702
    9      -14.544267
   10      -14.539809
   11      -14.526959
   12      -14.518059
   13      -14.493554
   14      -14.473640
   15      -14.462558
   16      -14.460949
   17       -7.591128
   18       -7.578584
   19       -7.556497
   20       -7.556065
   21       -7.520947
   22       -7.496069
   23       -7.472443
   24       -7.444332
   25       -7.338711
   26       -7.338521
   27       -7.290945
   28       -7.244529
   29       -7.243109
   30       -7.242241
   31       -7.233175
   32       -7.131032
   33       -7.071903
   34       -7.057456
   35       -7.000934
   36       -6.985567
   37       -6.952883
   38       -6.904584
   39       -6.866081
   40       -6.862877
   41       -6.861445
   42       -6.855952
   43       -6.850569
   44       -6.850105
   45       -6.787983
   46       -6.782076
   47       -6.781164
   48       -6.751289
   49       -6.748597
   50       -6.733996
   51       -6.726681
   52       -6.720519
   53       -6.706344
   54       -6.693299
   55       -6.681816
   56       -6.678456
   57       -6.666587
   58       -6.661098
   59       -6.660680
   60       -6.656117
   61       -6.653869
   62       -6.614577
   63       -6.579983
   64       -6.567579
   65        1.261140
   66        2.487276
   67        2.514244
   68        2.552185
   69        2.862188
   70        2.952372
   71        3.059936
   72        3.071990
   73        3.220420
   74        3.428578
   75        3.471820
   76        3.596139
   77        3.654304
   78        3.756043
   79        3.902991
   80        4.003314
   81        4.193047
   82        4.290599
   83        4.314642
   84        4.355667
   85        4.514838
   86        4.561443
   87        4.588979
   88        4.591681
   89        4.624320
   90        4.722411
   91        4.774341
   92        4.866696
   93        4.897384
   94        4.906817
   95        4.974185
   96        5.188915
   97        5.327464
   98        5.430318
   99        5.438686
  100        5.539845
  101        5.557260
  102        5.740942
  103        5.906317
  104        5.961847
  105        5.995624
  106        6.007727
 
  0.2500000E+00  0.0000000E+00  0.2500000E+00  0.6250000E-01
    1      -14.844766
    2      -14.752792
    3      -14.674951
    4      -14.635662
    5      -14.607756
    6      -14.604744
    7      -14.589551
    8      -14.550926
    9      -14.541395
   10      -14.539735
   11      -14.526952
   12      -14.516947
   13      -14.498482
   14      -14.488859
   15      -14.462279
   16      -14.460961
   17       -7.589869
   18       -7.567292
   19       -7.551961
   20       -7.505903
   21       -7.496682
   22       -7.480337
   23       -7.474494
   24       -7.459519
   25       -7.369370
   26       -7.349639
   27       -7.336496
   28       -7.331852
   29       -7.321803
   30       -7.293896
   31       -7.146399
   32       -7.067309
   33       -7.040519
   34       -7.015866
   35       -6.983061
   36       -6.977882
   37       -6.942761
   38       -6.897718
   39       -6.878426
   40       -6.858087
   41       -6.854990
   42       -6.845099
   43       -6.839306
   44       -6.836553
   45       -6.799626
   46       -6.788218
   47       -6.776979
   48       -6.750981
   49       -6.748053
   50       -6.743836
   51       -6.738805
   52       -6.728825
   53       -6.714139
   54       -6.700654
   55       -6.689254
   56       -6.688693
   57       -6.683838
   58       -6.679767
   59       -6.670986
   60       -6.629970
   61       -6.629699
   62       -6.620991
   63       -6.590088
   64       -6.565294
   65        1.354632
   66        2.023977
   67        2.574094
   68        2.769256
   69        2.956488
   70        2.977729
   71        3.081509
   72        3.206716
   73        3.272830
   74        3.377838
   75        3.443268
   76        3.618068
   77        3.627241
   78        3.728550
   79        3.952502
   80        3.954841
   81        4.190384
   82        4.212209
   83        4.235603
   84        4.310853
   85        4.390766
   86        4.442590
   87        4.528600
   88        4.673748
   89        4.751606
   90        4.811399
   91        4.838554
   92        4.839118
   93        4.884077
   94        4.912255
   95        5.121776
   96        5.203542
   97        5.240215
   98        5.345189
   99        5.384960
  100        5.474665
  101        5.507548
  102        5.731876
  103        5.810777
  104        5.870610
  105        5.987918
  106        6.057719
 
  0.5000000E+00  0.0000000E+00  0.2500000E+00  0.3125000E-01
    1      -14.807382
    2      -14.807381
    3      -14.658001
    4      -14.658000
    5      -14.606221
    6      -14.606220
    7      -14.545038
    8      -14.545037
    9      -14.530699
   10      -14.530697
   11      -14.529426
   12      -14.529424
   13      -14.510067
   14      -14.510066
   15      -14.461570
   16      -14.461567
   17       -7.571698
   18       -7.571698
   19       -7.509395
   20       -7.509394
   21       -7.452030
   22       -7.452029
   23       -7.434432
   24       -7.434431
   25       -7.429447
   26       -7.429446
   27       -7.374521
   28       -7.374521
   29       -7.357423
   30       -7.357422
   31       -7.069723
   32       -7.069722
   33       -7.019095
   34       -7.019094
   35       -6.958317
   36       -6.958317
   37       -6.884004
   38       -6.884003
   39       -6.854785
   40       -6.854784
   41       -6.841859
   42       -6.841859
   43       -6.834376
   44       -6.834375
   45       -6.808362
   46       -6.808362
   47       -6.789572
   48       -6.789571
   49       -6.757692
   50       -6.757691
   51       -6.736750
   52       -6.736749
   53       -6.711886
   54       -6.711886
   55       -6.699252
   56       -6.699251
   57       -6.684882
   58       -6.684882
   59       -6.650882
   60       -6.650880
   61       -6.614023
   62       -6.614022
   63       -6.581715
   64       -6.581715
   65        1.621652
   66        1.621653
   67        2.644307
   68        2.644308
   69        3.127855
   70        3.127855
   71        3.173648
   72        3.173650
   73        3.310324
   74        3.310325
   75        3.496445
   76        3.496446
   77        3.735200
   78        3.735201
   79        3.938976
   80        3.938977
   81        4.074806
   82        4.074807
   83        4.254304
   84        4.254304
   85        4.438503
   86        4.438504
   87        4.539229
   88        4.539230
   89        4.757803
   90        4.757804
   91        4.799768
   92        4.799768
   93        5.113760
   94        5.113761
   95        5.171589
   96        5.171590
   97        5.282564
   98        5.282565
   99        5.285947
  100        5.285948
  101        5.637110
  102        5.637111
  103        5.725102
  104        5.725102
  105        6.086984
  106        6.087136
 
  0.0000000E+00  0.2500000E+00  0.2500000E+00  0.6250000E-01
    1      -14.831257
    2      -14.695789
    3      -14.668567
    4      -14.662679
    5      -14.619974
    6      -14.618319
    7      -14.609568
    8      -14.559821
    9      -14.548694
   10      -14.544759
   11      -14.543037
   12      -14.497856
   13      -14.490151
   14      -14.475650
   15      -14.472732
   16      -14.463999
   17       -7.579925
   18       -7.525438
   19       -7.521503
   20       -7.519908
   21       -7.484010
   22       -7.470645
   23       -7.446917
   24       -7.356146
   25       -7.324745
   26       -7.316763
   27       -7.278683
   28       -7.258034
   29       -7.254859
   30       -7.211601
   31       -7.182695
   32       -7.175831
   33       -7.146477
   34       -7.044584
   35       -7.037565
   36       -6.995943
   37       -6.984909
   38       -6.916372
   39       -6.886626
   40       -6.851607
   41       -6.850524
   42       -6.850307
   43       -6.839759
   44       -6.838026
   45       -6.831077