   80   80  200    1
  0.1059341E+02  0.1201214E-08  0.8402103E-09  0.8396871E-09  0.5000000E-15
  1.000000000000000E-004
  CAR 
 diamond                                 
    128     27    106
 
  0.0000000E+00  0.0000000E+00  0.0000000E+00  0.1562500E-01
    1      -14.886479
    2      -14.728304
    3      -14.648414
    4      -14.623418
    5      -14.619091
    6      -14.607242
    7      -14.603229
    8      -14.563637
    9      -14.550179
   10      -14.542682
   11      -14.540238
   12      -14.509782
   13      -14.496385
   14      -14.474621
   15      -14.448383
   16      -14.446851
   17       -7.644334
   18       -7.629811
   19       -7.620421
   20       -7.575699
   21       -7.566309
   22       -7.560863
   23       -7.546830
   24       -7.490882
   25       -7.333875
   26       -7.297847
   27       -7.267494
   28       -7.252339
   29       -7.237516
   30       -7.133863
   31       -7.124724
   32       -7.123245
   33       -7.120481
   34       -7.060137
   35       -7.015552
   36       -6.991017
   37       -6.939243
   38       -6.913115
   39       -6.909235
   40       -6.879849
   41       -6.874451
   42       -6.868968
   43       -6.864668
   44       -6.853717
   45       -6.843341
   46       -6.759354
   47       -6.742493
   48       -6.733756
   49       -6.723329
   50       -6.694783
   51       -6.691684
   52       -6.691007
   53       -6.683209
   54       -6.674942
   55       -6.657302
   56       -6.655625
   57       -6.651300
   58       -6.650483
   59       -6.646982
   60       -6.644125
   61       -6.634386
   62       -6.595399
   63       -6.577343
   64       -6.537311
   65        1.061439
   66        2.355079
   67        2.390787
   68        2.773950
   69        2.873846
   70        2.963351
   71        3.170067
   72        3.170619
   73        3.273990
   74        3.304537
   75        3.314281
   76        3.471898
   77        3.527934
   78        3.580859
   79        3.612849
   80        3.790114
   81        4.106821
   82        4.271832
   83        4.389940
   84        4.467445
   85        4.519760
   86        4.610801
   87        4.651106
   88        4.724900
   89        4.782696
   90        4.798784
   91        4.819590
   92        4.829180
   93        4.852838
   94        4.920053
   95        5.306830
   96        5.308327
   97        5.338374
   98        5.404620
   99        5.423396
  100        5.532845
  101        5.592162
  102        5.781684
  103        5.802602
  104        5.925279
  105        5.952666
  106        6.023003
 
  0.2500000E+00  0.0000000E+00  0.0000000E+00  0.3125000E-01
    1      -14.872472
    2      -14.774033
    3      -14.622777
    4      -14.619713
    5      -14.606639
    6      -14.603817
    7      -14.600419
    8      -14.561764
    9      -14.551836
   10      -14.543284
   11      -14.540933
   12      -14.507137
   13      -14.497909
   14      -14.491065
   15      -14.448081
   16      -14.446938
   17       -7.618864
   18       -7.618365
   19       -7.601667
   20       -7.563948
   21       -7.556034
   22       -7.526908
   23       -7.525982
   24       -7.487536
   25       -7.398195
   26       -7.352051
   27       -7.332436
   28       -7.319160
   29       -7.313502
   30       -7.278647
   31       -7.072638
   32       -7.071254
   33       -7.038600
   34       -6.989824
   35       -6.986628
   36       -6.905583
   37       -6.900010
   38       -6.887393
   39       -6.886941
   40       -6.878337
   41       -6.865776
   42       -6.864019
   43       -6.855533
   44       -6.847445
   45       -6.838611
   46       -6.790963
   47       -6.750933
   48       -6.726676
   49       -6.713489
   50       -6.704782
   51       -6.701803
   52       -6.695219
   53       -6.691553
   54       -6.685093
   55       -6.668074
   56       -6.666105
   57       -6.663233
   58       -6.654705
   59       -6.651345
   60       -6.637398
   61       -6.636877
   62       -6.595372
   63       -6.587572
   64       -6.582051
   65        1.162206
   66        1.875211
   67        2.838413
   68        2.847766
   69        2.912658
   70        3.010543
   71        3.121877
   72        3.192675
   73        3.195583
   74        3.259820
   75        3.278168
   76        3.458440
   77        3.551736
   78        3.558677
   79        3.701534
   80        3.847821
   81        4.140458
   82        4.184964
   83        4.229857
   84        4.366033
   85        4.518925
   86        4.543878
   87        4.631511
   88        4.737327
   89        4.758575
   90        4.760937
   91        4.779263
   92        4.831965
   93        4.943660
   94        5.034977
   95        5.162343
   96        5.264349
   97        5.327015
   98        5.417869
   99        5.438617
  100        5.533599
  101        5.542844
  102        5.673331
  103        5.847610
  104        5.861616
  105        6.023581
  106        6.285010
 
  0.5000000E+00  0.0000000E+00  0.0000000E+00  0.1562500E-01
    1      -14.832562
    2      -14.832561
    3      -14.621255
    4      -14.621255
    5      -14.605214
    6      -14.605213
    7      -14.556895
    8      -14.556894
    9      -14.542541
   10      -14.542539
   11      -14.536487
   12      -14.536485
   13      -14.502018
   14      -14.502018
   15      -14.447458
   16      -14.447455
   17       -7.597420
   18       -7.597419
   19       -7.556628
   20       -7.556628
   21       -7.529993
   22       -7.529991
   23       -7.433090
   24       -7.433089
   25       -7.432769
   26       -7.432768
   27       -7.428930
   28       -7.428929
   29       -7.368527
   30       -7.368525
   31       -7.011618
   32       -7.011617
   33       -7.006415
   34       -7.006413
   35       -6.935218
   36       -6.935216
   37       -6.886310
   38       -6.886308
   39       -6.875826
   40       -6.875826
   41       -6.838338
   42       -6.838336
   43       -6.774074
   44       -6.774073
   45       -6.768721
   46       -6.768720
   47       -6.761096
   48       -6.761095
   49       -6.736669
   50       -6.736668
   51       -6.716160
   52       -6.716159
   53       -6.711250
   54       -6.711249
   55       -6.684806
   56       -6.684805
   57       -6.659470
   58       -6.659468
   59       -6.655326
   60       -6.655324
   61       -6.614197
   62       -6.614196
   63       -6.610317
   64       -6.610316
   65        1.448423
   66        1.448425
   67        3.012482
   68        3.012482
   69        3.027104
   70        3.027107
   71        3.131033
   72        3.131033
   73        3.149603
   74        3.149604
   75        3.285599
   76        3.285600
   77        3.596840
   78        3.596841
   79        3.939461
   80        3.939462
   81        4.007784
   82        4.007785
   83        4.234495
   84        4.234497
   85        4.513766
   86        4.513768
   87        4.685385
   88        4.685387
   89        4.692261
   90        4.692262
   91        4.708624
   92        4.708624
   93        5.134268
   94        5.134269
   95        5.235067
   96        5.235067
   97        5.344576
   98        5.344577
   99        5.532933
  100        5.532933
  101        5.587509
  102        5.587510
  103        5.678645
  104        5.678647
  105        6.149836
  106        6.149839
 
  0.0000000E+00  0.2500000E+00  0.0000000E+00  0.3125000E-01
    1      -14.858759
    2      -14.712845
    3      -14.688281
    4      -14.635795
    5      -14.633078
    6      -14.594161
    7      -14.591259
    8      -14.556573
    9      -14.556522
   10      -14.533582
   11      -14.529004
   12      -14.504207
   13      -14.502755
   14      -14.474552
   15      -14.462184
   16      -14.461264
   17       -7.656421
   18       -7.579948
   19       -7.573732
   20       -7.559888
   21       -7.528784
   22       -7.520623
   23       -7.503815
   24       -7.380154
   25       -7.379218
   26       -7.298513
   27       -7.260721
   28       -7.250162
   29       -7.198531
   30       -7.195870
   31       -7.166324
   32       -7.142813
   33       -7.131154
   34       -7.061377
   35       -6.998054
   36       -6.986221
   37       -6.967715
   38       -6.917876
   39       -6.875123
   40       -6.862232
   41       -6.858114
   42       -6.851781
   43       -6.837487
   44       -6.830040
   45       -6.828997
   46       -6.822916
   47       -6.777408
   48       -6.750910
   49       -6.732778
   50       -6.725322
   51       -6.724256
   52       -6.723224
   53       -6.705255
   54       -6.690379
   55       -6.688950
   56       -6.681865
   57       -6.665670
   58       -6.662889
   59       -6.654270
   60       -6.645189
   61       -6.631074
   62       -6.613905
   63       -6.586420
   64       -6.559597
   65        1.258728
   66        2.490953
   67        2.521883
   68        2.525853
   69        2.869576
   70        2.888850
   71        3.084112
   72        3.179995
   73        3.295163
   74        3.357855
   75        3.490457
   76        3.515518
   77        3.610801
   78        3.689278
   79        3.834613
   80        4.065191
   81        4.151139
   82        4.187208
   83        4.253993
   84        4.290045
   85        4.309096
   86        4.620295
   87        4.674806
   88        4.676332
   89        4.696109
   90        4.769705
   91        4.770965
   92        4.824182
   93        4.842545
   94        4.885020
   95        5.160190
   96        5.254596
   97        5.291755
   98        5.346571
   99        5.437147
  100        5.528304
  101        5.674220
  102        5.740484
  103        5.740701
  104        5.872604
  105        6.034969
  106        6.143654
 
  0.2500000E+00  0.2500000E+00  0.0000000E+00  0.6250000E-01
    1      -14.845662
    2      -14.754139
    3      -14.682492
    4      -14.646719
    5      -14.593739
    6      -14.591864
    7      -14.589822
    8      -14.554790
    9      -14.546215
   10      -14.540907
   11      -14.523698
   12      -14.507490
   13      -14.504387
   14      -14.489727
   15      -14.462013
   16      -14.461184
   17       -7.633884
   18       -7.589922
   19       -7.579388
   20       -7.558286
   21       -7.495927
   22       -7.484808
   23       -7.476383
   24       -7.429829
   25       -7.404630
   26       -7.348319
   27       -7.311500
   28       -7.275549
   29       -7.261811
   30       -7.217438
   31       -7.168197
   32       -7.093754
   33       -7.025432
   34       -7.010018
   35       -7.007591
   36       -6.952081
   37       -6.951255
   38       -6.902012
   39       -6.885384
   40       -6.871122
   41       -6.849806
   42       -6.849413
   43       -6.847056
   44       -6.817160
   45       -6.816340
   46       -6.801586
   47       -6.800647
   48       -6.786882
   49       -6.738888
   50       -6.738407
   51       -6.731676
   52       -6.730306
   53       -6.705388
   54       -6.703228
   55       -6.697764
   56       -6.689734
   57       -6.684234
   58       -6.653703
   59       -6.638274
   60       -6.637732
   61       -6.626581
   62       -6.608477
   63       -6.596783
   64       -6.559862
   65        1.352342
   66        2.025150
   67        2.547223
   68        2.759859
   69        2.957121
   70        2.978709
   71        3.119647
   72        3.269518
   73        3.271183
   74        3.394721
   75        3.460275
   76        3.493618
   77        3.582028
   78        3.753841
   79        3.885949
   80        3.972017
   81        4.138353
   82        4.144409
   83        4.174120
   84        4.197044
   85        4.317849
   86        4.564362
   87        4.587018
   88        4.639872
   89        4.721806
   90        4.744200
   91        4.753709
   92        4.772967
   93        5.024115
   94        5.057127
   95        5.108948
   96        5.234852
   97        5.297041
   98        5.419479
   99        5.421478
  100        5.452650
  101        5.582840
  102        5.609900
  103        5.667373
  104        5.930947
  105        5.954938
  106        6.216931
 
  0.5000000E+00  0.2500000E+00  0.0000000E+00  0.3125000E-01
    1      -14.808386
    2      -14.808385
    3      -14.666761
    4      -14.666760
    5      -14.592721
    6      -14.592720
    7      -14.549103
    8      -14.549101
    9      -14.531426
   10      -14.531424
   11      -14.529265
   12      -14.529264
   13      -14.508233
   14      -14.508232
   15      -14.461555
   16      -14.461552
   17       -7.589480
   18       -7.589479
   19       -7.577241
   20       -7.577240
   21       -7.482362
   22       -7.482362
   23       -7.424749
   24       -7.424748
   25       -7.390350
   26       -7.390350
   27       -7.369565
   28       -7.369564
   29       -7.275237
   30       -7.275235
   31       -7.104196
   32       -7.104196
   33       -6.959609
   34       -6.959609
   35       -6.953382
   36       -6.953382
   37       -6.910637
   38       -6.910636
   39       -6.867945
   40       -6.867944
   41       -6.866746
   42       -6.866745
   43       -6.834246
   44       -6.834246
   45       -6.809908
   46       -6.809907
   47       -6.788680
   48       -6.788680
   49       -6.774852
   50       -6.774852
   51       -6.739694
   52       -6.739694
   53       -6.719210
   54       -6.719209
   55       -6.702530
   56       -6.702528
   57       -6.648333
   58       -6.648332
   59       -6.638010
   60       -6.638008
   61       -6.614777
   62       -6.614777
   63       -6.580706
   64       -6.580706
   65        1.620179
   66        1.620180
   67        2.626425
   68        2.626426
   69        3.134048
   70        3.134050
   71        3.198762
   72        3.198762
   73        3.316295
   74        3.316296
   75        3.478789
   76        3.478791
   77        3.725864
   78        3.725865
   79        3.936953
   80        3.936954
   81        4.019133
   82        4.019134
   83        4.143455
   84        4.143457
   85        4.441741
   86        4.441742
   87        4.570786
   88        4.570786
   89        4.678587
   90        4.678588
   91        4.772329
   92        4.772330
   93        5.092106
   94        5.092106
   95        5.295696
   96        5.295696
   97        5.353112
   98        5.353112
   99        5.446386
  100        5.446387
  101        5.482449
  102        5.482450
  103        5.667533
  104        5.667533
  105        6.088804
  106        6.088805
 
  0.0000000E+00  0.5000000E+00  0.0000000E+00  0.1562500E-01
    1      -14.784420
    2      -14.784420
    3      -14.674909
    4      -14.674909
    5      -14.595292
    6      -14.595292
    7      -14.564919
    8      -14.564919
    9      -14.562491
   10      -14.562491
   11      -14.495498
   12      -14.495498
   13      -14.492070
   14      -14.492070
   15      -14.480871
   16      -14.480871
   17       -7.628205
   18       -7.628205
   19       -7.470560
   20       -7.470560
   21       -7.454811
   22       -7.454811
   23       -7.408112
   24       -7.408112
   25       -7.376372
   26       -7.376372
   27       -7.310621
   28       -7.310621
   29       -7.184050
   30       -7.184050
   31       -7.128629
   32       -7.128629
   33       -7.076960
   34       -7.076960
   35       -6.987872
   36       -6.987872
   37       -6.953838
   38       -6.953838
   39       -6.909041
   40       -6.909041
   41       -6.853987
   42       -6.853987
   43       -6.846217
   44       -6.846217
   45       -6.804566
   46       -6.804566
   47       -6.782007
   48       -6.782007
   49       -6.753792
   50       -6.753792
   51       -6.728507
   52       -6.728507
   53       -6.728506
   54       -6.728506
   55       -6.716676
   56       -6.716676
   57       -6.679277
   58       -6.679277
   59       -6.668171
   60       -6.668171
   61       -6.613031
   62       -6.613031
   63       -6.588300
   64       -6.588300
   65        1.790227
   66        1.790227
   67        2.751013
   68        2.751013
   69        2.854511
   70        2.854511
   71        3.147070
   72        3.147070
   73        3.391613
   74        3.391613
   75        3.791911
   76        3.791911
   77        3.822649
   78        3.822649
   79        3.826645
   80        3.826645
   81        3.875898
   82        3.875898
   83        4.399732
   84        4.399732
   85        4.426205
   86        4.426205
   87        4.538156
   88        4.538156
   89        4.566734
   90        4.566734
   91        4.775230
   92        4.775230
   93        4.959485
   94        4.959485
   95        5.125631
   96        5.125631
   97        5.317186
   98        5.317186
   99        5.604984
  100        5.604984
  101        5.752360
  102        5.752360
  103        5.805223
  104        5.805223
  105        5.876857
  106        5.876857
 
  0.2500000E+00  0.5000000E+00  0.0000000E+00  0.3125000E-01
    1      -14.774016
    2      -14.774016
    3      -14.703408
    4      -14.703408
    5      -14.567035
    6      -14.567035
    7      -14.563725
    8      -14.563725
    9      -14.562866
   10      -14.562866
   11      -14.496533
   12      -14.496533
   13      -14.492458
   14      -14.492458
   15      -14.490437
   16      -14.490437
   17       -7.615324
   18       -7.615324
   19       -7.527311
   20       -7.527311
   21       -7.424823
   22       -7.424823
   23       -7.419994
   24       -7.419994
   25       -7.384502
   26       -7.384502
   27       -7.233828
   28       -7.233828
   29       -7.223513
   30       -7.223513
   31       -7.089731
   32       -7.089731
   33       -7.055088
   34       -7.055088
   35       -6.998340
   36       -6.998340
   37       -6.988929
   38       -6.988929
   39       -6.912197
   40       -6.912197
   41       -6.875833
   42       -6.875833
   43       -6.838090
   44       -6.838090
   45       -6.821630
   46       -6.821630
   47       -6.781374
   48       -6.781374
   49       -6.765323
   50       -6.765323
   51       -6.748746
   52       -6.748746
   53       -6.738530
   54       -6.738530
   55       -6.734066
   56       -6.734066
   57       -6.649989
   58       -6.649989
   59       -6.631834
   60       -6.631834
   61       -6.602405
   62       -6.602405
   63       -6.590422
   64       -6.590422
   65        1.860990
   66        1.860990
   67        2.389790
   68        2.389790
   69        3.187194
   70        3.187194
   71        3.248622
   72        3.248622
   73        3.365212
   74        3.365212
   75        3.783242
   76        3.783242
   77        3.788434
   78        3.788434
   79        3.860690
   80        3.860690
   81        3.872724
   82        3.872724
   83        4.197673
   84        4.197673
   85        4.398158
   86        4.398158
   87        4.519745
   88        4.519745
   89        4.694792
   90        4.694792
   91        4.754166
   92        4.754166
   93        4.998122
   94        4.998122
   95        5.203851
   96        5.203851
   97        5.308174
   98        5.308174
   99        5.533668
  100        5.533668
  101        5.661273
  102        5.661273
  103        5.769822
  104        5.769822
  105        5.841635
  106        5.841635
 
  0.5000000E+00  0.5000000E+00  0.0000000E+00  0.1562500E-01
    1      -14.744743
    2      -14.744743
    3      -14.744742
    4      -14.744742
    5      -14.563793
    6      -14.563793
    7      -14.563792
    8      -14.563792
    9      -14.523433
   10      -14.523433
   11      -14.523432
   12      -14.523432
   13      -14.493288
   14      -14.493288
   15      -14.493286
   16      -14.493286
   17       -7.579607
   18       -7.579607
   19       -7.579606
   20       -7.579606
   21       -7.439188
   22       -7.439188
   23       -7.439188
   24       -7.439188
   25       -7.303614
   26       -7.303614
   27       -7.303613
   28       -7.303613
   29       -7.116128
   30       -7.116128
   31       -7.116128
   32       -7.116128
   33       -7.027161
   34       -7.027161
   35       -7.027160
   36       -7.027160
   37       -6.962494
   38       -6.962494
   39       -6.962494
   40       -6.962494
   41       -6.887223
   42       -6.887223
   43       -6.887222
   44       -6.887222
   45       -6.788780
   46       -6.788780
   47       -6.788779
   48       -6.788779
   49       -6.755952
   50       -6.755951
   51       -6.755950
   52       -6.755950
   53       -6.751018
   54       -6.751018
   55       -6.751018
   56       -6.751018
   57       -6.624543
   58       -6.624543
   59       -6.624542
   60       -6.624541
   61       -6.590172
   62       -6.590172
   63       -6.590171
   64       -6.590171
   65        2.067162
   66        2.067162
   67        2.067163
   68        2.067163
   69        3.279608
   70        3.279608
   71        3.279609
   72        3.279609
   73        3.636470
   74        3.636470
   75        3.636471
   76        3.636471
   77        3.795766
   78        3.795766
   79        3.795767
   80        3.795767
   81        3.983254
   82        3.983254
   83        3.983254
   84        3.983254
   85        4.430653
   86        4.430653
   87        4.430653
   88        4.430653
   89        4.731927
   90        4.731927
   91        4.731928
   92        4.731928
   93        5.197436
   94        5.197436
   95        5.197437
   96        5.197437
   97        5.362735
   98        5.362735
   99        5.362736
  100        5.362736
  101        5.624429
  102        5.624429
  103        5.624430
  104        5.624430
  105        5.941269
  106        5.941269
 
  0.0000000E+00  0.0000000E+00  0.2500000E+00  0.3125000E-01
    1      -14.857854
    2      -14.710761
    3      -14.681039
    4      -14.633404
    5      -14.622492
    6      -14.608199
    7      -14.604091
    8      -14.558637
    9      -14.544204
   10      -14.539775
   11      -14.526896
   12      -14.518005
   13      -14.493456
   14      -14.473566
   15      -14.462495
   16      -14.460888
   17       -7.590027
   18       -7.579804
   19       -7.555838
   20       -7.554919
   21       -7.519831
   22       -7.498377
   23       -7.471556
   24       -7.446324
   25       -7.337648
   26       -7.337399
   27       -7.291244
   28       -7.246437
   29       -7.243358
   30       -7.243265
   31       -7.231192
   32       -7.132129
   33       -7.069252
   34       -7.057297
   35       -6.998659
   36       -6.987954
   37       -6.955008
   38       -6.904343
   39       -6.868465
   40       -6.861999
   41       -6.861171
   42       -6.856249
   43       -6.851107
   44       -6.848038
   45       -6.790554
   46       -6.784723
   47       -6.780904
   48       -6.752022
   49       -6.746996
   50       -6.734706
   51       -6.726208
   52       -6.720321
   53       -6.707003
   54       -6.692748
   55       -6.683978
   56       -6.678399
   57       -6.667184
   58       -6.662810
   59       -6.659076
   60       -6.655376
   61       -6.652204
   62       -6.613974
   63       -6.579054
   64       -6.566233
   65        1.260932
   66        2.487152
   67        2.514578
   68        2.551659
   69        2.861968
   70        2.951953
   71        3.059972
   72        3.071300
   73        3.220225
   74        3.428172
   75        3.471879
   76        3.596203
   77        3.654614
   78        3.756268
   79        3.901557
   80        4.002428
   81        4.192641
   82        4.290274
   83        4.314133
   84        4.356993
   85        4.513654
   86        4.560805
   87        4.589286
   88        4.593760
   89        4.624193
   90        4.722005
   91        4.774731
   92        4.867107
   93        4.897418
   94        4.906954
   95        4.973731
   96        5.187896
   97        5.327590
   98        5.429954
   99        5.437874
  100        5.538514
  101        5.556161
  102        5.741080
  103        5.906711
  104        5.961898
  105        5.998564
  106        6.008458
 
  0.2500000E+00  0.0000000E+00  0.2500000E+00  0.6250000E-01
    1      -14.844721
    2      -14.752743
    3      -14.674890
    4      -14.635594
    5      -14.607719
    6      -14.604707
    7      -14.589484
    8      -14.550870
    9      -14.541356
   10      -14.539664
   11      -14.526892
   12      -14.516887
   13      -14.498386
   14      -14.488786
   15      -14.462216
   16      -14.460899
   17       -7.590329
   18       -7.566220
   19       -7.551617
   20       -7.505429
   21       -7.495568
   22       -7.482479
   23       -7.473603
   24       -7.460520
   25       -7.369445
   26       -7.348581
   27       -7.335244
   28       -7.332425
   29       -7.323587
   30       -7.293460
   31       -7.146759
   32       -7.066897
   33       -7.040369
   34       -7.014116
   35       -6.982490
   36       -6.980009
   37       -6.944654
   38       -6.898181
   39       -6.879467
   40       -6.857089
   41       -6.855705
   42       -6.845571
   43       -6.837500
   44       -6.836683
   45       -6.801996
   46       -6.787139
   47       -6.779024
   48       -6.751972
   49       -6.747373
   50       -6.743854
   51       -6.741263
   52       -6.728642
   53       -6.713091
   54       -6.700404
   55       -6.690739
   56       -6.688572
   57       -6.683235
   58       -6.677845
   59       -6.671120
   60       -6.629233
   61       -6.628868
   62       -6.621346
   63       -6.589136
   64       -6.564899
   65        1.354452
   66        2.023971
   67        2.573557
   68        2.768719
   69        2.956661
   70        2.977572
   71        3.081513
   72        3.206553
   73        3.272200
   74        3.377536
   75        3.443354
   76        3.618107
   77        3.627181
   78        3.728901
   79        3.951139
   80        3.954254
   81        4.190822
   82        4.211853
   83        4.234586
   84        4.311190
   85        4.390249
   86        4.443531
   87        4.528805
   88        4.673185
   89        4.751728
   90        4.811761
   91        4.838603
   92        4.839462
   93        4.884952
   94        4.911525
   95        5.120995
   96        5.203328
   97        5.240274
   98        5.344257
   99        5.384332
  100        5.473526
  101        5.507340
  102        5.731943
  103        5.810953
  104        5.872390
  105        5.988120
  106        6.058185
 
  0.5000000E+00  0.0000000E+00  0.2500000E+00  0.3125000E-01
    1      -14.807335
    2      -14.807334
    3      -14.657937
    4      -14.657936
    5      -14.606184
    6      -14.606183
    7      -14.544992
    8      -14.544991
    9      -14.530630
   10      -14.530628
   11      -14.529364
   12      -14.529363
   13      -14.509984
   14      -14.509983
   15      -14.461507
   16      -14.461505
   17       -7.572033
   18       -7.572032
   19       -7.508426
   20       -7.508425
   21       -7.450928
   22       -7.450927
   23       -7.436342
   24       -7.436340
   25       -7.428276
   26       -7.428275
   27       -7.376058
   28       -7.376058
   29       -7.356559
   30       -7.356558
   31       -7.069198
   32       -7.069198
   33       -7.019200
   34       -7.019200
   35       -6.959054
   36       -6.959054
   37       -6.885742
   38       -6.885741
   39       -6.856156
   40       -6.856155
   41       -6.840824
   42       -6.840824
   43       -6.835149
   44       -6.835147
   45       -6.807305
   46       -6.807304
   47       -6.789379
   48       -6.789378
   49       -6.758270
   50       -6.758269
   51       -6.738261
   52       -6.738261
   53       -6.710846
   54       -6.710845
   55       -6.699085
   56       -6.699083
   57       -6.684460
   58       -6.684460
   59       -6.650501
   60       -6.650499
   61       -6.613051
   62       -6.613050
   63       -6.582006
   64       -6.582006
   65        1.621546
   66        1.621547
   67        2.643751
   68        2.643752
   69        3.127799
   70        3.127800
   71        3.173493
   72        3.173496
   73        3.310450
   74        3.310450
   75        3.496023
   76        3.496023
   77        3.734991
   78        3.734991
   79        3.939447
   80        3.939448
   81        4.073593
   82        4.073594
   83        4.254191
   84        4.254191
   85        4.438992
   86        4.438993
   87        4.538718
   88        4.538718
   89        4.757697
   90        4.757698
   91        4.800193
   92        4.800193
   93        5.113969
   94        5.113969
   95        5.171578
   96        5.171578
   97        5.281339
   98        5.281340
   99        5.285670
  100        5.285671
  101        5.637065
  102        5.637067
  103        5.725729
  104        5.725729
  105        6.087062
  106        6.087686
 
  0.0000000E+00  0.2500000E+00  0.2500000E+00  0.6250000E-01
    1      -14.831212
    2      -14.695743
    3      -14.668525
    4      -14.662621
    5      -14.619934
    6      -14.618253
    7      -14.609500
    8      -14.559764
    9      -14.548651
   10      -14.544695
   11      -14.542973
   12      -14.497795
   13      -14.490061
   14      -14.475588
   15      -14.472660
   16      -14.463934
   17       -7.581248
   18       -7.524231
   19       -7.520793
   20       -7.520349
   21       -7.482864
   22       -7.472739
   23       -7.447221
   24       -7.355913
   25       -7.323548
   26       -7.318611
   27       -7.276984
   28       -7.256797
   29       -7.254704
   30       -7.212687
   31       -7.180770
   32       -7.176818
   33       -7.146829
   34       -7.042411
   35       -7.037280
   36       -6.997174
   37       -6.986663
   38       -6.916469
   39       -6.887008
   40       -6.851808
   41       -6.850638
   42       -6.850509
   43       -6.841434
   44       -6.837757
   45       -6.833083