    2    2  200    1
  0.6584890E+01  0.2650724E-09  0.2650724E-09  0.2650724E-09  0.5000000E-15
  1.000000000000000E-004
  CAR 
 graphite                                
      8    194      8
 
  0.0000000E+00  0.0000000E+00  0.0000000E+00  0.8680556E-03
    1      -11.863823
    2        7.709675
    3        7.709675
    4        7.709676
    5       12.890819
    6       12.890820
    7       12.890821
    8       17.791037
 
  0.8333333E-01  0.6938894E-17 -0.6938894E-17  0.3472222E-02
    1      -11.690784
    2        6.612715
    3        7.437051
    4        7.437052
    5       13.247937
    6       13.247938
    7       13.435977
    8       18.057511
 
  0.1666667E+00 -0.2775558E-16 -0.4163336E-16  0.3472222E-02
    1      -11.174471
    2        4.331870
    3        6.835452
    4        6.835453
    5       14.040055
    6       14.040056
    7       14.139712
    8       18.855851
 
  0.2500000E+00 -0.1387779E-16 -0.4163336E-16  0.6944444E-02
    1      -10.325274
    2        1.774796
    3        6.205258
    4        6.205259
    5       14.474499
    6       14.810593
    7       14.810594
    8       19.973894
 
  0.3333333E+00  0.2775558E-16 -0.1387779E-16  0.3472222E-02
    1       -9.170771
    2       -0.718057
    3        5.700206
    4        5.700206
    5       14.589630
    6       15.293998
    7       15.293999
    8       21.041180
 
  0.4166667E+00 -0.5551115E-16 -0.8326673E-16  0.3472222E-02
    1       -7.809823
    2       -2.919446
    3        5.382090
    4        5.382090
    5       14.623993
    6       15.490980
    7       15.490982
    8       21.742604
 
  0.5000000E+00 -0.2775558E-16 -0.8326673E-16  0.3472222E-02
    1       -6.893944
    2       -4.120971
    3        5.274400
    4        5.274401
    5       14.631438
    6       15.534147
    7       15.534148
    8       21.965974
 
  0.8333333E-01  0.8333333E-01 -0.2081668E-16  0.1736111E-02
    1      -11.633116
    2        6.946705
    3        6.946705
    4        7.079715
    5       12.700590
    6       13.837833
    7       13.837834
    8       18.065956
 
  0.1666667E+00  0.8333333E-01 -0.5551115E-16  0.3472222E-02
    1      -11.231208
    2        5.103430
    3        6.258104
    4        6.832569
    5       12.939005
    6       14.661509
    7       14.756527
    8       18.480653
 
  0.2500000E+00  0.8333333E-01 -0.4163336E-16  0.1041667E-01
    1      -10.492545
    2        2.671741
    3        5.628680
    4        6.257186
    5       13.667654
    6       15.145692
    7       15.594953
    8       19.232309
 
  0.3333333E+00  0.8333333E-01  0.0000000E+00  0.6944444E-02
    1       -9.437057
    2        0.179673
    3        5.180240
    4        5.605475
    5       14.323179
    6       15.377660
    7       16.085691
    8       20.146582
 
  0.4166667E+00  0.8333333E-01 -0.1110223E-15  0.3472222E-02
    1       -8.126029
    2       -2.123854
    3        4.960480
    4        5.046551
    5       14.676189
    6       15.529020
    7       16.194761
    8       21.100280
 
  0.5000000E+00  0.8333333E-01 -0.8326673E-16  0.1041667E-01
    1       -6.892863
    2       -3.821562
    3        4.658914
    4        4.980515
    5       14.851760
    6       15.642715
    7       16.060369
    8       21.749054
 
 -0.4166667E+00  0.8333333E-01  0.5551115E-16  0.6944444E-02
    1       -7.234710
    2       -3.384645
    3        4.483465
    4        5.230446
    5       14.960022
    6       15.753985
    7       15.800223
    8       21.715599
 
 -0.3333333E+00  0.8333333E-01  0.1387779E-16  0.3472222E-02
    1       -8.584005
    2       -1.386703
    3        4.542813
    4        5.682900
    5       15.007005
    6       15.408687
    7       15.813720
    8       21.008677
 
 -0.2500000E+00  0.8333333E-01  0.2775558E-16  0.1041667E-01
    1       -9.822453
    2        1.006643
    3        4.844611
    4        6.286166
    5       14.803103
    6       14.960806
    7       15.605052
    8       20.022483
 
 -0.1666667E+00  0.8333333E-01  0.1734723E-16  0.6944444E-02
    1      -10.775686
    2        3.500738
    3        5.382272
    4        6.936748
    5       14.012716
    6       14.711232
    7       14.957612
    8       19.117213
 
 -0.8333333E-01  0.8333333E-01  0.1237177E-17  0.1736111E-02
    1      -11.403301
    2        5.660452
    3        6.233488
    4        7.421449
    5       13.342941
    6       13.949621
    7       14.209616
    8       18.423774
 
  0.1666667E+00  0.1666667E+00 -0.4163336E-16  0.1736111E-02
    1      -10.944731
    2        5.480083
    3        5.520804
    4        5.520804
    5       12.254184
    6       15.802275
    7       15.802276
    8       18.122042
 
  0.2500000E+00  0.1666667E+00 -0.5551115E-16  0.1041667E-01
    1      -10.320208
    2        3.460090
    3        4.866130
    4        5.263773
    5       12.467617
    6       16.571642
    7       16.790316
    8       18.020437
 
  0.3333333E+00  0.1666667E+00 -0.2775558E-16  0.3472222E-02
    1       -9.372633
    2        1.156776
    3        4.414372
    4        4.601793
    5       13.194137
    6       16.837379
    7       17.425882
    8       18.366118
 
  0.4166667E+00  0.1666667E+00 -0.1110223E-15  0.6944444E-02
    1       -8.143394
    2       -1.114992
    3        3.864821
    4        4.216019
    5       13.794112
    6       17.024063
    7       17.601043
    8       19.228889
 
  0.5000000E+00  0.1666667E+00 -0.8326673E-16  0.1041667E-01
    1       -6.808873
    2       -3.040144
    3        3.243336
    4        4.284123
    5       14.172136
    6       17.113879
    7       17.410591
    8       20.548586
 
 -0.4166667E+00  0.1666667E+00  0.9714451E-16  0.3472222E-02
    1       -6.481529
    2       -3.443812
    3        2.829034
    4        4.606555
    5       14.523842
    6       16.990891
    7       17.140954
    8       21.389332
 
 -0.3333333E+00  0.1666667E+00  0.0000000E+00  0.6944444E-02
    1       -7.700567
    2       -1.779396
    3        2.673914
    4        5.145807
    5       14.898808
    6       16.384709
    7       17.137155
    8       20.780023
 
 -0.2500000E+00  0.1666667E+00  0.3469447E-16  0.1041667E-01
    1       -8.997054
    2        0.422457
    3        2.827274
    4        5.827947
    5       15.187143
    6       15.573202
    7       16.900548
    8       19.701662
 
 -0.1666667E+00  0.1666667E+00  0.1352124E-16  0.1736111E-02
    1      -10.042885
    2        2.472513
    3        3.550272
    4        6.510183
    5       14.661948
    6       15.215787
    7       16.004317
    8       19.241363
 
  0.2500000E+00  0.2500000E+00 -0.5551115E-16  0.5208333E-02
    1       -9.810994
    2        3.338762
    3        4.171984
    4        4.171984
    5       11.795713
    6       16.790985
    7       17.996504
    8       17.996505
 
  0.3333333E+00  0.2500000E+00  0.0000000E+00  0.1041667E-01
    1       -8.976272
    2        1.704869
    3        3.538130
    4        3.679626
    5       12.082314
    6       16.148089
    7       18.819783
    8       18.883114
 
  0.4166667E+00  0.2500000E+00 -0.1110223E-15  0.1041667E-01
    1       -7.845985
    2       -0.222568
    3        2.619663
    4        3.448991
    5       12.801968
    6       16.462624
    7       19.161255
    8       19.257327
 
  0.5000000E+00  0.2500000E+00 -0.8326673E-16  0.2083333E-01
    1       -6.523226
    2       -2.082148
    3        1.730563
    4        3.499777
    5       13.299297
    6       17.839182
    7       19.130570
    8       19.332841
 
 -0.4166667E+00  0.2500000E+00  0.5551115E-16  0.1041667E-01
    1       -5.667765
    2       -3.096381
    3        1.070102
    4        3.824023
    5       13.719571
    6       18.619106
    7       18.871222
    8       20.190990
 
 -0.3333333E+00  0.2500000E+00 -0.3469447E-17  0.1041667E-01
    1       -6.572233
    2       -1.948726
    3        0.745584
    4        4.385254
    5       14.240370
    6       17.795683
    7       18.984452
    8       20.565954
 
 -0.2500000E+00  0.2500000E+00  0.2509827E-16  0.1041667E-01
    1       -7.880555
    2       -0.308026
    3        1.089703
    4        5.104800
    5       14.807031
    6       16.711824
    7       18.538908
    8       19.574719
 
  0.3333333E+00  0.3333333E+00 -0.2775558E-16  0.1736111E-02
    1       -8.255711
    2        0.913878
    3        3.130826
    4        3.130826
    5       11.534292
    6       14.834765
    7       20.081480
    8       20.081481
 
  0.4166667E+00  0.3333333E+00 -0.1110223E-15  0.3472222E-02
    1       -7.233299
    2       -0.442100
    3        2.345893
    4        2.841334
    5       11.949417
    6       14.392100
    7       20.730131
    8       20.743734
 
  0.5000000E+00  0.3333333E+00 -0.1110223E-15  0.1041667E-01
    1       -5.975159
    2       -1.814883
    3        1.107082
    4        2.839203
    5       12.579840
    6       15.318650
    7       20.771019
    8       20.911713
 
 -0.4166667E+00  0.3333333E+00  0.2428613E-16  0.6944444E-02
    1       -4.849522
    2       -2.867879
    3        0.016384
    4        3.122948
    5       13.004146
    6       17.396892
    7       20.218178
    8       20.861845
 
 -0.3333333E+00  0.3333333E+00  0.3042407E-16  0.1736111E-02
    1       -5.343475
    2       -2.379065
    3       -0.370652
    4        3.662289
    5       13.547330
    6       19.177878
    7       19.496042
    8       20.544416
 
  0.4166667E+00  0.4166667E+00 -0.1110223E-15  0.1736111E-02
    1       -6.319999
    2       -1.612084
    3        2.482551
    4        2.482551
    5       11.615298
    6       13.211171
    7       21.707138
    8       21.707139
 
  0.5000000E+00  0.4166667E+00 -0.1110223E-15  0.1041667E-01
    1       -5.150487
    2       -2.826181
    3        1.796050
    4        2.410559
    5       12.139799
    6       13.173797
    7       21.936945
    8       22.003308
 
 -0.4166667E+00  0.4166667E+00  0.2415229E-16  0.1736111E-02
    1       -4.082926
    2       -3.645578
    3        0.611961
    4        2.631525
    5       12.518333
    6       14.895921
    7       21.404623
    8       21.747602
 
  0.5000000E+00  0.5000000E+00 -0.1110223E-15  0.2604167E-02
    1       -4.071059
    2       -4.071059
    3        2.262915
    4        2.262916
    5       12.146178
    6       12.146178
    7       22.356569
    8       22.356569
 
  0.0000000E+00  0.0000000E+00  0.1250000E+00  0.1736111E-02
    1      -11.475121
    2        5.542207
    3        7.155230
    4        7.155230
    5       13.620418
    6       13.620419
    7       13.830522
    8       18.396063
 
  0.8333333E-01  0.6938894E-17  0.1250000E+00  0.3472222E-02
    1      -11.474913
    2        6.166942
    3        6.607286
    4        6.998174
    5       12.722584
    6       14.271349
    7       14.283798
    8       18.221067
 
  0.1666667E+00 -0.2775558E-16  0.1250000E+00  0.3472222E-02
    1      -11.130709
    2        5.374665
    3        5.890826
    4        6.288898
    5       12.497201
    6       15.226812
    7       15.263882
    8       18.288740
 
  0.2500000E+00 -0.1387779E-16  0.1250000E+00  0.5208333E-02
    1      -10.448817
    2        3.105562
    3        5.251475
    4        5.844222
    5       13.046089
    6       15.820983
    7       16.167592
    8       18.651894
 
  0.3333333E+00  0.2775558E-16  0.1250000E+00  0.3472222E-02
    1       -9.446452
    2        0.675322
    3        4.807722
    4        5.168310
    5       13.783210
    6       16.073769
    7       16.715186
    8       19.293310
 
  0.4166667E+00 -0.5551115E-16  0.1250000E+00  0.3472222E-02
    1       -8.173481
    2       -1.634717
    3        4.514119
    4        4.607395
    5       14.278760
    6       16.205064
    7       16.838555
    8       20.285636
 
  0.5000000E+00 -0.2775558E-16  0.1250000E+00  0.5208333E-02
    1       -6.869804
    2       -3.476742
    3        4.005763
    4        4.661698
    5       14.583427
    6       16.270439
    7       16.659798
    8       21.320058
 
 -0.4166667E+00  0.5551115E-16  0.1250000E+00  0.3472222E-02
    1       -6.873333
    2       -3.468725
    3        3.706481
    4        4.958254
    5       14.849132
    6       16.310342
    7       16.315835
    8       21.614231
 
 -0.3333333E+00 -0.2775558E-16  0.1250000E+00  0.3472222E-02
    1       -8.177088
    2       -1.617751
    3        3.652649
    4        5.462937
    5       15.079115
    6       15.811196
    7       16.340494
    8       20.889853
 
 -0.2500000E+00  0.1387779E-16  0.1250000E+00  0.5208333E-02
    1       -9.448758
    2        0.694958
    3        3.867779
    4        6.110747
    5       15.111314
    6       15.184138
    7       16.147340
    8       19.874579
 
 -0.1666667E+00 -0.1387779E-16  0.1250000E+00  0.3472222E-02
    1      -10.450163
    2        3.067955
    3        4.403732
    4        6.775622
    5       14.274544
    6       15.063758
    7       15.422263
    8       19.182159
 
 -0.8333333E-01 -0.6938894E-17  0.1250000E+00  0.3472222E-02
    1      -11.131398
    2        4.682055
    3        5.743824
    4        7.218984
    5       13.633463
    6       14.390496
    7       14.580121
    8       18.737260
 
  0.8333333E-01  0.8333333E-01  0.1250000E+00  0.1736111E-02
    1      -11.590031
    2        6.238237
    3        6.925508
    4        7.501915
    5       13.202182
    6       13.557981
    7       13.779196
    8       18.194294
 
  0.1666667E+00  0.8333333E-01  0.1250000E+00  0.3472222E-02
    1      -11.360234
    2        5.472299
    3        6.321238
    4        7.229417
    5       13.139096
    6       14.242913
    7       14.347366
    8       18.438139
 
  0.2500000E+00  0.8333333E-01  0.1250000E+00  0.6944444E-02
    1      -10.789522
    2        3.868700
    3        5.063634
    4        6.872296
    5       13.649057
    6       14.995082
    7       15.201379
    8       18.912398
 
  0.3333333E+00  0.8333333E-01  0.1250000E+00  0.3472222E-02
    1       -9.890433
    2        1.468236
    3        4.460411
    4        6.244037
    5       14.442422
    6       15.263520
    7       15.994170
    8       19.594773
 
  0.4166667E+00  0.8333333E-01  0.1250000E+00  0.3472222E-02
    1       -8.696666
    2       -0.928461
    3        4.134624
    4        5.600200
    5       15.043788
    6       15.336879
    7       16.342358
    8       20.548420
 
  0.5000000E+00  0.8333333E-01  0.1250000E+00  0.6944444E-02
    1       -7.338582
    2       -3.012741
    3        4.051589
    4        5.093135
    5       15.136927
    6       15.488277
    7       16.454516
    8       21.456995
 
 -0.4166667E+00  0.8333333E-01  0.1250000E+00  0.3472222E-02
    1       -6.687152
    2       -3.850682
    3        4.161902
    4        4.832162
    5       14.967475
    6       15.642149
    7       16.538939
    8       21.668942
 
 -0.3333333E+00  0.8333333E-01  0.1250000E+00  0.3472222E-02
    1       -7.787282
    2       -2.383872
    3        4.336398
    4        4.959028
    5       14.727711
    6       15.715566
    7       16.596522
    8       20.985075
 
 -0.2500000E+00  0.8333333E-01  0.1250000E+00  0.6944444E-02
    1       -9.122294
    2       -0.156276
    3        4.570371
    4        5.449561
    5       14.334919
    6       15.681316
    7       16.504104
    8       19.968394
 
 -0.1666667E+00  0.8333333E-01  0.1250000E+00  0.3472222E-02
    1      -10.224664
    2        2.283504
    3        4.988284
    4        6.090922
    5       13.663346
    6       15.515321
    7       16.064754
    8       19.131750
 
 -0.8333333E-01  0.8333333E-01  0.1250000E+00  0.3472222E-02
    1      -11.016782
    2        4.659616
    3        5.619666
    4        6.661451
    5       12.935658
    6       15.098629
    7       15.228109
    8       18.548305
 
  0.1666667E+00  0.1666667E+00  0.1250000E+00  0.1736111E-02
    1      -11.245809
    2        4.739566
    3        6.587494
    4        7.038286
    5       13.488423
    6       14.254415
    7       14.331059
    8       18.674785
 
  0.3333333E+00  0.1666667E+00  0.1250000E+00  0.3472222E-02
    1      -10.000718
    2        2.286709
    3        3.726788
    4        6.359509
    5       14.388323
    6       15.360541
    7       16.239172
    8       19.166833
 
  0.4166667E+00  0.1666667E+00  0.1250000E+00  0.3472222E-02
    1       -8.903695
    2       -0.016689
    3        3.269656
    4        5.674750
    5       15.216962
    6       15.355809
    7       16.885146
    8       19.857369
 
  0.5000000E+00  0.1666667E+00  0.1250000E+00  0.6944444E-02
    1       -7.576509
    2       -2.204412
    3        3.153266
    4        5.043486
    5       15.110328
    6       15.822971
    7       17.104823
    8       20.949772
 
 -0.4166667E+00  0.1666667E+00  0.1250000E+00  0.3472222E-02
    1       -6.481566
    2       -3.661504
    3        3.293328
    4        4.596900
    5       14.793861
    6       16.163535
    7       17.245899
    8       21.469905
 
 -0.3333333E+00  0.1666667E+00  0.1250000E+00  0.3472222E-02
    1       -7.123544
    2       -2.846702
    3        3.610187
    4        4.442233
    5       14.475674
    6       16.359521
    7       17.350581
    8       20.715250
 
 -0.2500000E+00  0.1666667E+00  0.1250000E+00  0.6944444E-02
    1       -8.474958
    2       -0.803079
    3        3.951058
    4        4.712557
    5       14.082557
    6       16.421896
    7       17.327467
    8       19.514562
 
 -0.1666667E+00  0.1666667E+00  0.1250000E+00  0.3472222E-02
    1       -9.664653
    2        1.527333
    3        4.332413
    4        5.309498
    5       13.438476
    6       16.321109
    7       17.027541
    8       18.671945
 
 -0.8333333E-01  0.1666667E+00  0.1250000E+00  0.3472222E-02
    1      -10.561278
    2        3.835112
    3        4.907012
    4        5.899666
    5       12.703561
    6       16.003657
    7       16.284581
    8       18.325148
 
  0.3333333E+00  0.2500000E+00  0.1250000E+00  0.6944444E-02
    1       -9.774336
    2        2.277345
    3        3.703790
    4        5.443502
    5       13.280951
    6       16.413247
    7       17.338525
    8       18.235221
 
  0.4166667E+00  0.2500000E+00  0.1250000E+00  0.6944444E-02
    1       -8.784528
    2        0.824666
    3        2.494388
    4        4.837719
    5       14.155754
    6       16.498046
    7       18.014141
    8       18.552769
 
  0.5000000E+00  0.2500000E+00  0.1250000E+00  0.1041667E-01
    1       -7.530920
    2       -1.217781
    3        2.136375
    4        4.175056
    5       14.962450
    6       16.257047
    7       18.393754
    8       19.594501
 
 -0.4166667E+00  0.2500000E+00  0.1250000E+00  0.6944444E-02
    1       -6.250848
    2       -2.962496
    3        2.055960
    4        3.742845
    5       15.410020
    6       15.924031
    7       18.854540
    8       20.603067
 
  0.3333333E+00  0.3333333E+00  0.1250000E+00  0.1736111E-02
    1       -9.215699
    2        1.549652
    3        4.011965
    4        4.030926
    5       12.608095
    6       16.935698
    7       18.126810
    8       18.164904
 
  0.4166667E+00  0.3333333E+00  0.1250000E+00  0.3472222E-02
    1       -8.339272
    2        0.697037
    3        2.554616
    4        3.706276
    5       12.978014
    6       16.412766
    7       18.274948
    8       19.542650
 
  0.5000000E+00  0.3333333E+00  0.1250000E+00  0.6944444E-02
    1       -7.182027
    2       -0.586224
    3        1.555139
    4        3.055492
    5       13.996228
    6       16.559640
    7       18.085493
    8       20.484256
 
 -0.4166667E+00  0.3333333E+00  0.1250000E+00  0.3472222E-02
    1       -5.875981
    2       -2.149927
    3        0.981092
    4        2.682128
    5       14.694087
    6       17.698412
    7       17.932186
    8       20.643816
 
 -0.3333333E+00  0.3333333E+00  0.1250000E+00  0.3472222E-02
    1       -5.279847
    2       -2.804209
    3        0.570308
    4        2.827916
    5       15.148863
    6       17.298517
    7       19.589276
    8       19.991456
 
 -0.2500000E+00  0.3333333E+00  0.1250000E+00  0.6944444E-02
    1       -6.346850
    2       -1.572565
    3        0.494855
    4        3.372618
    5       15.670896
    6       16.565566
    7       18.741534
    8       20.394047
 
 -0.1666667E+00  0.3333333E+00  0.1250000E+00  0.3472222E-02
    1       -7.620811
    2       -0.469708
    3        1.392558
    4        4.122544
    5       15.266392
    6       16.214297
    7       18.220795
    8       19.628622
 
 -0.8333333E-01  0.3333333E+00  0.1250000E+00  0.3472222E-02
    1       -8.680534
    2        0.063624
    3        3.205791
    4        4.798991
    5       14.085686
    6       16.481956
    7       17.812440
    8       18.859282
 
  0.4166667E+00  0.4166667E+00  0.1250000E+00  0.1736111E-02
    1       -7.578553
    2       -0.132327
    3        2.316143
    4        3.118040
    5       12.344960
    6       15.346643
    7       19.993158
    8       20.046015
 
  0.5000000E+00  0.4166667E+00  0.1250000E+00  0.6944444E-02
    1       -6.530557
    2       -1.152419
    3        1.711860
    4        2.447475
    5       12.921940
    6       14.886562
    7       20.029761
    8       21.235534
 
 -0.4166667E+00  0.4166667E+00  0.1250000E+00  0.3472222E-02
    1       -5.276280
    2       -2.251707
    3        0.977259
    4        1.842943
    5       14.062766
    6       15.418403
    7       19.783620
    8       21.350966
 
 -0.3333333E+00  0.4166667E+00  0.1250000E+00  0.3472222E-02
    1       -4.328927
    2       -3.009568
    3        0.012269
    4        2.059284
    5       14.564206
    6       17.493293
    7       19.333700
    8       20.308135
 
 -0.2500000E+00  0.4166667E+00  0.1250000E+00  0.6944444E-02
    1       -5.122149
    2       -2.446816
    3       -0.056220
    4        2.664273
    5       15.088696
    6       17.954240
    7       19.467903
    8       19.684668
 
 -0.1666667E+00  0.4166667E+00  0.1250000E+00  0.3472222E-02
    1       -6.303374
    2       -2.241415
    3        1.223377
    4        3.491302
    5       15.677366
    6       16.124100
    7       19.047465
    8       20.326819
 
 -0.8333333E-01  0.4166667E+00  0.1250000E+00  0.3472222E-02
    1       -7.358643
    2       -2.066038
    3        2.948739
    4        4.279458
    5       14.633781
    6       16.312226
    7       18.064213
    8       20.027206
 
  0.5000000E+00  0.5000000E+00  0.1250000E+00  0.5208333E-02
    1       -5.596943
    2       -2.233561
    3        1.383688
    4        2.591808
    5       12.318986
    6       14.143372
    7       21.434115
    8       21.549136
 
 -0.4166667E+00  0.5000000E+00  0.1250000E+00  0.6944444E-02
    1       -4.436936
    2       -3.320596
    3        1.305150
    4        1.961861
    5       13.119756
    6       13.960014
    7       21.405184
    8       21.743570
 
 -0.3333333E+00  0.5000000E+00  0.1250000E+00  0.6944444E-02
    1       -4.263323
    2       -3.219313
    3        0.849398
    4        1.603640
    5       14.141738
    6       15.116254
    7       20.537186
    8       21.130075
 
 -0.2500000E+00  0.5000000E+00  0.1250000E+00  0.1041667E-01
    1       -5.027963
    2       -2.582916
    3        0.394854
    4        2.255441
    5       14.608341
    6       17.626084
    7       18.575072
    8       20.681343
 
 -0.1666667E+00  0.5000000E+00  0.1250000E+00  0.6944444E-02
    1       -5.664331
    2       -3.028754
    3        1.354997
    4        3.181993
    5       15.262582
    6       16.563271
    7       19.382887
    8       20.355515
 
 -0.8333333E-01  0.5000000E+00  0.1250000E+00  0.6944444E-02
    1       -6.273916
    2       -3.487119
    3        2.762895
    4        4.136337
    5       15.004766
    6       16.020758
    7       18.145992
    8       21.092956
 
 -0.4166667E+00 -0.4166667E+00  0.1250000E+00  0.1736111E-02
    1       -4.513446
    2       -3.362953
    3        1.211720
    4        2.485105
    5       12.351032
    6       13.857872
    7       21.762024
    8       21.942174
 
 -0.3333333E+00 -0.4166667E+00  0.1250000E+00  0.3472222E-02
    1       -5.510835
    2       -2.215278
    3        1.443630
    4        2.117499
    5       13.004911
    6       14.319967
    7       20.807002
    8       21.679909
 
 -0.2500000E+00 -0.4166667E+00  0.1250000E+00  0.6944444E-02
    1       -6.259084
    2       -1.368433
    3        1.217493
    4        2.334211
    5       14.000910
    6       15.919435
    7       18.941372
    8       21.125262
 
 -0.1666667E+00 -0.4166667E+00  0.1250000E+00  0.3472222E-02
    1       -6.727295
    2       -1.708960
    3        1.578266
    4        3.353023
    5       14.815598
    6       16.945025
    7       18.229481
    8       20.159999
 
 -0.8333333E-01 -0.4166667E+00  0.1250000E+00  0.3472222E-02
    1       -6.918754
    2       -2.665263
    3        2.634848
    4        4.421351
    5       15.362824
    6       15.665802
    7       18.042621
    8       20.815038
 
 -0.3333333E+00 -0.3333333E+00  0.1250000E+00  0.1736111E-02
    1       -6.625393
    2       -1.137051
    3        1.743876
    4        2.803771
    5       12.305272
    6       14.657312
    7       20.835373
    8       20.861756
 
 -0.2500000E+00 -0.3333333E+00  0.1250000E+00  0.6944444E-02
    1       -7.477474
    2       -0.176788
    3        2.089626
    4        2.978693
    5       12.912838
    6       15.599860
    7       19.163187
    8       20.488252
 
 -0.1666667E+00 -0.3333333E+00  0.1250000E+00  0.3472222E-02
    1       -8.027761
    2        0.128280
    3        1.982685
    4        3.926216
    5       14.051667
    6       17.203632
    7       17.352590
    8       19.567729
 
 -0.8333333E-01 -0.3333333E+00  0.1250000E+00  0.3472222E-02
    1       -8.261325
    2       -0.655544
    3        2.691848
    4        4.994506
    5       15.114896
    6       15.709288
    7       17.818347
    8       19.619520
 
 -0.2500000E+00 -0.2500000E+00  0.1250000E+00  0.5208333E-02
    1       -8.444772
    2        0.752130
    3        3.095651
    4        3.529618
    5       12.447479
    6       16.156688
    7       19.034851
    8       19.138079
 
 -0.1666667E+00 -0.2500000E+00  0.1250000E+00  0.6944444E-02
    1       -9.107055
    2        1.499286
    3        3.095091
    4        4.562012
    5       13.106515
    6       17.048439
    7       17.612362
    8       18.490137
 
 -0.8333333E-01 -0.2500000E+00  0.1250000E+00  0.6944444E-02
    1       -9.444122
    2        1.538821
    3        3.081161
    4        5.682690
    5       14.285202
    6       15.852861
    7       17.319411
    8       18.785007
 
 -0.1666667E+00 -0.1666667E+00  0.1250000E+00  0.1736111E-02
    1       -9.885223
    2        2.320835
    3        4.610605
    4        4.960524
    5       12.813875
    6       16.731759
    7       17.164513
    8       18.140011
 
 -0.8333333E-01 -0.1666667E+00  0.1250000E+00  0.3472222E-02
    1      -10.336323
    2        3.063739
    3        4.368189
    4        6.247387
    5       13.476478
    6       15.647695
    7       16.235921
    8       18.760703
 
 -0.8333333E-01 -0.8333333E-01  0.1250000E+00  0.1736111E-02
    1      -10.903157
    2        3.915585
    3        5.925959
    4        6.570749
    5       13.280694
    6       14.950755
    7       15.207099
    8       18.827389
 
  0.1666667E+00  0.8333333E-01  0.2500000E+00  0.3472222E-02
    1      -10.717952
    2        4.034520
    3        4.860537
    4        6.498202
    5       13.133820
    6       15.438021
    7       15.736020
    8       18.637643
 
  0.3333333E+00  0.8333333E-01  0.2500000E+00  0.6944444E-02
    1       -9.590586
    2        2.371972
    3        3.549734
    4        4.846044
    5       12.718886
    6       17.005495
    7       17.654061
    8       17.974495
 
  0.4166667E+00  0.8333333E-01  0.2500000E+00  0.6944444E-02
    1       -8.550461
    2        0.490180
    3        2.796473
    4        4.249196
    5       13.531653
    6       17.158811
    7       17.605770
    8       18.910420
 
  0.5000000E+00  0.8333333E-01  0.2500000E+00  0.2083333E-01
    1       -7.263384
    2       -1.558974
    3        2.373057
    4        3.759693
    5       14.183487
    6       17.158556
    7       18.243038
    8       19.532181
 
 -0.4166667E+00  0.8333333E-01  0.2500000E+00  0.1388889E-01
    1       -6.062912
    2       -3.131131
    3        1.998520
    4        3.686634
    5       14.604408
    6       16.851576
    7       18.877289
    8       20.431659
 
 -0.3333333E+00  0.8333333E-01  0.2500000E+00  0.6944444E-02
    1       -6.407706
    2       -2.690946
    3        1.727226
    4        4.025258
    5       15.031363
    6       16.437421
    7       18.796209
    8       20.725577
 
 -0.2500000E+00  0.8333333E-01  0.2500000E+00  0.2083333E-01
    1       -7.724416
    2       -0.841732
    3        1.712351
    4        4.635749
    5       15.490459
    6       15.785671
    7       18.513433
    8       19.601866
 
 -0.1666667E+00  0.8333333E-01  0.2500000E+00  0.6944444E-02
    1       -8.937455
    2        0.998909
    3        2.291807
    4        5.355090
    5       14.792028
    6       15.818953
    7       17.978927
    8       18.701675
 
 -0.8333333E-01  0.8333333E-01  0.2500000E+00  0.6944444E-02
    1       -9.874412
    2        1.918878
    3        4.053379
    4        5.936711
    5       13.883260
    6       15.762313
    7       16.649269
    8       18.961357
 
  0.4166667E+00  0.3333333E+00  0.2500000E+00  0.6944444E-02
    1       -8.729163
    2       -0.433422
    3        3.672482
    4        5.278396