   80   80  200    1
  0.1059341E+02  0.1201214E-08  0.8402103E-09  0.8396871E-09  0.5000000E-15
  1.000000000000000E-004
  CAR 
 diamond                                 
    128     27    106
