Automatically generated mesh
      27
Reciprocal lattice
    0.00000000000000    0.00000000000000    0.00000000000000             1
    0.25000000000000    0.00000000000000    0.00000000000000             2
    0.50000000000000    0.00000000000000    0.00000000000000             1
    0.00000000000000    0.25000000000000    0.00000000000000             2
    0.25000000000000    0.25000000000000    0.00000000000000             4
    0.50000000000000    0.25000000000000    0.00000000000000             2
    0.00000000000000    0.50000000000000    0.00000000000000             1
    0.25000000000000    0.50000000000000    0.00000000000000             2
    0.50000000000000    0.50000000000000    0.00000000000000             1
    0.00000000000000    0.00000000000000    0.25000000000000             2
    0.25000000000000    0.00000000000000    0.25000000000000             4
    0.50000000000000    0.00000000000000    0.25000000000000             2
    0.00000000000000    0.25000000000000    0.25000000000000             4
    0.25000000000000    0.25000000000000    0.25000000000000             8
    0.50000000000000    0.25000000000000    0.25000000000000             4
    0.00000000000000    0.50000000000000    0.25000000000000             2
    0.25000000000000    0.50000000000000    0.25000000000000             4
    0.50000000000000    0.50000000000000    0.25000000000000             2
    0.00000000000000    0.00000000000000    0.50000000000000             1
    0.25000000000000    0.00000000000000    0.50000000000000             2
    0.50000000000000    0.00000000000000    0.50000000000000             1
    0.00000000000000    0.25000000000000    0.50000000000000             2
    0.25000000000000    0.25000000000000    0.50000000000000             4
    0.50000000000000    0.25000000000000    0.50000000000000             2
    0.00000000000000    0.50000000000000    0.50000000000000             1
    0.25000000000000    0.50000000000000    0.50000000000000             2
    0.50000000000000    0.50000000000000    0.50000000000000             1
Tetrahedra
       192    0.00260416666667
         2         1         2         5        10
         2         1         4         5        10
         2         4         5        10        13
         2         2         5        10        11
         2         5        10        11        14
         2         5        10        13        14
         2         2         3         6        11
         2         2         5         6        11
         2         5         6        11        14
         2         3         6        11        12
         2         6        11        12        15
         2         6        11        14        15
         2         2         3         5        12
         2         3         5         6        12
         2         5         6        12        15
         2         2         5        11        12
         2         5        11        12        14
         2         5        12        14        15
         2         1         2         4        11
         2         2         4         5        11
         2         4         5        11        14
         2         1         4        10        11
         2         4        10        11        13
         2         4        11        13        14
         2         4         5         8        13
         2         4         7         8        13
         2         7         8        13        16
         2         5         8        13        14
         2         8        13        14        17
         2         8        13        16        17
         2         5         6         9        14
         2         5         8         9        14
         2         8         9        14        17
         2         6         9        14        15
         2         9        14        15        18
         2         9        14        17        18
         2         5         6         8        15
         2         6         8         9        15
         2         8         9        15        18
         2         5         8        14        15
         2         8        14        15        17
         2         8        15        17        18
         2         4         5         7        14
         2         5         7         8        14
         2         7         8        14        17
         2         4         7        13        14
         2         7        13        14        16
         2         7        14        16        17
         2         5         7         8        16
         2         4         5         7        16
         2         4         5        13        16
         2         5         8        16        17
         2         5        14        16        17
         2         5        13        14        16
         2         6         8         9        17
         2         5         6         8        17
         2         5         6        14        17
         2         6         9        17        18
         2         6        15        17        18
         2         6        14        15        17
         2         5         8         9        18
         2         5         6         9        18
         2         5         6        15        18
         2         5         8        17        18
         2         5        14        17        18
         2         5        14        15        18
         2         4         7         8        17
         2         4         5         8        17
         2         4         5        14        17
         2         4         7        16        17
         2         4        13        16        17
         2         4        13        14        17
         2         2         4         5        13
         2         1         2         4        13
         2         1         2        10        13
         2         2         5        13        14
         2         2        11        13        14
         2         2        10        11        13
         2         3         5         6        14
         2         2         3         5        14
         2         2         3        11        14
         2         3         6        14        15
         2         3        12        14        15
         2         3        11        12        14
         2         2         5         6        15
         2         2         3         6        15
         2         2         3        12        15
         2         2         5        14        15
         2         2        11        14        15
         2         2        11        12        15
         2         1         4         5        14
         2         1         2         5        14
         2         1         2        11        14
         2         1         4        13        14
         2         1        10        13        14
         2         1        10        11        14
         2        10        11        14        19
         2        10        13        14        19
         2        13        14        19        22
         2        11        14        19        20
         2        14        19        20        23
         2        14        19        22        23
         2        11        12        15        20
         2        11        14        15        20
         2        14        15        20        23
         2        12        15        20        21
         2        15        20        21        24
         2        15        20        23        24
         2        11        12        14        21
         2        12        14        15        21
         2        14        15        21        24
         2        11        14        20        21
         2        14        20        21        23
         2        14        21        23        24
         2        10        11        13        20
         2        11        13        14        20
         2        13        14        20        23
         2        10        13        19        20
         2        13        19        20        22
         2        13        20        22        23
         2        13        14        17        22
         2        13        16        17        22
         2        16        17        22        25
         2        14        17        22        23
         2        17        22        23        26
         2        17        22        25        26
         2        14        15        18        23
         2        14        17        18        23
         2        17        18        23        26
         2        15        18        23        24
         2        18        23        24        27
         2        18        23        26        27
         2        14        15        17        24
         2        15        17        18        24
         2        17        18        24        27
         2        14        17        23        24
         2        17        23        24        26
         2        17        24        26        27
         2        13        14        16        23
         2        14        16        17        23
         2        16        17        23        26
         2        13        16        22        23
         2        16        22        23        25
         2        16        23        25        26
         2        14        16        17        25
         2        13        14        16        25
         2        13        14        22        25
         2        14        17        25        26
         2        14        23        25        26
         2        14        22        23        25
         2        15        17        18        26
         2        14        15        17        26
         2        14        15        23        26
         2        15        18        26        27
         2        15        24        26        27
         2        15        23        24        26
         2        14        17        18        27
         2        14        15        18        27
         2        14        15        24        27
         2        14        17        26        27
         2        14        23        26        27
         2        14        23        24        27
         2        13        16        17        26
         2        13        14        17        26
         2        13        14        23        26
         2        13        16        25        26
         2        13        22        25        26
         2        13        22        23        26
         2        11        13        14        22
         2        10        11        13        22
         2        10        11        19        22
         2        11        14        22        23
         2        11        20        22        23
         2        11        19        20        22
         2        12        14        15        23
         2        11        12        14        23
         2        11        12        20        23
         2        12        15        23        24
         2        12        21        23        24
         2        12        20        21        23
         2        11        14        15        24
         2        11        12        15        24
         2        11        12        21        24
         2        11        14        23        24
         2        11        20        23        24
         2        11        20        21        24
         2        10        13        14        23
         2        10        11        14        23
         2        10        11        20        23
         2        10        13        22        23
         2        10        19        22        23
         2        10        19        20        23
