 running on    8 total cores
 distrk:  each k-point on    8 cores,    1 groups
 distr:  one band on    4 cores,    2 groups
 using from now: INCAR     
 vasp.5.3.5 31Mar14 (build Nov 02 2014 15:17:37) complex                        
  
 POSCAR found type information on POSCAR  H  C 
 POSCAR found :  2 types and      80 ions
 scaLAPACK will be used

 ----------------------------------------------------------------------------- 
|                                                                             |
|  ADVICE TO THIS USER RUNNING 'VASP/VAMP'   (HEAR YOUR MASTER'S VOICE ...):  |
|                                                                             |
|      You have a (more or less) 'large supercell' and for larger cells       |
|      it might be more efficient to use real space projection operators      |
|      So try LREAL= Auto  in the INCAR   file.                               |
|      Mind: If you want to do a very accurate calculations keep the          |
|      reciprocal projection scheme          (i.e. LREAL=.FALSE.)             |
|                                                                             |
 ----------------------------------------------------------------------------- 

 LDA part: xc-table for Pade appr. of Perdew
 POSCAR, INCAR and KPOINTS ok, starting setup
 WARNING: small aliasing (wrap around) errors must be expected
 FFT: planning ...
 WAVECAR not read
 WARNING: random wavefunctions but no delay for mixing, default for NELMDL
 entering main loop
       N       E                     dE             d eps       ncg     rms          rms(c)
RMM:   1     0.155665011281E+04    0.15567E+04   -0.37959E+04  2862   0.891E+02
RMM:   2     0.501166985302E+03   -0.10555E+04   -0.11087E+04  2862   0.209E+02
RMM:   3    -0.577843388495E+02   -0.55895E+03   -0.52031E+03  2862   0.140E+02
RMM:   4    -0.251065695818E+03   -0.19328E+03   -0.16483E+03  2862   0.102E+02
RMM:   5    -0.295104589541E+03   -0.44039E+02   -0.40303E+02  2862   0.560E+01
RMM:   6    -0.306474242615E+03   -0.11370E+02   -0.10409E+02  2862   0.303E+01
RMM:   7    -0.309370751830E+03   -0.28965E+01   -0.27431E+01  2862   0.161E+01
RMM:   8    -0.310150258846E+03   -0.77951E+00   -0.73944E+00  2862   0.845E+00
RMM:   9    -0.310413709951E+03   -0.26345E+00   -0.25666E+00  5724   0.444E+00
RMM:  10    -0.310438455290E+03   -0.24745E-01   -0.23206E-01  5753   0.132E+00
RMM:  11    -0.310439976977E+03   -0.15217E-02   -0.14458E-02  5724   0.309E-01
RMM:  12    -0.310440130813E+03   -0.15384E-03   -0.14856E-03  5930   0.923E-02    0.548E+01
RMM:  13    -0.210024402901E+03    0.10042E+03   -0.19125E+02  5724   0.282E+01    0.215E+01
RMM:  14    -0.199230090871E+03    0.10794E+02   -0.33432E+01  5724   0.116E+01    0.963E+00
RMM:  15    -0.197754290855E+03    0.14758E+01   -0.22548E+00  5724   0.397E+00    0.101E+00
RMM:  16    -0.197769491763E+03   -0.15201E-01   -0.14428E-01  5724   0.104E+00    0.503E-01
RMM:  17    -0.197795759828E+03   -0.26268E-01   -0.75603E-02  5724   0.648E-01    0.409E-01
RMM:  18    -0.197793278272E+03    0.24816E-02   -0.11558E-02  5724   0.267E-01    0.861E-02
RMM:  19    -0.197793712080E+03   -0.43381E-03   -0.10958E-03  5724   0.965E-02    0.687E-02
RMM:  20    -0.197793585787E+03    0.12629E-03   -0.16752E-04  5724   0.271E-02    0.217E-02
RMM:  21    -0.197793589059E+03   -0.32714E-05   -0.14018E-04  5724   0.264E-02    0.103E-02
RMM:  22    -0.197793585838E+03    0.32207E-05   -0.38555E-06  5075   0.541E-03    0.762E-03
RMM:  23    -0.197793585019E+03    0.81909E-06   -0.87839E-06  5724   0.608E-03
   1 F= -.20029014E+03 E0= -.20029014E+03  d E =-.200290E+03
 curvature:   0.00 expect dE= 0.000E+00 dE for cont linesearch  0.000E+00
 trial: gam= 0.00000 g(F)=  0.179E+05 g(S)=  0.000E+00 ort = 0.000E+00 (trialstep = 0.100E+01)
 search vector abs. value=  0.179E+05
 bond charge predicted
       N       E                     dE             d eps       ncg     rms          rms(c)
RMM:   1    -0.665215859116E+02    0.13127E+03   -0.14434E+03  7968   0.714E+01    0.461E+01
RMM:   2    -0.997417047524E+02   -0.33220E+02   -0.15483E+03  9408   0.678E+01    0.216E+01
RMM:   3    -0.160879365121E+03   -0.61138E+02   -0.77437E+02  8948   0.471E+01    0.271E+01
RMM:   4    -0.153126113949E+03    0.77533E+01   -0.17694E+02  9061   0.215E+01    0.276E+01
RMM:   5    -0.131735574215E+03    0.21391E+02   -0.72883E+01  7933   0.119E+01    0.165E+01
RMM:   6    -0.148456962166E+03   -0.16721E+02   -0.24747E+02  7508   0.208E+01    0.234E+01
RMM:   7    -0.125170120107E+03    0.23287E+02    0.17524E+01  8683   0.976E+00    0.903E+00
RMM:   8    -0.130697988654E+03   -0.55279E+01   -0.71118E+01  7658   0.129E+01    0.109E+01
RMM:   9    -0.125414080610E+03    0.52839E+01    0.36163E+00  8456   0.396E+00    0.617E+00
RMM:  10    -0.124551621034E+03    0.86246E+00   -0.10889E+01  7443   0.498E+00    0.269E+00
RMM:  11    -0.124151138419E+03    0.40048E+00    0.40325E-01  8405   0.168E+00    0.855E-01
RMM:  12    -0.124182800309E+03   -0.31662E-01   -0.13002E-01  8314   0.848E-01    0.146E+00
RMM:  13    -0.124219645568E+03   -0.36845E-01   -0.15292E-02  8934   0.453E-01    0.185E+00
RMM:  14    -0.124173647060E+03    0.45999E-01   -0.22984E-03  7793   0.289E-01    0.153E+00
RMM:  15    -0.124110827931E+03    0.62819E-01   -0.18496E-01  7446   0.635E-01    0.374E-01
RMM:  16    -0.124114544861E+03   -0.37169E-02   -0.33623E-02  8949   0.506E-01    0.555E-01
RMM:  17    -0.124107878747E+03    0.66661E-02   -0.35407E-04  8218   0.126E-01    0.428E-01
WARNING in EDDRMM: call to ZHEGV failed, returncode =   6  3 19
WARNING in EDDRMM: call to ZHEGV failed, returncode =   6  3 20
RMM:  18    -0.124107873480E+03    0.52668E-05   -0.37528E-05  8689   0.338E-02    0.429E-01
RMM:  19    -0.124104072095E+03    0.38014E-02   -0.68268E-03  7759   0.144E-01    0.174E-01
RMM:  20    -0.124103422904E+03    0.64919E-03    0.10294E-03  8139   0.602E-02    0.154E-01
WARNING in EDDRMM: call to ZHEGV failed, returncode =   6  3  5
RMM:  21    -0.124103076774E+03    0.34613E-03    0.28888E-04  8436   0.418E-02    0.137E-01
RMM:  22    -0.124102810127E+03    0.26665E-03    0.18562E-04  8185   0.289E-02    0.116E-01
RMM:  23    -0.124102732089E+03    0.78037E-04   -0.31689E-04  7912   0.267E-02    0.855E-02
RMM:  24    -0.124102709512E+03    0.22578E-04   -0.77361E-05  8038   0.216E-02    0.627E-02
RMM:  25    -0.124102697531E+03    0.11981E-04   -0.60012E-05  7359   0.950E-03    0.571E-02
WARNING in EDDRMM: call to ZHEGV failed, returncode =   8  4  5
WARNING in EDDRMM: call to ZHEGV failed, returncode =   8  4 11
WARNING in EDDRMM: call to ZHEGV failed, returncode =   8  4  1
WARNING in EDDRMM: call to ZHEGV failed, returncode =   6  3 11
WARNING in EDDRMM: call to ZHEGV failed, returncode =   8  4  4
WARNING in EDDRMM: call to ZHEGV failed, returncode =   8  4 15
WARNING in EDDRMM: call to ZHEGV failed, returncode =   8  4  4
RMM:  26    -0.124102681376E+03    0.16155E-04   -0.57191E-05  6994   0.535E-03    0.550E-02
WARNING in EDDRMM: call to ZHEGV failed, returncode =   6  3  7
WARNING in EDDRMM: call to ZHEGV failed, returncode =   6  3  7
WARNING in EDDRMM: call to ZHEGV failed, returncode =   8  4  3
RMM:  27    -0.124102658282E+03    0.23094E-04   -0.55276E-05  6724   0.551E-03    0.510E-02
 num prob WARNING in EDDRMM: call to ZHEGV failed, returncode =   6  3 12
 num prob  num prob  num prob  num prob  num prob  num prob  num prob  num prob  num prob  num prob  num prob  num prob  num prob RMM:  28    -0.124102657547E+03    0.73521E-06   -0.39786E-05  6294   0.396E-03    0.492E-02
WARNING in EDDRMM: call to ZHEGV failed, returncode =   8  4  5
RMM:  29    -0.124102642546E+03    0.15001E-04   -0.33663E-05  7297   0.899E-03    0.397E-02
WARNING in EDDRMM: call to ZHEGV failed, returncode =   8  4  6
WARNING in EDDRMM: call to ZHEGV failed, returncode =   8  4  6
WARNING in EDDRMM: call to ZHEGV failed, returncode =   6  3  4
RMM:  30    -0.124102628824E+03    0.13722E-04   -0.23507E-05  7514   0.964E-03    0.188E-01
WARNING in EDDRMM: call to ZHEGV failed, returncode =   6  3 29
WARNING in EDDRMM: call to ZHEGV failed, returncode =   6  3 18
WARNING in EDDRMM: call to ZHEGV failed, returncode =   6  3 14
RMM:  31    -0.124102603509E+03    0.25315E-04   -0.41345E-05  6338   0.100E-02    0.403E-02
RMM:  32    -0.124102556089E+03    0.47420E-04    0.28573E-05  7086   0.183E-02    0.267E-02
 num prob  num prob  num prob WARNING in EDDRMM: call to ZHEGV failed, returncode =   6  3 15
WARNING in EDDRMM: call to ZHEGV failed, returncode =   8  4 28
 num prob WARNING in EDDRMM: call to ZHEGV failed, returncode =   6  3 22
 num prob WARNING in EDDRMM: call to ZHEGV failed, returncode =   8  4 24
 num prob  num prob  num prob WARNING in EDDRMM: call to ZHEGV failed, returncode =   8  4 30
 num prob WARNING in EDDRMM: call to ZHEGV failed, returncode =   6  3 23
 num prob  num prob RMM:  33    -0.124102570128E+03   -0.14039E-04   -0.22832E-05  5860   0.610E-03    0.264E-02
WARNING in EDDRMM: call to ZHEGV failed, returncode =   6  3 23
WARNING in EDDRMM: call to ZHEGV failed, returncode =   6  3 17
WARNING in EDDRMM: call to ZHEGV failed, returncode =   8  4 32
RMM:  34    -0.124102583478E+03   -0.13350E-04   -0.29867E-05  6252   0.462E-03    0.225E-02
WARNING in EDDRMM: call to ZHEGV failed, returncode =   6  3  7
RMM:  35    -0.124102585550E+03   -0.20724E-05   -0.17123E-05  6511   0.758E-03    0.139E-02
WARNING in EDDRMM: call to ZHEGV failed, returncode =   8  4  2
 num prob RMM:  36    -0.124102602725E+03   -0.17176E-04   -0.14403E-05  7325   0.598E-03    0.191E-01
WARNING in EDDRMM: call to ZHEGV failed, returncode =   8  4  5
WARNING in EDDRMM: call to ZHEGV failed, returncode =   6  3 18
WARNING in EDDRMM: call to ZHEGV failed, returncode =   8  4  2
WARNING in EDDRMM: call to ZHEGV failed, returncode =   6  3 12
WARNING in EDDRMM: call to ZHEGV failed, returncode =   6  3 20
WARNING in EDDRMM: call to ZHEGV failed, returncode =   8  4  1
RMM:  37    -0.124102554967E+03    0.47759E-04   -0.25050E-05  6732   0.926E-03    0.149E-02
WARNING in EDDRMM: call to ZHEGV failed, returncode =   8  4  5
WARNING in EDDRMM: call to ZHEGV failed, returncode =   8  4  6
WARNING in EDDRMM: call to ZHEGV failed, returncode =   8  4  4
WARNING in EDDRMM: call to ZHEGV failed, returncode =   8  4  6
WARNING in EDDRMM: call to ZHEGV failed, returncode =   8  4  2
WARNING in EDDRMM: call to ZHEGV failed, returncode =   6  3  7
RMM:  38    -0.124102575337E+03   -0.20370E-04   -0.16939E-05  6733   0.978E-03    0.909E-03
 num prob  num prob  num prob  num prob  num prob  num prob  num prob WARNING in EDDRMM: call to ZHEGV failed, returncode =   8  4  4
 num prob WARNING in EDDRMM: call to ZHEGV failed, returncode =   8  4  4
 num prob  num prob  num prob  num prob  num prob  num prob  num prob  num prob  num prob  num prob  num prob WARNING in EDDRMM: call to ZHEGV failed, returncode =   6  3  4
 num prob  num prob  num prob  num prob  num prob WARNING in EDDRMM: call to ZHEGV failed, returncode =   8  4  1
RMM:  39    -0.124102579011E+03   -0.36740E-05   -0.17050E-05  5225   0.352E-03    0.897E-03
 num prob  num prob  num prob  num prob  num prob  num prob  num prob  num prob  num prob  num prob  num prob  num prob  num prob  num prob  num prob  num prob  num prob  num prob  num prob  num prob  num prob  num prob  num prob  num prob  num prob  num prob  num prob  num prob  num prob  num prob  num prob  num prob  num prob  num prob  num prob  num prob  num prob  num prob  num prob  num prob  num prob  num prob  num prob  num prob WARNING in EDDRMM: call to ZHEGV failed, returncode =   8  4  4
 num prob  num prob  num prob  num prob  num prob  num prob  num prob  num prob  num prob  num prob  num prob  num prob  num prob  num prob RMM:  40    -0.124102581033E+03   -0.20221E-05   -0.18780E-05  3943   0.172E-03    0.887E-03
 num prob WARNING in EDDRMM: call to ZHEGV failed, returncode =   8  4  6
 num prob RMM:  41    -0.124102584887E+03   -0.38544E-05   -0.19559E-05  4111   0.173E-03    0.813E-03
 num prob  num prob  num prob RMM:  42    -0.124102588219E+03   -0.33317E-05   -0.15866E-05  4074   0.167E-03    0.771E-03
RMM:  43    -0.124102590658E+03   -0.24389E-05   -0.17089E-05  3992   0.152E-03    0.736E-03
WARNING in EDDRMM: call to ZHEGV failed, returncode =   8  4  7
RMM:  44    -0.124102595178E+03   -0.45196E-05   -0.14033E-05  4432   0.170E-03    0.633E-03
 num prob  num prob  num prob  num prob  num prob  num prob  num prob  num prob  num prob  num prob RMM:  45    -0.124102602501E+03   -0.73232E-05   -0.14749E-05  4087   0.157E-03    0.192E-01
RMM:  46    -0.124102539463E+03    0.63038E-04   -0.28648E-05  6461   0.128E-02    0.287E-02
WARNING in EDDRMM: call to ZHEGV failed, returncode =   6  3  5
RMM:  47    -0.124102566028E+03   -0.26565E-04   -0.32946E-06  6659   0.110E-02    0.168E-02
 num prob  num prob  num prob  num prob  num prob  num prob  num prob  num prob  num prob  num prob  num prob  num prob  num prob  num prob  num prob  num prob  num prob  num prob  num prob  num prob  num prob  num prob  num prob  num prob  num prob  num prob  num prob  num prob  num prob  num prob  num prob  num prob  num prob  num prob  num prob  num prob  num prob  num prob  num prob  num prob  num prob  num prob  num prob  num prob  num prob  num prob  num prob  num prob  num prob  num prob RMM:  48    -0.124102571541E+03   -0.55122E-05    0.66475E-07  5741   0.401E-03    0.150E-02
WARNING in EDDRMM: call to ZHEGV failed, returncode =   8  4 25
WARNING in EDDRMM: call to ZHEGV failed, returncode =   8  4 29
WARNING in EDDRMM: call to ZHEGV failed, returncode =   6  3 24
RMM:  49    -0.124102578877E+03   -0.73361E-05   -0.13159E-05  4867   0.225E-03    0.128E-02
WARNING in EDDRMM: call to ZHEGV failed, returncode =   8  4 24
WARNING in EDDRMM: call to ZHEGV failed, returncode =   6  3 23
RMM:  50    -0.124102586932E+03   -0.80557E-05   -0.29811E-06  4618   0.198E-03    0.108E-02
 num prob  num prob  num prob  num prob  num prob  num prob  num prob RMM:  51    -0.124102592754E+03   -0.58220E-05   -0.10574E-05  4405   0.163E-03    0.948E-03
 num prob  num prob  num prob RMM:  52    -0.124102599007E+03   -0.62524E-05    0.34467E-08  3938   0.137E-03    0.905E-03
WARNING in EDDRMM: call to ZHEGV failed, returncode =   6  3  8
RMM:  53    -0.124102605587E+03   -0.65806E-05   -0.10489E-05  3977   0.137E-03    0.871E-03
RMM:  54    -0.124102661690E+03   -0.56102E-04   -0.12751E-05  3919   0.134E-03    0.804E-03
RMM:  55    -0.124118232019E+03   -0.15570E-01   -0.14979E-04  3883   0.131E-03    0.777E-03
RMM:  56    -0.124156310247E+03   -0.38078E-01    0.34582E+00  3859   0.936E-02    0.626E-02
RMM:  57    -0.124105731565E+03    0.50579E-01   -0.50492E-02  4118   0.665E-05    0.985E-03
WARNING in EDDRMM: call to ZHEGV failed, returncode =   6  3 18
WARNING in EDDRMM: call to ZHEGV failed, returncode =   6  3 30
RMM:  58    -0.124102572886E+03    0.31587E-02   -0.12784E-05  5941   0.498E-03    0.181E-02
WARNING in EDDRMM: call to ZHEGV failed, returncode =   6  3 16
RMM:  59    -0.124102603335E+03   -0.30449E-04   -0.10100E-05  6508   0.451E-03    0.826E-03
 num prob  num prob  num prob  num prob  num prob  num prob  num prob  num prob  num prob  num prob  num prob  num prob  num prob  num prob  num prob  num prob  num prob  num prob  num prob  num prob  num prob  num prob WARNING in EDDRMM: call to ZHEGV failed, returncode =   8  4  1
 num prob  num prob  num prob  num prob  num prob  num prob  num prob WARNING in EDDRMM: call to ZHEGV failed, returncode =   8  4  1
 num prob  num prob  num prob  num prob  num prob  num prob  num prob  num prob  num prob  num prob  num prob  num prob  num prob  num prob  num prob  num prob  num prob  num prob  num prob RMM:  60    -0.124102605093E+03   -0.17576E-05   -0.70946E-06  4538   0.192E-03    0.798E-03
 num prob  num prob  num prob  num prob  num prob  num prob  num prob  num prob  num prob  num prob  num prob  num prob  num prob  num prob  num prob  num prob  num prob  num prob  num prob  num prob  num prob  num prob WARNING in EDDRMM: call to ZHEGV failed, returncode =   6  3 19
RMM:  61    -0.124102607681E+03   -0.25875E-05   -0.46865E-06  4017   0.149E-03    0.759E-03
RMM:  62    -0.124102838820E+03   -0.23114E-03   -0.53781E-03  4061   0.138E-03    0.720E-03
 num prob  num prob RMM:  63    -0.124102613361E+03    0.22546E-03   -0.63731E-05  3842   0.134E-03    0.693E-03
 num prob  num prob RMM:  64    -0.124107733978E+03   -0.51206E-02   -0.48710E-03  3873   0.114E-03    0.676E-03
RMM:  65    -0.124150675393E+03   -0.42941E-01    0.10904E+00  3852   0.252E-02    0.345E-02
WARNING in EDDRMM: call to ZHEGV failed, returncode =   6  3 18
RMM:  66    -0.124102614148E+03    0.48061E-01    0.10299E-03  4238   0.205E-03    0.626E-03
RMM:  67    -0.124103634020E+03   -0.10199E-02   -0.88253E-06  4078   0.188E-03    0.608E-03
 num prob RMM:  68    -0.124157013308E+03   -0.53379E-01    0.78450E-01  3843   0.237E-02    0.165E-01
RMM:  69    -0.124102581362E+03    0.54432E-01    0.71658E-03  5923   0.812E-03    0.168E-02
WARNING in EDDRMM: call to ZHEGV failed, returncode =   6  3 16
RMM:  70    -0.124105236357E+03   -0.26550E-02   -0.42138E-06  6479   0.609E-03    0.787E-03
 num prob  num prob  num prob WARNING in EDDRMM: call to ZHEGV failed, returncode =   8  4  2
 num prob  num prob  num prob  num prob  num prob  num prob  num prob  num prob  num prob  num prob  num prob  num prob  num prob  num prob  num prob  num prob  num prob  num prob  num prob  num prob  num prob  num prob  num prob  num prob  num prob  num prob  num prob  num prob  num prob WARNING in EDDRMM: call to ZHEGV failed, returncode =   6  3 15
RMM:  71    -0.124185122835E+03   -0.79886E-01    0.20375E+00  4424   0.486E-02    0.508E-02
WARNING in EDDRMM: call to ZHEGV failed, returncode =   6  3 14
RMM:  72    -0.124102617973E+03    0.82505E-01   -0.25553E-03  4963   0.335E-03    0.192E-01
RMM:  73    -0.124102650220E+03   -0.32247E-04   -0.27782E-03  6925   0.131E-02    0.335E-02
RMM:  74    -0.124121747533E+03   -0.19097E-01   -0.91078E-05  6297   0.779E-03    0.186E-02
 num prob  num prob  num prob  num prob  num prob  num prob  num prob  num prob  num prob  num prob  num prob  num prob  num prob  num prob  num prob  num prob  num prob  num prob  num prob  num prob  num prob WARNING in EDDRMM: call to ZHEGV failed, returncode =   6  3 22
 num prob  num prob  num prob  num prob  num prob  num prob  num prob  num prob  num prob  num prob  num prob  num prob WARNING in EDDRMM: call to ZHEGV failed, returncode =   8  4 24
 num prob  num prob  num prob  num prob  num prob  num prob  num prob  num prob  num prob  num prob  num prob  num prob RMM:  75    -0.124094261586E+03    0.27486E-01    0.11425E+00  5889   0.283E-02    0.154E-02
 num prob  num prob  num prob  num prob  num prob  num prob  num prob  num prob  num prob  num prob  num prob  num prob  num prob  num prob  num prob  num prob  num prob  num prob  num prob  num prob  num prob  num prob  num prob  num prob  num prob  num prob  num prob  num prob  num prob  num prob  num prob  num prob  num prob  num prob  num prob  num prob  num prob  num prob  num prob WARNING in EDDRMM: call to ZHEGV failed, returncode =   6  3 25
 num prob  num prob  num prob  num prob  num prob  num prob  num prob  num prob  num prob  num prob  num prob  num prob  num prob  num prob  num prob RMM:  76    -0.124105887169E+03   -0.11626E-01   -0.62424E-02  4270  -0.371E-04    0.185E-02
RMM:  77    -0.124105714409E+03    0.17276E-03   -0.45145E-02  4162   0.136E-04    0.187E-02
WARNING in EDDRMM: call to ZHEGV failed, returncode =   6  3 22
WARNING in EDDRMM: call to ZHEGV failed, returncode =   6  3 29
RMM:  78    -0.124102763390E+03    0.29510E-02   -0.16206E-03  4497   0.239E-03    0.155E-02
RMM:  79    -0.124102612434E+03    0.15096E-03   -0.51150E-05  4849   0.206E-03    0.124E-02
RMM:  80    -0.124103617065E+03   -0.10046E-02   -0.46419E-03  4478   0.172E-03    0.106E-02
 num prob  num prob  num prob  num prob  num prob  num prob  num prob WARNING in EDDRMM: call to ZHEGV failed, returncode =   6  3 32
 num prob  num prob  num prob  num prob  num prob  num prob  num prob  num prob  num prob  num prob  num prob  num prob  num prob  num prob  num prob  num prob  num prob  num prob  num prob  num prob  num prob  num prob  num prob  num prob  num prob  num prob  num prob  num prob  num prob RMM:  81    -0.124289246529E+03   -0.18563E+00    0.11235E+00  4147   0.262E-02    0.254E-02
RMM:  82    -0.124094182514E+03    0.19506E+00    0.49128E+00  4136   0.103E-01    0.659E-02
RMM:  83    -0.124102726564E+03   -0.85441E-02   -0.14916E-02  5884   0.377E-03    0.191E-01
RMM:  84    -0.124105517831E+03   -0.27913E-02   -0.34505E-02  6865   0.872E-03    0.297E-02
RMM:  85    -0.124102592835E+03    0.29250E-02   -0.38299E-04  5904   0.769E-03    0.164E-02
 num prob  num prob  num prob  num prob  num prob  num prob  num prob  num prob  num prob  num prob  num prob  num prob  num prob  num prob  num prob  num prob  num prob  num prob  num prob  num prob  num prob  num prob  num prob  num prob  num prob  num prob  num prob  num prob  num prob  num prob  num prob  num prob  num prob  num prob  num prob  num prob  num prob  num prob  num prob  num prob  num prob  num prob  num prob  num prob  num prob  num prob  num prob  num prob  num prob  num prob  num prob  num prob  num prob  num prob  num prob  num prob  num prob  num prob  num prob  num prob  num prob  num prob  num prob  num prob  num prob  num prob  num prob  num prob  num prob  num prob  num prob  num prob  num prob  num prob  num prob  num prob  num prob  num prob  num prob  num prob  num prob  num prob RMM:  86    -0.124102595967E+03   -0.31321E-05   -0.97904E-05  5242   0.288E-03    0.146E-02
 num prob  num prob  num prob RMM:  87    -0.124102833137E+03   -0.23717E-03   -0.45150E-03  4816   0.184E-03    0.132E-02
 num prob  num prob  num prob  num prob WARNING in EDDRMM: call to ZHEGV failed, returncode =   6  3 33
WARNING in EDDRMM: call to ZHEGV failed, returncode =   8  4 30
WARNING in EDDRMM: call to ZHEGV failed, returncode =   6  3 31
WARNING in EDDRMM: call to ZHEGV failed, returncode =   8  4 32
 num prob  num prob WARNING in EDDRMM: call to ZHEGV failed, returncode =   8  4 31
RMM:  88    -0.124102607472E+03    0.22566E-03   -0.14952E-04  4617   0.185E-03    0.113E-02
 num prob  num prob RMM:  89    -0.124102610866E+03   -0.33935E-05   -0.63330E-05  4458   0.167E-03    0.101E-02
 num prob  num prob  num prob  num prob  num prob  num prob  num prob  num prob  num prob  num prob  num prob RMM:  90    -0.124109901733E+03   -0.72909E-02   -0.92210E-02  4093  -0.187E-03    0.105E-02
 num prob  num prob RMM:  91    -0.124105677069E+03    0.42247E-02   -0.37280E-02  3918   0.322E-05    0.961E-03
RMM:  92    -0.124135733737E+03   -0.30057E-01    0.21366E-04  3830   0.120E-03    0.193E-02
WARNING in EDDRMM: call to ZHEGV failed, returncode =   6  3 28
RMM:  93    -0.124117626297E+03    0.18107E-01    0.12669E+00  4202   0.288E-02    0.685E-03
 num prob  num prob  num prob  num prob  num prob  num prob  num prob RMM:  94    -0.124160278023E+03   -0.42652E-01    0.12084E+00  4169   0.275E-02    0.383E-02
WARNING in EDDRMM: call to ZHEGV failed, returncode =   6  3  7
RMM:  95    -0.124102625397E+03    0.57653E-01   -0.41459E-04  4592   0.348E-03    0.642E-03
WARNING in EDDRMM: call to ZHEGV failed, returncode =   6  3  8
RMM:  96    -0.124156766919E+03   -0.54142E-01   -0.55418E-06  4781   0.245E-03    0.378E-02
WARNING in EDDRMM: call to ZHEGV failed, returncode =   8  4 30
WARNING in EDDRMM: call to ZHEGV failed, returncode =   6  3 23
RMM:  97    -0.124136498303E+03    0.20269E-01    0.30273E+00  5092   0.573E-02    0.254E-02
WARNING in EDDRMM: call to ZHEGV failed, returncode =   8  4  3
WARNING in EDDRMM: call to ZHEGV failed, returncode =   8  4 23
WARNING in EDDRMM: call to ZHEGV failed, returncode =   8  4  3
RMM:  98    -0.124102784867E+03    0.33713E-01   -0.91766E-03  5826   0.386E-03    0.196E-02
WARNING in EDDRMM: call to ZHEGV failed, returncode =   6  3 14
WARNING in EDDRMM: call to ZHEGV failed, returncode =   6  3 23
WARNING in EDDRMM: call to ZHEGV failed, returncode =   6  3 10
RMM:  99    -0.124102771718E+03    0.13149E-04    0.19733E-05  5505   0.279E-03    0.134E-02
 num prob  num prob  num prob  num prob  num prob WARNING in EDDRMM: call to ZHEGV failed, returncode =   6  3 30
 num prob  num prob  num prob  num prob RMM: 100    -0.124102679960E+03    0.91758E-04   -0.23764E-04  4572   0.167E-03    0.113E-02
WARNING in EDDRMM: call to ZHEGV failed, returncode =   6  3 23
WARNING in EDDRMM: call to ZHEGV failed, returncode =   6  3 28
RMM: 101    -0.124104021514E+03   -0.13416E-02   -0.23910E-02  4780   0.706E-04    0.937E-03
 num prob  num prob  num prob  num prob  num prob  num prob  num prob  num prob  num prob  num prob  num prob  num prob  num prob  num prob  num prob  num prob  num prob  num prob  num prob  num prob  num prob  num prob  num prob  num prob  num prob  num prob  num prob  num prob  num prob RMM: 102    -0.124284923412E+03   -0.18090E+00    0.75826E-01  4107   0.219E-02    0.536E-02
WARNING in EDDRMM: call to ZHEGV failed, returncode =   6  3  8
WARNING in EDDRMM: call to ZHEGV failed, returncode =   6  3 11
RMM: 103    -0.124086208700E+03    0.19871E+00    0.62860E+00  4265   0.118E-01    0.533E-02
WARNING in EDDRMM: call to ZHEGV failed, returncode =   6  3  4
WARNING in EDDRMM: call to ZHEGV failed, returncode =   6  3 13
RMM: 104    -0.124102608639E+03   -0.16400E-01   -0.50007E-03  5704   0.369E-03    0.167E-02
WARNING in EDDRMM: call to ZHEGV failed, returncode =   6  3 21
RMM: 105    -0.124102625448E+03   -0.16809E-04   -0.69830E-05  5928   0.390E-03    0.813E-03
 num prob WARNING in EDDRMM: call to ZHEGV failed, returncode =   8  4 30
 num prob WARNING in EDDRMM: call to ZHEGV failed, returncode =   6  3 28
 num prob  num prob  num prob  num prob  num prob  num prob  num prob  num prob  num prob  num prob  num prob  num prob  num prob  num prob  num prob  num prob  num prob  num prob  num prob  num prob  num prob  num prob  num prob  num prob  num prob  num prob WARNING in EDDRMM: call to ZHEGV failed, returncode =   6  3 30
 num prob  num prob  num prob  num prob  num prob  num prob  num prob  num prob  num prob  num prob  num prob  num prob  num prob RMM: 106    -0.124102641705E+03   -0.16258E-04   -0.45660E-06  5031   0.218E-03    0.192E-01
RMM: 107    -0.124102602737E+03    0.38968E-04   -0.68492E-06  6168   0.979E-03    0.241E-02
WARNING in EDDRMM: call to ZHEGV failed, returncode =   6  3 26
RMM: 108    -0.124103621042E+03   -0.10183E-02    0.10353E-04  5923   0.712E-03    0.124E-02
 num prob  num prob  num prob  num prob  num prob  num prob  num prob WARNING in EDDRMM: call to ZHEGV failed, returncode =   6  3 26
 num prob  num prob  num prob  num prob  num prob  num prob  num prob  num prob  num prob  num prob  num prob  num prob  num prob  num prob  num prob  num prob  num prob  num prob  num prob  num prob  num prob  num prob  num prob  num prob  num prob  num prob  num prob  num prob  num prob  num prob  num prob  num prob  num prob  num prob  num prob  num prob  num prob  num prob  num prob  num prob  num prob  num prob  num prob WARNING in EDDRMM: call to ZHEGV failed, returncode =   6  3 18
 num prob  num prob  num prob  num prob  num prob  num prob  num prob  num prob  num prob  num prob  num prob  num prob  num prob  num prob  num prob  num prob  num prob  num prob  num prob  num prob RMM: 109    -0.124102605176E+03    0.10159E-02    0.72450E-03  4598   0.264E-03    0.137E-02
 num prob  num prob WARNING in EDDRMM: call to ZHEGV failed, returncode =   6  3 22
 num prob  num prob RMM: 110    -0.124102613459E+03   -0.82836E-05   -0.60826E-06  4244   0.203E-03    0.123E-02
 num prob  num prob  num prob  num prob  num prob  num prob RMM: 111    -0.124102613065E+03    0.39444E-06   -0.12363E-04  4386   0.164E-03    0.110E-02
 num prob  num prob  num prob RMM: 112    -0.124102618318E+03   -0.52531E-05   -0.20585E-05  3936   0.132E-03    0.111E-02
RMM: 113    -0.124185935796E+03   -0.83317E-01   -0.31268E-05  3920   0.135E-03    0.472E-02
WARNING in EDDRMM: call to ZHEGV failed, returncode =   6  3 25
RMM: 114    -0.124059987033E+03    0.12595E+00    0.31628E+00  4228   0.594E-02    0.305E-02
 num prob WARNING in EDDRMM: call to ZHEGV failed, returncode =   6  3 29
RMM: 115    -0.124102598988E+03   -0.42612E-01   -0.13762E-03  4406   0.163E-03    0.146E-02
RMM: 116    -0.124102615776E+03   -0.16789E-04   -0.47510E-06  4511   0.321E-03    0.117E-02
WARNING in EDDRMM: call to ZHEGV failed, returncode =   6  3  2
WARNING in EDDRMM: call to ZHEGV failed, returncode =   6  3 26
WARNING in EDDRMM: call to ZHEGV failed, returncode =   6  3 30
RMM: 117    -0.124106305056E+03   -0.36893E-02    0.54001E-05  4760   0.211E-03    0.137E-02
RMM: 118    -0.124145228926E+03   -0.38924E-01    0.87585E-01  4323   0.248E-02    0.324E-02
 num prob  num prob  num prob  num prob  num prob WARNING in EDDRMM: call to ZHEGV failed, returncode =   6  3 26
 num prob RMM: 119    -0.124102736871E+03    0.42492E-01   -0.11737E-02  4236   0.138E-03    0.132E-02
RMM: 120    -0.124103473857E+03   -0.73699E-03   -0.15529E-02  5207   0.167E-03    0.874E-03
 num prob  num prob  num prob  num prob  num prob  num prob  num prob  num prob  num prob  num prob  num prob  num prob  num prob  num prob  num prob  num prob WARNING in EDDRMM: call to ZHEGV failed, returncode =   6  3  5
 num prob  num prob  num prob  num prob  num prob  num prob  num prob  num prob  num prob  num prob  num prob  num prob  num prob  num prob  num prob  num prob  num prob  num prob  num prob  num prob  num prob  num prob  num prob  num prob  num prob  num prob  num prob  num prob  num prob  num prob  num prob  num prob  num prob  num prob  num prob  num prob  num prob  num prob  num prob  num prob  num prob WARNING in EDDRMM: call to ZHEGV failed, returncode =   8  4 29
 num prob  num prob RMM: 121    -0.124102629643E+03    0.84421E-03   -0.17556E-04  4097   0.152E-03    0.764E-03
 num prob  num prob  num prob  num prob  num prob  num prob RMM: 122    -0.124105837557E+03   -0.32079E-02   -0.36922E-02  3933  -0.620E-05    0.816E-03
RMM: 123    -0.124102645321E+03    0.31922E-02    0.22582E-05  3828   0.118E-03    0.789E-03
RMM: 124    -0.124104950468E+03   -0.23051E-02   -0.26972E-02  3693  -0.378E-04    0.780E-03
RMM: 125    -0.124103322418E+03    0.16280E-02   -0.80660E-03  3621   0.299E-04    0.739E-03
RMM: 126    -0.124102728663E+03    0.59376E-03   -0.44763E-03  3670   0.423E-04    0.686E-03
WARNING in EDDRMM: call to ZHEGV failed, returncode =   8  4  2
RMM: 127    -0.124102673239E+03    0.55423E-04   -0.15116E-03  3610   0.700E-04    0.655E-03
RMM: 128    -0.124102674024E+03   -0.78429E-06   -0.82536E-04  3722   0.854E-04    0.192E-01
RMM: 129    -0.124103571861E+03   -0.89784E-03   -0.12731E-02  6854   0.129E-02    0.401E-02
RMM: 130    -0.124102752955E+03    0.81891E-03   -0.85658E-03  6711   0.815E-03    0.187E-02
 num prob  num prob  num prob  num prob  num prob  num prob WARNING in EDDRMM: call to ZHEGV failed, returncode =   8  4  4
 num prob  num prob  num prob  num prob  num prob  num prob  num prob  num prob WARNING in EDDRMM: call to ZHEGV failed, returncode =   8  4  4
 num prob  num prob WARNING in EDDRMM: call to ZHEGV failed, returncode =   6  3 29
 num prob  num prob  num prob  num prob  num prob  num prob  num prob  num prob  num prob  num prob  num prob  num prob  num prob  num prob  num prob  num prob  num prob  num prob  num prob  num prob  num prob  num prob  num prob  num prob  num prob  num prob  num prob  num prob  num prob  num prob  num prob  num prob  num prob  num prob  num prob  num prob  num prob WARNING in EDDRMM: call to ZHEGV failed, returncode =   6  3 24
 num prob  num prob  num prob  num prob RMM: 131    -0.124135015624E+03   -0.32263E-01   -0.28045E-03  5653   0.274E-03    0.217E-02
 num prob  num prob  num prob  num prob  num prob  num prob  num prob  num prob  num prob  num prob  num prob  num prob  num prob  num prob  num prob  num prob RMM: 132    -0.124096598027E+03    0.38418E-01    0.22016E+00  4372   0.528E-02    0.101E-02
WARNING in EDDRMM: call to ZHEGV failed, returncode =   8  4 26
RMM: 133    -0.124102815410E+03   -0.62174E-02   -0.93459E-03  4388   0.679E-04    0.157E-02
WARNING in EDDRMM: call to ZHEGV failed, returncode =   8  4  2
WARNING in EDDRMM: call to ZHEGV failed, returncode =   6  3  2
RMM: 134    -0.124103135701E+03   -0.32029E-03   -0.11658E-02  5494   0.174E-03    0.114E-02
 num prob  num prob  num prob  num prob  num prob  num prob  num prob  num prob  num prob  num prob  num prob  num prob  num prob  num prob  num prob  num prob  num prob  num prob  num prob  num prob  num prob  num prob  num prob  num prob  num prob  num prob  num prob  num prob  num prob  num prob  num prob  num prob  num prob  num prob  num prob  num prob  num prob  num prob  num prob  num prob  num prob  num prob  num prob  num prob  num prob  num prob  num prob  num prob  num prob  num prob  num prob  num prob  num prob  num prob  num prob  num prob  num prob  num prob  num prob  num prob  num prob  num prob  num prob  num prob  num prob  num prob  num prob  num prob  num prob  num prob  num prob  num prob  num prob  num prob  num prob  num prob  num prob  num prob  num prob RMM: 135    -0.124102706131E+03    0.42957E-03   -0.38838E-03  4110   0.932E-04    0.118E-02
RMM: 136    -0.124122254327E+03   -0.19548E-01   -0.15291E-03  4165   0.138E-03    0.146E-02
 num prob  num prob RMM: 137    -0.124162276682E+03   -0.40022E-01    0.14649E+00  4176   0.298E-02    0.371E-02
WARNING in EDDRMM: call to ZHEGV failed, returncode =   8  4  2
WARNING in EDDRMM: call to ZHEGV failed, returncode =   6  3 23
RMM: 138    -0.124102638754E+03    0.59638E-01   -0.27431E-03  4655   0.256E-03    0.140E-02
WARNING in EDDRMM: call to ZHEGV failed, returncode =   6  3 13
WARNING in EDDRMM: call to ZHEGV failed, returncode =   6  3 11
WARNING in EDDRMM: call to ZHEGV failed, returncode =   6  3 13
WARNING in EDDRMM: call to ZHEGV failed, returncode =   6  3 12
WARNING in EDDRMM: call to ZHEGV failed, returncode =   6  3 32
RMM: 139    -0.124105471497E+03   -0.28327E-02   -0.36309E-02  5272   0.708E-04    0.102E-02
 num prob  num prob  num prob  num prob  num prob  num prob  num prob  num prob  num prob  num prob  num prob  num prob  num prob  num prob  num prob  num prob  num prob  num prob  num prob  num prob  num prob  num prob  num prob  num prob  num prob  num prob  num prob  num prob  num prob  num prob  num prob  num prob  num prob  num prob  num prob  num prob  num prob  num prob  num prob  num prob  num prob  num prob  num prob  num prob  num prob  num prob  num prob  num prob  num prob  num prob  num prob  num prob  num prob  num prob  num prob  num prob  num prob  num prob  num prob  num prob  num prob  num prob  num prob  num prob  num prob  num prob  num prob  num prob  num prob  num prob  num prob  num prob  num prob  num prob  num prob  num prob  num prob  num prob  num prob  num prob  num prob  num prob  num prob  num prob RMM: 140    -0.124102783589E+03    0.26879E-02   -0.13114E-02  4020   0.243E-04    0.955E-03
WARNING in EDDRMM: call to ZHEGV failed, returncode =   6  3 21
RMM: 141    -0.124102735927E+03    0.47662E-04   -0.25375E-03  3911   0.806E-04    0.899E-03
 num prob  num prob  num prob  num prob RMM: 142    -0.124103660896E+03   -0.92497E-03   -0.16514E-02  3942  -0.259E-05    0.106E-02
RMM: 143    -0.124102898707E+03    0.76219E-03   -0.92401E-03  3897   0.205E-04    0.907E-03
WARNING in EDDRMM: call to ZHEGV failed, returncode =   8  4 26
RMM: 144    -0.124122204546E+03   -0.19306E-01   -0.25435E-03  4318   0.965E-04    0.652E-03
 num prob  num prob  num prob  num prob  num prob  num prob  num prob  num prob  num prob  num prob  num prob  num prob  num prob  num prob  num prob  num prob  num prob  num prob  num prob  num prob  num prob  num prob  num prob WARNING in EDDRMM: call to ZHEGV failed, returncode =   6  3  5
 num prob  num prob  num prob RMM: 145    -0.124164009227E+03   -0.41805E-01    0.20406E+00  3953   0.480E-02    0.571E-02
RMM: 146    -0.124116418863E+03    0.47590E-01    0.22074E-02  4259   0.507E-03    0.196E-01
RMM: 147    -0.124175303082E+03   -0.58884E-01    0.19073E+00  6751   0.566E-02    0.395E-02
RMM: 148    -0.124106249174E+03    0.69054E-01   -0.30676E-02  6758   0.174E-02    0.213E-01
RMM: 149    -0.124102691983E+03    0.35572E-02   -0.38502E-03  7396   0.185E-02    0.368E-02
RMM: 150    -0.124102684247E+03    0.77363E-05   -0.25474E-03  6250   0.836E-03    0.238E-02
 num prob  num prob  num prob  num prob  num prob WARNING in EDDRMM: call to ZHEGV failed, returncode =   6  3 15
 num prob  num prob  num prob  num prob  num prob  num prob  num prob  num prob  num prob  num prob  num prob  num prob  num prob  num prob  num prob  num prob  num prob  num prob  num prob  num prob  num prob  num prob  num prob  num prob  num prob  num prob  num prob  num prob  num prob  num prob  num prob WARNING in EDDRMM: call to ZHEGV failed, returncode =   8  4  3
 num prob  num prob  num prob  num prob  num prob  num prob  num prob RMM: 151    -0.124102973395E+03   -0.28915E-03   -0.63484E-03  4877   0.207E-03    0.249E-02
WARNING in EDDRMM: call to ZHEGV failed, returncode =   6  3 18
WARNING in EDDRMM: call to ZHEGV failed, returncode =   6  3  1
RMM: 152    -0.124116336385E+03   -0.13363E-01   -0.58339E-03  5177   0.162E-03    0.172E-02
 num prob  num prob  num prob  num prob  num prob  num prob  num prob  num prob  num prob  num prob  num prob  num prob  num prob  num prob  num prob  num prob  num prob  num prob  num prob  num prob  num prob  num prob  num prob  num prob  num prob  num prob  num prob  num prob WARNING in EDDRMM: call to ZHEGV failed, returncode =   6  3  1
 num prob  num prob  num prob  num prob  num prob  num prob  num prob  num prob  num prob  num prob  num prob  num prob  num prob  num prob RMM: 153    -0.124204214011E+03   -0.87878E-01    0.20415E+00  4285   0.498E-02    0.613E-02
RMM: 154    -0.124102842958E+03    0.10137E+00    0.20148E-02  5357   0.712E-03    0.260E-02
WARNING in EDDRMM: call to ZHEGV failed, returncode =   6  3 31
WARNING in EDDRMM: call to ZHEGV failed, returncode =   6  3 23
WARNING in EDDRMM: call to ZHEGV failed, returncode =   6  3 30
WARNING in EDDRMM: call to ZHEGV failed, returncode =   6  3  6
RMM: 155    -0.124102797145E+03    0.45814E-04   -0.65668E-03  4527   0.183E-03    0.237E-02
 num prob WARNING in EDDRMM: call to ZHEGV failed, returncode =   6  3 32
RMM: 156    -0.124103875925E+03   -0.10788E-02   -0.26853E-02  4850   0.794E-04    0.201E-02
WARNING in EDDRMM: call to ZHEGV failed, returncode =   8  4 22
WARNING in EDDRMM: call to ZHEGV failed, returncode =   6  3 31
 num prob WARNING in EDDRMM: call to ZHEGV failed, returncode =   8  4 24
RMM: 157    -0.124106453381E+03   -0.25775E-02   -0.48668E-02  5220   0.175E-05    0.168E-02
 num prob  num prob  num prob  num prob  num prob  num prob  num prob  num prob  num prob  num prob  num prob  num prob  num prob  num prob  num prob  num prob  num prob  num prob  num prob  num prob  num prob  num prob  num prob  num prob  num prob  num prob  num prob  num prob  num prob  num prob  num prob  num prob  num prob  num prob  num prob  num prob  num prob  num prob  num prob  num prob  num prob  num prob  num prob  num prob  num prob  num prob  num prob  num prob  num prob  num prob  num prob  num prob  num prob  num prob  num prob  num prob  num prob  num prob  num prob  num prob RMM: 158    -0.124105691778E+03    0.76160E-03   -0.38943E-02  4017  -0.443E-04    0.160E-02
WARNING in EDDRMM: call to ZHEGV failed, returncode =   8  4 33
WARNING in EDDRMM: call to ZHEGV failed, returncode =   8  4 29
WARNING in EDDRMM: call to ZHEGV failed, returncode =   8  4 29
 num prob WARNING in EDDRMM: call to ZHEGV failed, returncode =   8  4 31
RMM: 159    -0.124102851979E+03    0.28398E-02   -0.50793E-03  4736   0.109E-03    0.133E-02
 num prob WARNING in EDDRMM: call to ZHEGV failed, returncode =   8  4  9
 num prob  num prob  num prob  num prob RMM: 160    -0.124118993683E+03   -0.16142E-01   -0.76335E-03  4676   0.104E-03    0.106E-02
 num prob  num prob  num prob  num prob  num prob  num prob  num prob  num prob  num prob  num prob  num prob  num prob  num prob  num prob  num prob  num prob  num prob  num prob  num prob  num prob  num prob  num prob  num prob  num prob  num prob  num prob RMM: 161    -0.124214568879E+03   -0.95575E-01    0.12765E+00  3922   0.276E-02    0.199E-02
RMM: 162    -0.124089056983E+03    0.12551E+00    0.30192E+00  4022   0.899E-02    0.441E-02
RMM: 163    -0.124102694297E+03   -0.13637E-01   -0.14264E-02  4077   0.139E-03    0.113E-02
WARNING in EDDRMM: call to ZHEGV failed, returncode =   6  3 27
WARNING in EDDRMM: call to ZHEGV failed, returncode =   6  3 31
WARNING in EDDRMM: call to ZHEGV failed, returncode =   6  3 25
RMM: 164    -0.124102669449E+03    0.24848E-04   -0.11001E-03  4583   0.237E-03    0.993E-03
 num prob  num prob  num prob  num prob  num prob  num prob  num prob  num prob  num prob  num prob  num prob  num prob  num prob  num prob  num prob  num prob  num prob  num prob  num prob  num prob  num prob  num prob  num prob  num prob  num prob  num prob RMM: 165    -0.124102663429E+03    0.60194E-05   -0.88395E-04  4032   0.140E-03    0.878E-03
 num prob  num prob  num prob  num prob RMM: 166    -0.124108462208E+03   -0.57988E-02   -0.41175E-02  3943  -0.605E-04    0.975E-03
 num prob RMM: 167    -0.124200749428E+03   -0.92287E-01    0.35528E+00  4088   0.947E-02    0.418E-02
 num prob  num prob  num prob  num prob  num prob  num prob  num prob  num prob  num prob  num prob  num prob  num prob  num prob  num prob  num prob RMM: 168    -0.124166309767E+03    0.34440E-01    0.17514E+00  4010   0.448E-02    0.465E-02
RMM: 169    -0.124103486270E+03    0.62823E-01   -0.47906E-02  5517   0.142E-03    0.196E-02
WARNING in EDDRMM: call to ZHEGV failed, returncode =   6  3 19
WARNING in EDDRMM: call to ZHEGV failed, returncode =   6  3 23
RMM: 170    -0.124104273752E+03   -0.78748E-03   -0.26279E-02  5396   0.108E-03    0.142E-02
 num prob  num prob  num prob  num prob  num prob  num prob  num prob  num prob  num prob  num prob  num prob  num prob  num prob  num prob  num prob  num prob  num prob  num prob  num prob  num prob  num prob  num prob  num prob WARNING in EDDRMM: call to ZHEGV failed, returncode =   8  4  1
 num prob  num prob  num prob  num prob  num prob  num prob  num prob  num prob  num prob  num prob  num prob  num prob  num prob  num prob  num prob  num prob  num prob  num prob  num prob  num prob  num prob  num prob  num prob  num prob  num prob  num prob  num prob  num prob RMM: 171    -0.124107808215E+03   -0.35345E-02   -0.65472E-02  4219  -0.918E-04    0.149E-02
WARNING in EDDRMM: call to ZHEGV failed, returncode =   6  3 24
RMM: 172    -0.124103026622E+03    0.47816E-02   -0.63030E-03  3944   0.103E-03    0.137E-02
 num prob  num prob WARNING in EDDRMM: call to ZHEGV failed, returncode =   6  3 30
RMM: 173    -0.124105023667E+03   -0.19970E-02   -0.41529E-03  4741   0.136E-03    0.107E-02
 num prob  num prob  num prob  num prob  num prob  num prob  num prob  num prob  num prob  num prob  num prob  num prob  num prob  num prob  num prob  num prob  num prob  num prob  num prob  num prob  num prob  num prob  num prob  num prob  num prob  num prob  num prob  num prob  num prob  num prob  num prob  num prob  num prob  num prob  num prob WARNING in EDDRMM: call to ZHEGV failed, returncode =   8  4  2
 num prob  num prob  num prob  num prob  num prob  num prob  num prob  num prob  num prob  num prob  num prob  num prob  num prob  num prob  num prob  num prob  num prob  num prob  num prob  num prob  num prob  num prob  num prob  num prob  num prob  num prob RMM: 174    -0.124137610040E+03   -0.32586E-01    0.15664E-02  4036   0.189E-03    0.128E-02
 num prob  num prob  num prob  num prob  num prob  num prob  num prob RMM: 175    -0.124124420778E+03    0.13189E-01    0.16333E+00  3916   0.324E-02    0.194E-02
WARNING in EDDRMM: call to ZHEGV failed, returncode =   6  3 21
RMM: 176    -0.124102667123E+03    0.21754E-01   -0.38444E-03  4225   0.158E-03    0.840E-03
WARNING in EDDRMM: call to ZHEGV failed, returncode =   6  3  7
WARNING in EDDRMM: call to ZHEGV failed, returncode =   6  3 22
 num prob RMM: 177    -0.124105757209E+03   -0.30901E-02   -0.80306E-04  4314   0.160E-03    0.115E-02
 num prob  num prob  num prob  num prob  num prob  num prob  num prob  num prob  num prob  num prob  num prob  num prob  num prob  num prob WARNING in EDDRMM: call to ZHEGV failed, returncode =   6  3  7
 num prob  num prob  num prob  num prob  num prob  num prob  num prob  num prob  num prob  num prob  num prob  num prob  num prob  num prob  num prob  num prob  num prob  num prob  num prob  num prob  num prob  num prob  num prob  num prob  num prob  num prob  num prob  num prob  num prob  num prob  num prob  num prob  num prob  num prob  num prob  num prob  num prob  num prob  num prob  num prob  num prob  num prob  num prob  num prob  num prob  num prob  num prob  num prob  num prob  num prob  num prob  num prob  num prob WARNING in EDDRMM: call to ZHEGV failed, returncode =   6  3  7
 num prob  num prob  num prob  num prob  num prob  num prob  num prob  num prob  num prob  num prob  num prob  num prob  num prob RMM: 178    -0.124218921243E+03   -0.11316E+00    0.21046E+00  3879   0.490E-02    0.498E-02
WARNING in EDDRMM: call to ZHEGV failed, returncode =   8  4  2
WARNING in EDDRMM: call to ZHEGV failed, returncode =   8  4  6
WARNING in EDDRMM: call to ZHEGV failed, returncode =   6  3  6
RMM: 179    -0.124196985516E+03    0.21936E-01    0.20248E+00  4369   0.491E-02    0.464E-02
 num prob  num prob  num prob  num prob  num prob  num prob WARNING in EDDRMM: call to ZHEGV failed, returncode =   6  3 32
 num prob  num prob  num prob  num prob RMM: 180    -0.124103209269E+03    0.93776E-01    0.79921E-03  4362   0.367E-03    0.113E-02
RMM: 181    -0.124103046164E+03    0.16310E-03   -0.11263E-02  4356   0.161E-03    0.102E-02
 num prob  num prob  num prob  num prob  num prob  num prob  num prob RMM: 182    -0.124102813595E+03    0.23257E-03   -0.89431E-03  3707   0.102E-03    0.994E-03
RMM: 183    -0.124105804936E+03   -0.29913E-02   -0.39882E-02  3757  -0.657E-04    0.999E-03
RMM: 184    -0.124102673732E+03    0.31312E-02   -0.93426E-04  3516   0.802E-04    0.100E-02
 num prob  num prob RMM: 185    -0.124102809173E+03   -0.13544E-03   -0.40400E-03  3438   0.646E-04    0.104E-02
RMM: 186    -0.124106568222E+03   -0.37590E-02   -0.47920E-03  3381   0.432E-04    0.843E-03
RMM: 187    -0.124104380948E+03    0.21873E-02    0.26642E-02  3240   0.365E-04    0.106E-02
RMM: 188    -0.124104157714E+03    0.22323E-03   -0.14922E-02  3102  -0.368E-04    0.101E-02
 num prob RMM: 189    -0.124102782628E+03    0.13751E-02   -0.97453E-04  2969   0.171E-04    0.102E-02
RMM: 190    -0.124102662726E+03    0.11990E-03   -0.82716E-04  3008   0.539E-04    0.954E-03
WARNING in EDDRMM: call to ZHEGV failed, returncode =   6  3  8
RMM: 191    -0.124102652778E+03    0.99481E-05   -0.18258E-04  2811   0.640E-04    0.948E-03
RMM: 192    -0.124114424606E+03   -0.11772E-01   -0.63084E-04  3502   0.820E-04    0.898E-03
RMM: 193    -0.124150027697E+03   -0.35603E-01    0.11642E+00  3440   0.263E-02    0.314E-02
WARNING in EDDRMM: call to ZHEGV failed, returncode =   8  4  2
RMM: 194    -0.124104875279E+03    0.45152E-01   -0.16408E-02  4627   0.650E-04    0.133E-02
WARNING in EDDRMM: call to ZHEGV failed, returncode =   6  3  6
RMM: 195    -0.124103067513E+03    0.18078E-02   -0.65087E-03  4373   0.119E-03    0.948E-03
 num prob  num prob  num prob  num prob  num prob  num prob  num prob  num prob  num prob  num prob  num prob  num prob  num prob  num prob  num prob  num prob  num prob  num prob  num prob  num prob  num prob  num prob  num prob  num prob  num prob  num prob  num prob  num prob  num prob  num prob  num prob  num prob  num prob  num prob  num prob  num prob  num prob  num prob  num prob  num prob  num prob  num prob  num prob  num prob  num prob  num prob  num prob  num prob  num prob  num prob  num prob  num prob  num prob  num prob  num prob  num prob  num prob  num prob  num prob  num prob  num prob  num prob  num prob  num prob  num prob  num prob  num prob  num prob  num prob  num prob  num prob  num prob  num prob  num prob  num prob  num prob  num prob  num prob  num prob  num prob  num prob RMM: 196    -0.124104866282E+03   -0.17988E-02   -0.92606E-03  3785   0.538E-04    0.867E-03
 num prob  num prob RMM: 197    -0.124103135174E+03    0.17311E-02   -0.46885E-03  3679   0.506E-04    0.982E-03
WARNING in EDDRMM: call to ZHEGV failed, returncode =   6  3  8
 num prob  num prob RMM: 198    -0.124103145667E+03   -0.10493E-04   -0.90998E-03  3514   0.265E-04    0.911E-03
 num prob RMM: 199    -0.124096919307E+03    0.62264E-02    0.20476E-01  3382   0.566E-03    0.173E-02
 num prob RMM: 200    -0.124102719018E+03   -0.57997E-02   -0.19438E-03  3754   0.856E-04
   2 F= -.12737778E+03 E0= -.12737778E+03  d E =0.729124E+02
 trial-energy change:   72.912366  1 .order-9791.415945************-1707.957186
 step:   1.1056(harm=  1.1056)  dis= 7.34822  next Energy=-10081.924826 (dE=-0.988E+04)
 bond charge predicted
       N       E                     dE             d eps       ncg     rms          rms(c)
RMM:   1    -0.188422563871E+03   -0.64326E+02   -0.15680E+03  8957   0.863E+01    0.266E+01
RMM:   2    -0.282657253276E+03   -0.94235E+02   -0.69997E+02  8676   0.556E+01    0.180E+01
RMM:   3    -0.319240771251E+03   -0.36584E+02   -0.31517E+02  7893   0.334E+01    0.204E+01
RMM:   4    -0.311913366168E+03    0.73274E+01   -0.41400E+01  6593   0.119E+01    0.114E+01
RMM:   5    -0.314320005827E+03   -0.24066E+01   -0.26936E+01  6385   0.104E+01    0.945E+00
RMM:   6    -0.312418530442E+03    0.19015E+01   -0.15744E+00  6380   0.459E+00    0.462E+00
RMM:   7    -0.310786104790E+03    0.16324E+01    0.62064E+00  6422   0.264E+00    0.229E+00
RMM:   8    -0.311325150485E+03   -0.53905E+00    0.67877E+00  6235   0.221E+00    0.148E+00
RMM:   9    -0.311737211326E+03   -0.41206E+00    0.13874E+00  6438   0.118E+00    0.581E-01
RMM:  10    -0.311585817260E+03    0.15139E+00   -0.64747E-02  6299   0.440E-01    0.252E-01
RMM:  11    -0.311580097478E+03    0.57198E-02    0.21132E-02  6327   0.147E-01    0.158E-01
RMM:  12    -0.311578217346E+03    0.18801E-02    0.98358E-03  6490   0.123E-01    0.740E-02
RMM:  13    -0.311577534970E+03    0.68238E-03    0.62933E-03  6264   0.475E-02    0.213E-02
RMM:  14    -0.311577276571E+03    0.25840E-03    0.27644E-03  6595   0.338E-02    0.162E-02
RMM:  15    -0.311577135615E+03    0.14096E-03    0.13175E-03  6062   0.164E-02    0.424E-03
RMM:  16    -0.311577093108E+03    0.42507E-04    0.44943E-04  4828   0.109E-02    0.369E-03
RMM:  17    -0.311577115502E+03   -0.22394E-04   -0.15474E-04  5898   0.114E-02    0.233E-03
RMM:  18    -0.311577172359E+03   -0.56857E-04   -0.53966E-04  5177   0.978E-03    0.251E-03
WARNING in EDDRMM: call to ZHEGV failed, returncode =   8  4 31
RMM:  19    -0.311579369552E+03   -0.21972E-02   -0.31826E-02  4627   0.682E-03    0.540E-03
WARNING in EDDRMM: call to ZHEGV failed, returncode =   8  4  6
 num prob  num prob  num prob  num prob  num prob  num prob  num prob WARNING in EDDRMM: call to ZHEGV failed, returncode =   8  4  5
 num prob  num prob  num prob  num prob  num prob  num prob  num prob RMM:  20    -0.311577367351E+03    0.20022E-02   -0.14327E-03  3495   0.711E-03    0.145E-03
WARNING in EDDRMM: call to ZHEGV failed, returncode =   6  3 23
RMM:  21    -0.311576963368E+03    0.40398E-03    0.11287E-02  4068   0.885E-03    0.235E-03
WARNING in EDDRMM: call to ZHEGV failed, returncode =   6  3 17
WARNING in EDDRMM: call to ZHEGV failed, returncode =   8  4  8
RMM:  22    -0.311577639567E+03   -0.67620E-03   -0.14762E-03  3009   0.657E-03    0.948E-04
RMM:  23    -0.311578228773E+03   -0.58921E-03   -0.86803E-03  3491   0.618E-03    0.101E-03
RMM:  24    -0.311578019159E+03    0.20961E-03   -0.28740E-03  2889   0.611E-03    0.509E-04
RMM:  25    -0.311578281566E+03   -0.26241E-03   -0.25940E-03  2796   0.617E-03    0.384E-04
RMM:  26    -0.311586455764E+03   -0.81742E-02   -0.82452E-02  2426   0.143E-03    0.169E-02
WARNING in EDDRMM: call to ZHEGV failed, returncode =   8  4  8
WARNING in EDDRMM: call to ZHEGV failed, returncode =   8  4  6
WARNING in EDDRMM: call to ZHEGV failed, returncode =   8  4  8
RMM:  27    -0.311580379223E+03    0.60765E-02   -0.23065E-02  3457   0.496E-03    0.137E-03
WARNING in EDDRMM: call to ZHEGV failed, returncode =   8  4  4
 num prob RMM:  28    -0.311579081941E+03    0.12973E-02   -0.20305E-03  2467   0.589E-03    0.727E-04
RMM:  29    -0.311581876486E+03   -0.27945E-02    0.30386E-03  3156   0.733E-03    0.199E-03
RMM:  30    -0.311580697212E+03    0.11793E-02    0.94129E-02  2107   0.939E-03    0.687E-03
RMM:  31    -0.311579746989E+03    0.95022E-03   -0.20049E-03  2526   0.571E-03    0.847E-04
RMM:  32    -0.311579997348E+03   -0.25036E-03   -0.24892E-03  3034   0.582E-03    0.809E-04
RMM:  33    -0.311580204866E+03   -0.20752E-03   -0.20620E-03  3281   0.584E-03    0.620E-04
RMM:  34    -0.311581213933E+03   -0.10091E-02   -0.98902E-03  2289   0.534E-03    0.784E-04
RMM:  35    -0.311635204854E+03   -0.53991E-01    0.15552E+00  2058   0.500E-02    0.553E-02
RMM:  36    -0.311589397259E+03    0.45808E-01   -0.81462E-02  3576   0.235E-03    0.169E-02
RMM:  37    -0.311581090516E+03    0.83067E-02   -0.18824E-03  3461   0.630E-03    0.155E-03
 num prob  num prob RMM:  38    -0.311581318400E+03   -0.22788E-03   -0.22565E-03  3177   0.573E-03    0.154E-03
RMM:  39    -0.311581505229E+03   -0.18683E-03   -0.18694E-03  3903   0.626E-03    0.106E-03
 num prob  num prob  num prob  num prob  num prob  num prob RMM:  40    -0.311591522868E+03   -0.10018E-01   -0.10422E-01  3170   0.290E-03    0.477E-03
WARNING in EDDRMM: call to ZHEGV failed, returncode =   8  4  4
RMM:  41    -0.311581936245E+03    0.95866E-02   -0.19483E-03  2582   0.545E-03    0.115E-03
RMM:  42    -0.311582183916E+03   -0.24767E-03   -0.24624E-03  3423   0.567E-03    0.119E-03
RMM:  43    -0.311605271861E+03   -0.23088E-01   -0.22446E-01  2318  -0.183E-03    0.164E-02
RMM:  44    -0.311584489690E+03    0.20782E-01   -0.23021E-02  2873   0.490E-03    0.169E-03
RMM:  45    -0.311582903048E+03    0.15866E-02   -0.23749E-03  3700   0.574E-03    0.129E-03
 num prob  num prob  num prob RMM:  46    -0.311583207472E+03   -0.30442E-03   -0.30067E-03  2732   0.534E-03    0.116E-03
RMM:  47    -0.311583706987E+03   -0.49951E-03   -0.46678E-03  2134   0.512E-03    0.117E-03
 num prob RMM:  48    -0.311583797548E+03   -0.90561E-04   -0.33114E-03  2080   0.506E-03    0.132E-03
 num prob RMM:  49    -0.311584082632E+03   -0.28508E-03   -0.29247E-03  2663   0.520E-03    0.129E-03
RMM:  50    -0.311584454308E+03   -0.37168E-03   -0.37081E-03  3430   0.539E-03    0.124E-03
 num prob RMM:  51    -0.311584797854E+03   -0.34355E-03   -0.35855E-03  2999   0.530E-03    0.124E-03
WARNING in EDDRMM: call to ZHEGV failed, returncode =   6  3  8
RMM:  52    -0.311593639981E+03   -0.88421E-02   -0.79295E-02  3650   0.689E-04    0.172E-02
WARNING in EDDRMM: call to ZHEGV failed, returncode =   8  4 33
RMM:  53    -0.311594793718E+03   -0.11537E-02   -0.10624E-01  4560   0.230E-04    0.172E-02
 num prob  num prob  num prob  num prob  num prob  num prob  num prob  num prob  num prob  num prob  num prob  num prob  num prob  num prob  num prob  num prob  num prob  num prob  num prob RMM:  54    -0.311599942042E+03   -0.51483E-02    0.26587E+00  3559   0.101E-01    0.662E-02
RMM:  55    -0.311586532225E+03    0.13410E-01    0.32345E-03  4669   0.888E-03    0.451E-03
RMM:  56    -0.311595593204E+03   -0.90610E-02    0.14402E-01  5899   0.136E-02    0.132E-02
 num prob  num prob  num prob  num prob  num prob  num prob  num prob  num prob  num prob  num prob  num prob  num prob  num prob  num prob  num prob  num prob  num prob  num prob  num prob  num prob  num prob  num prob  num prob  num prob  num prob  num prob  num prob  num prob  num prob RMM:  57    -0.311587292602E+03    0.83006E-02   -0.42387E-03  3440   0.528E-03    0.263E-03
RMM:  58    -0.311587733008E+03   -0.44041E-03   -0.44658E-03  5473   0.787E-03    0.270E-03
WARNING in EDDRMM: call to ZHEGV failed, returncode =   8  4 17
WARNING in EDDRMM: call to ZHEGV failed, returncode =   6  3 23
WARNING in EDDRMM: call to ZHEGV failed, returncode =   6  3 13
RMM:  59    -0.311588201917E+03   -0.46891E-03   -0.46307E-03  3949   0.600E-03    0.171E-03
 num prob  num prob  num prob  num prob  num prob  num prob  num prob  num prob  num prob  num prob  num prob  num prob  num prob  num prob  num prob  num prob  num prob  num prob  num prob  num prob  num prob  num prob  num prob  num prob  num prob  num prob  num prob  num prob  num prob RMM:  60    -0.311588850303E+03   -0.64839E-03   -0.75095E-03  2504   0.501E-03    0.176E-03
 num prob  num prob RMM:  61    -0.311589186859E+03   -0.33656E-03   -0.49390E-03  2565   0.511E-03    0.180E-03
 num prob  num prob WARNING in EDDRMM: call to ZHEGV failed, returncode =   6  3  6
RMM:  62    -0.311589693956E+03   -0.50710E-03   -0.50024E-03  1834   0.500E-03    0.205E-03
 num prob RMM:  63    -0.311590225541E+03   -0.53158E-03   -0.52782E-03  1673   0.480E-03    0.238E-03
RMM:  64    -0.311815560916E+03   -0.22534E+00    0.55429E+00  1570   0.138E-01    0.197E-01
RMM:  65    -0.311591372324E+03    0.22419E+00   -0.97521E-04  5963   0.163E-02    0.986E-03
RMM:  66    -0.311593622187E+03   -0.22499E-02   -0.28985E-02  5928   0.143E-02    0.492E-03
RMM:  67    -0.311592770340E+03    0.85185E-03   -0.74214E-03  4427   0.669E-03    0.389E-03
 num prob  num prob  num prob  num prob  num prob  num prob  num prob  num prob  num prob  num prob  num prob  num prob  num prob  num prob  num prob  num prob  num prob  num prob  num prob RMM:  68    -0.311593478693E+03   -0.70835E-03   -0.70835E-03  2947   0.496E-03    0.445E-03
 num prob  num prob  num prob WARNING in EDDRMM: call to ZHEGV failed, returncode =   6  3 13
 num prob  num prob WARNING in EDDRMM: call to ZHEGV failed, returncode =   8  4  8
 num prob  num prob RMM:  69    -0.311594202517E+03   -0.72382E-03   -0.72964E-03  2067   0.472E-03    0.470E-03
 num prob  num prob RMM:  70    -0.311594920563E+03   -0.71805E-03   -0.71678E-03  2740   0.473E-03    0.495E-03
RMM:  71    -0.311595638313E+03   -0.71775E-03   -0.71558E-03  1603   0.445E-03    0.567E-03
WARNING in EDDRMM: call to ZHEGV failed, returncode =   6  3 13
RMM:  72    -0.311596698281E+03   -0.10600E-02   -0.14211E-02  4272   0.557E-03    0.853E-03
 num prob  num prob  num prob  num prob  num prob  num prob  num prob  num prob  num prob  num prob RMM:  73    -0.311597022430E+03   -0.32415E-03   -0.67651E-03  3547   0.489E-03    0.920E-03
WARNING in EDDRMM: call to ZHEGV failed, returncode =   8  4  4
RMM:  74    -0.311597673583E+03   -0.65115E-03   -0.64901E-03  2474   0.439E-03    0.964E-03
RMM:  75    -0.311598296212E+03   -0.62263E-03   -0.62129E-03  2073   0.427E-03    0.982E-03
RMM:  76    -0.311598883080E+03   -0.58687E-03   -0.58468E-03  1787   0.417E-03    0.102E-02
RMM:  77    -0.311599438132E+03   -0.55505E-03   -0.55150E-03  1902   0.404E-03    0.107E-02
 num prob RMM:  78    -0.311599948139E+03   -0.51001E-03   -0.50793E-03  1542   0.395E-03    0.109E-02
RMM:  79    -0.311601299221E+03   -0.13511E-02   -0.15377E-02  1502   0.349E-03    0.113E-02
 num prob RMM:  80    -0.311600861046E+03    0.43817E-03   -0.43445E-03  1418   0.370E-03    0.115E-02
 num prob  num prob RMM:  81    -0.311601266509E+03   -0.40546E-03   -0.40382E-03  1355   0.361E-03    0.117E-02
RMM:  82    -0.311601630178E+03   -0.36367E-03   -0.35962E-03  2481   0.362E-03    0.124E-02
 num prob RMM:  83    -0.311602235098E+03   -0.60492E-03   -0.10427E-02  1842   0.314E-03    0.128E-02
 num prob  num prob RMM:  84    -0.311602272103E+03   -0.37005E-04   -0.30691E-03  1688   0.335E-03    0.128E-02
 num prob RMM:  85    -0.311602566669E+03   -0.29457E-03   -0.29287E-03  1790   0.328E-03    0.130E-02
 num prob RMM:  86    -0.311602825263E+03   -0.25859E-03   -0.25934E-03  1513   0.317E-03    0.128E-02
RMM:  87    -0.311610276349E+03   -0.74511E-02   -0.70722E-02  3975   0.299E-04    0.242E-02
 num prob  num prob  num prob  num prob  num prob  num prob  num prob  num prob  num prob  num prob  num prob  num prob  num prob  num prob  num prob  num prob  num prob  num prob  num prob  num prob  num prob  num prob RMM:  88    -0.311674015167E+03   -0.63739E-01   -0.18900E-02  3368   0.302E-03    0.458E-02
RMM:  89    -0.311642105862E+03    0.31909E-01    0.33086E+00  4212   0.601E-02    0.508E-02
RMM:  90    -0.311603665480E+03    0.38440E-01   -0.19088E-03  6079   0.863E-03    0.662E-03
RMM:  91    -0.311603877372E+03   -0.21189E-03   -0.22436E-03  6020   0.705E-03    0.118E-02
 num prob  num prob  num prob  num prob  num prob  num prob  num prob  num prob  num prob RMM:  92    -0.311604343784E+03   -0.46641E-03   -0.77791E-03  3661   0.326E-03    0.109E-02
RMM:  93    -0.311604244423E+03    0.99361E-04   -0.68976E-03  4057   0.372E-03    0.903E-03
WARNING in EDDRMM: call to ZHEGV failed, returncode =   8  4  5
 num prob  num prob  num prob  num prob  num prob  num prob  num prob  num prob  num prob  num prob  num prob  num prob  num prob  num prob  num prob  num prob  num prob  num prob  num prob  num prob  num prob  num prob  num prob  num prob  num prob  num prob  num prob  num prob  num prob  num prob  num prob  num prob  num prob  num prob  num prob RMM:  94    -0.311604774420E+03   -0.53000E-03   -0.15883E-03  3046   0.303E-03    0.902E-03
RMM:  95    -0.311605326869E+03   -0.55245E-03   -0.13772E-02  3616   0.309E-03    0.843E-03
 num prob  num prob  num prob  num prob  num prob  num prob  num prob RMM:  96    -0.311604510911E+03    0.81596E-03   -0.11774E-03  3211   0.307E-03    0.780E-03
RMM:  97    -0.311604648184E+03   -0.13727E-03   -0.12371E-03  5184   0.492E-03    0.114E-02
 num prob  num prob  num prob  num prob  num prob  num prob  num prob  num prob WARNING in EDDRMM: call to ZHEGV failed, returncode =   6  3  5
WARNING in EDDRMM: call to ZHEGV failed, returncode =   8  4  8
 num prob  num prob  num prob  num prob  num prob RMM:  98    -0.311604758001E+03   -0.10982E-03   -0.10762E-03  3744   0.320E-03    0.119E-02
 num prob  num prob  num prob  num prob RMM:  99    -0.311604869076E+03   -0.11107E-03   -0.11540E-03  2914   0.278E-03    0.116E-02
 num prob WARNING in EDDRMM: call to ZHEGV failed, returncode =   8  4  5
RMM: 100    -0.311606959346E+03   -0.20903E-02   -0.17693E-02  1743   0.226E-03    0.113E-02
 num prob  num prob RMM: 101    -0.311605055150E+03    0.19042E-02   -0.37849E-03  1793   0.237E-03    0.115E-02
WARNING in EDDRMM: call to ZHEGV failed, returncode =   8  4  4
 num prob RMM: 102    -0.311612138887E+03   -0.70837E-02   -0.66952E-02  2733  -0.152E-03    0.212E-02
WARNING in EDDRMM: call to ZHEGV failed, returncode =   8  4 10
RMM: 103    -0.311605171400E+03    0.69675E-02   -0.58242E-04  3279   0.281E-03    0.105E-02
 num prob  num prob RMM: 104    -0.311605223665E+03   -0.52265E-04   -0.51924E-04  2394   0.247E-03    0.105E-02
RMM: 105    -0.311605270527E+03   -0.46862E-04   -0.48358E-04  3328   0.272E-03    0.994E-03
 num prob RMM: 106    -0.311605312381E+03   -0.41853E-04   -0.42351E-04  2784   0.253E-03    0.967E-03
RMM: 107    -0.311605369301E+03   -0.56920E-04   -0.40807E-04  5216   0.490E-03    0.138E-02
 num prob  num prob  num prob  num prob  num prob  num prob  num prob  num prob  num prob  num prob  num prob  num prob  num prob  num prob  num prob  num prob  num prob  num prob  num prob  num prob  num prob  num prob  num prob  num prob  num prob  num prob RMM: 108    -0.311605404319E+03   -0.35018E-04   -0.35162E-04  3417   0.278E-03    0.136E-02
RMM: 109    -0.311609851597E+03   -0.44473E-02   -0.26132E-02  3223   0.226E-03    0.123E-02
 num prob WARNING in EDDRMM: call to ZHEGV failed, returncode =   6  3  5
RMM: 110    -0.311605479513E+03    0.43721E-02   -0.43842E-04  2720   0.244E-03    0.132E-02
 num prob  num prob WARNING in EDDRMM: call to ZHEGV failed, returncode =   8  4  6
 num prob RMM: 111    -0.311605519325E+03   -0.39812E-04   -0.39458E-04  1802   0.230E-03    0.131E-02
RMM: 112    -0.312047361904E+03   -0.44184E+00    0.79427E+00  4021   0.162E-01    0.299E-01
RMM: 113    -0.311605561484E+03    0.44180E+00    0.89005E-04  5303   0.123E-02    0.113E-02
RMM: 114    -0.311605621922E+03   -0.60438E-04   -0.32891E-04  5498   0.994E-03    0.127E-02
 num prob RMM: 115    -0.311605654581E+03   -0.32659E-04   -0.28721E-04  4160   0.385E-03    0.135E-02
RMM: 116    -0.311605685997E+03   -0.31416E-04   -0.26089E-04  4202   0.312E-03    0.149E-02
WARNING in EDDRMM: call to ZHEGV failed, returncode =   6  3 11
 num prob  num prob  num prob RMM: 117    -0.311605703449E+03   -0.17452E-04   -0.23691E-04  3656   0.279E-03    0.135E-02
 num prob  num prob  num prob  num prob  num prob  num prob  num prob  num prob  num prob  num prob  num prob RMM: 118    -0.311605723753E+03   -0.20304E-04   -0.21756E-04  2822   0.222E-03    0.132E-02
RMM: 119    -0.311606012159E+03   -0.28841E-03   -0.32964E-03  3377   0.231E-03    0.123E-02
 num prob  num prob  num prob RMM: 120    -0.311606008476E+03    0.36829E-05   -0.55632E-03  3267   0.206E-03    0.118E-02
 num prob  num prob  num prob  num prob  num prob  num prob  num prob  num prob  num prob  num prob  num prob  num prob  num prob  num prob  num prob  num prob  num prob  num prob  num prob  num prob  num prob  num prob  num prob RMM: 121    -0.311605774684E+03    0.23379E-03   -0.17128E-04  2171   0.199E-03    0.119E-02
RMM: 122    -0.311605783381E+03   -0.86970E-05   -0.16185E-04  4294   0.324E-03    0.994E-03
 num prob  num prob  num prob  num prob  num prob  num prob  num prob  num prob  num prob  num prob  num prob  num prob  num prob  num prob  num prob  num prob  num prob  num prob  num prob  num prob  num prob  num prob  num prob  num prob  num prob  num prob  num prob  num prob  num prob  num prob  num prob  num prob  num prob  num prob  num prob  num prob RMM: 123    -0.311614602296E+03   -0.88189E-02   -0.73749E-02  3294  -0.201E-03    0.212E-02
RMM: 124    -0.311605814547E+03    0.87877E-02   -0.14014E-04  3076   0.217E-03    0.107E-02
RMM: 125    -0.311605826202E+03   -0.11655E-04   -0.13289E-04  2696   0.207E-03    0.101E-02
RMM: 126    -0.311605998473E+03   -0.17227E-03   -0.26608E-03  2359   0.183E-03    0.101E-02
RMM: 127    -0.311605836255E+03    0.16222E-03   -0.13623E-04  5831   0.626E-03    0.414E-03
RMM: 128    -0.311605845316E+03   -0.90608E-05   -0.11730E-04  4793   0.344E-03    0.308E-03
 num prob  num prob  num prob  num prob  num prob  num prob  num prob  num prob  num prob  num prob RMM: 129    -0.311605856025E+03   -0.10710E-04   -0.13468E-04  3837   0.262E-03    0.279E-03
 num prob RMM: 130    -0.311605913440E+03   -0.57415E-04   -0.12491E-03  3121   0.192E-03    0.305E-03
RMM: 131    -0.311618873282E+03   -0.12960E-01   -0.10619E-01  2324  -0.375E-03    0.172E-02
RMM: 132    -0.311606107300E+03    0.12766E-01   -0.72330E-03  3599   0.233E-03    0.382E-03
 num prob  num prob  num prob  num prob  num prob  num prob  num prob  num prob  num prob  num prob  num prob  num prob  num prob  num prob  num prob  num prob  num prob RMM: 133    -0.311605901054E+03    0.20625E-03   -0.11531E-04  2891   0.199E-03    0.308E-03
 num prob RMM: 134    -0.311623759040E+03   -0.17858E-01   -0.17522E-01  3542  -0.449E-03    0.189E-02
 num prob  num prob  num prob  num prob  num prob  num prob  num prob  num prob  num prob  num prob  num prob  num prob  num prob  num prob  num prob RMM: 135    -0.311605923532E+03    0.17836E-01   -0.16621E-04  2664   0.184E-03    0.287E-03
 num prob RMM: 136    -0.311605940834E+03   -0.17302E-04   -0.26490E-04  2495   0.171E-03    0.269E-03
WARNING in EDDRMM: call to ZHEGV failed, returncode =   6  3  6
RMM: 137    -0.311606580417E+03   -0.63958E-03   -0.60284E-03  3253   0.165E-03    0.214E-03
RMM: 138    -0.311612960869E+03   -0.63805E-02   -0.79705E-02  2053  -0.281E-03    0.129E-02
 num prob  num prob  num prob  num prob  num prob  num prob  num prob  num prob  num prob  num prob  num prob RMM: 139    -0.311606159922E+03    0.68009E-02   -0.82283E-03  2756  -0.204E-05    0.223E-03
 num prob  num prob RMM: 140    -0.311605961576E+03    0.19835E-03   -0.16397E-04  1954   0.162E-03    0.209E-03
RMM: 141    -0.311605980661E+03   -0.19084E-04   -0.10285E-04  1686   0.170E-03    0.204E-03
RMM: 142    -0.311605992729E+03   -0.12069E-04   -0.11789E-04  2837   0.186E-03    0.190E-03
WARNING in EDDRMM: call to ZHEGV failed, returncode =   8  4  4
RMM: 143    -0.311606004341E+03   -0.11612E-04   -0.11595E-04  2585   0.177E-03    0.190E-03
 num prob  num prob RMM: 144    -0.311606018286E+03   -0.13945E-04   -0.13823E-04  1614   0.165E-03    0.190E-03
RMM: 145    -0.311606148251E+03   -0.12996E-03   -0.19776E-03  2998   0.171E-03    0.220E-03
 num prob  num prob RMM: 146    -0.311606038722E+03    0.10953E-03   -0.63479E-05  1732   0.166E-03    0.224E-03
RMM: 147    -0.311606047753E+03   -0.90310E-05   -0.86199E-05  1416   0.161E-03    0.229E-03
RMM: 148    -0.311606972496E+03   -0.92474E-03   -0.90756E-03  1303   0.128E-03    0.276E-03
 num prob RMM: 149    -0.311606057905E+03    0.91459E-03   -0.41434E-04  1238   0.145E-03    0.240E-03
RMM: 150    -0.311606074654E+03   -0.16749E-04   -0.88544E-05  1422   0.157E-03    0.256E-03
RMM: 151    -0.311606084115E+03   -0.94611E-05   -0.89972E-05  2175   0.165E-03    0.276E-03
RMM: 152    -0.311606092819E+03   -0.87040E-05   -0.94791E-05  2248   0.162E-03    0.211E-03
RMM: 153    -0.311606102656E+03   -0.98371E-05   -0.97782E-05  2076   0.164E-03    0.210E-03
RMM: 154    -0.311606113531E+03   -0.10876E-04   -0.10702E-04  2467   0.162E-03    0.211E-03
 num prob  num prob  num prob  num prob  num prob  num prob  num prob  num prob RMM: 155    -0.311606124883E+03   -0.11351E-04   -0.11104E-04  1476   0.147E-03    0.217E-03
RMM: 156    -0.311606137507E+03   -0.12624E-04   -0.12583E-04  1297   0.148E-03    0.222E-03
RMM: 157    -0.311671660372E+03   -0.65523E-01   -0.59876E-01  3106  -0.808E-03    0.195E-02
WARNING in EDDRMM: call to ZHEGV failed, returncode =   8  4 22
RMM: 158    -0.311607338096E+03    0.64322E-01   -0.14018E-02  3244   0.192E-03    0.217E-03
 num prob  num prob RMM: 159    -0.311614099848E+03   -0.67618E-02   -0.95325E-02  3302  -0.273E-03    0.170E-02
WARNING in EDDRMM: call to ZHEGV failed, returncode =   6  3 20
RMM: 160    -0.311606338029E+03    0.77618E-02   -0.47897E-03  3060   0.182E-03    0.224E-03
 num prob RMM: 161    -0.311606211648E+03    0.12638E-03   -0.11454E-03  2422   0.158E-03    0.243E-03
 num prob RMM: 162    -0.311606221341E+03   -0.96927E-05   -0.17382E-04  3314   0.217E-03    0.357E-03
 num prob  num prob  num prob  num prob  num prob  num prob  num prob  num prob  num prob  num prob  num prob  num prob  num prob  num prob  num prob  num prob  num prob  num prob  num prob  num prob RMM: 163    -0.311606232299E+03   -0.10958E-04   -0.10888E-04  3137   0.191E-03    0.380E-03
 num prob RMM: 164    -0.311606246644E+03   -0.14344E-04   -0.16522E-04  1629   0.155E-03    0.359E-03
RMM: 165    -0.311606259275E+03   -0.12632E-04   -0.13425E-04  1486   0.154E-03    0.358E-03
 num prob RMM: 166    -0.311606293817E+03   -0.34542E-04   -0.70294E-04  1472   0.154E-03    0.369E-03
RMM: 167    -0.311606332223E+03   -0.38406E-04   -0.19749E-03  1571   0.144E-03    0.376E-03
 num prob RMM: 168    -0.311606359988E+03   -0.27765E-04   -0.29444E-03  1672   0.145E-03    0.380E-03
RMM: 169    -0.311606321092E+03    0.38896E-04   -0.62345E-04  1316   0.144E-03    0.382E-03
RMM: 170    -0.311606333271E+03   -0.12180E-04   -0.23229E-04  1360   0.151E-03    0.386E-03
RMM: 171    -0.311606344757E+03   -0.11485E-04   -0.14703E-04  1113   0.148E-03    0.385E-03
RMM: 172    -0.311606362370E+03   -0.17614E-04   -0.26491E-04  1605   0.151E-03    0.384E-03
 num prob RMM: 173    -0.311606380533E+03   -0.18163E-04   -0.43643E-04  1133   0.142E-03    0.389E-03
 num prob RMM: 174    -0.311606700292E+03   -0.31976E-03   -0.55499E-03  2521   0.142E-03    0.379E-03
 num prob RMM: 175    -0.311606401785E+03    0.29851E-03   -0.76764E-04  1546   0.139E-03    0.370E-03
 num prob RMM: 176    -0.311606509563E+03   -0.10778E-03   -0.20399E-03  1805   0.141E-03    0.345E-03
RMM: 177    -0.311606416494E+03    0.93069E-04   -0.71384E-05  2914   0.180E-03    0.329E-03
 num prob RMM: 178    -0.311606426894E+03   -0.10401E-04   -0.10343E-04  2172   0.158E-03    0.328E-03
 num prob  num prob  num prob  num prob  num prob RMM: 179    -0.311606433914E+03   -0.70191E-05   -0.75508E-05  2481   0.169E-03    0.305E-03
RMM: 180    -0.311606444216E+03   -0.10303E-04   -0.10677E-04  2023   0.160E-03    0.291E-03
 num prob RMM: 181    -0.311607914577E+03   -0.14704E-02   -0.14426E-02  1502   0.103E-03    0.277E-03
RMM: 182    -0.311606463963E+03    0.14506E-02   -0.11178E-04  2354   0.160E-03    0.287E-03
 num prob  num prob RMM: 183    -0.311606472243E+03   -0.82799E-05   -0.81981E-05  1218   0.146E-03    0.287E-03
 num prob RMM: 184    -0.311606484155E+03   -0.11912E-04   -0.11755E-04  1157   0.144E-03    0.285E-03
RMM: 185    -0.311606493091E+03   -0.89362E-05   -0.86148E-05  1577   0.148E-03    0.281E-03
 num prob WARNING in EDDRMM: call to ZHEGV failed, returncode =   8  4  7
RMM: 186    -0.311606651505E+03   -0.15841E-03   -0.68340E-03  2264   0.135E-03    0.323E-03
 num prob RMM: 187    -0.311608093284E+03   -0.14418E-02   -0.16940E-02  1242   0.334E-04    0.371E-03
RMM: 188    -0.311606526868E+03    0.15664E-02   -0.12647E-04  1155   0.142E-03    0.280E-03
RMM: 189    -0.311606536164E+03   -0.92957E-05   -0.91100E-05  1245   0.142E-03    0.282E-03
 num prob RMM: 190    -0.311606549458E+03   -0.13294E-04   -0.13508E-04  1001   0.139E-03    0.284E-03
 num prob RMM: 191    -0.311606559104E+03   -0.96455E-05   -0.95196E-05   976   0.138E-03    0.284E-03
RMM: 192    -0.311606573461E+03   -0.14357E-04   -0.14362E-04  1029   0.139E-03    0.283E-03
RMM: 193    -0.311606583882E+03   -0.10421E-04   -0.10373E-04   945   0.138E-03    0.283E-03
WARNING in EDDRMM: call to ZHEGV failed, returncode =   8  4  5
RMM: 194    -0.311606599493E+03   -0.15610E-04   -0.15488E-04   918   0.138E-03    0.284E-03
 num prob RMM: 195    -0.311606611165E+03   -0.11672E-04   -0.11466E-04  1020   0.138E-03    0.285E-03
RMM: 196    -0.311606628287E+03   -0.17122E-04   -0.16913E-04  1109   0.139E-03    0.287E-03
RMM: 197    -0.311606641684E+03   -0.13398E-04   -0.13230E-04  1318   0.142E-03    0.291E-03
RMM: 198    -0.311607219355E+03   -0.57767E-03   -0.76921E-03   973   0.118E-03    0.315E-03
RMM: 199    -0.311606661629E+03    0.55773E-03   -0.99705E-06   990   0.136E-03    0.288E-03
RMM: 200    -0.311606669136E+03   -0.75067E-05   -0.73983E-05   952   0.135E-03
   3 F= -.31491004E+03 E0= -.31491004E+03  d E =-.114620E+03
 curvature:  -0.55 expect dE=-0.280E+02 dE for cont linesearch -0.196E+00
 ZBRENT: extrapolating
 opt :   1.1108  next Energy=  -315.116110 (dE=-0.115E+03)
 bond charge predicted
       N       E                     dE             d eps       ncg     rms          rms(c)
RMM:   1    -0.312297855345E+03   -0.69119E+00   -0.29291E+01  5736   0.128E+01    0.163E+00
RMM:   2    -0.312187749253E+03    0.11011E+00    0.46550E+00  5947   0.128E+00    0.790E-01
RMM:   3    -0.312201396459E+03   -0.13647E-01   -0.11114E-02  6102   0.335E-01    0.386E-01
RMM:   4    -0.312202557314E+03   -0.11609E-02   -0.56337E-03  6107   0.144E-01    0.179E-01
RMM:   5    -0.312202699850E+03   -0.14254E-03   -0.13858E-03  6218   0.753E-02    0.686E-02
RMM:   6    -0.312202545961E+03    0.15389E-03   -0.48267E-05  6287   0.224E-02    0.229E-02
RMM:   7    -0.312202538789E+03    0.71721E-05   -0.88355E-05  6246   0.160E-02    0.108E-02
RMM:   8    -0.312202544490E+03   -0.57010E-05   -0.23675E-05  5588   0.633E-03    0.228E-03
RMM:   9    -0.312202552295E+03   -0.78059E-05   -0.20522E-05  4640   0.393E-03    0.130E-03
 num prob  num prob  num prob  num prob  num prob  num prob  num prob  num prob  num prob RMM:  10    -0.312202554788E+03   -0.24929E-05   -0.32772E-05  4171   0.217E-03    0.269E-04
RMM:  11    -0.312202557432E+03   -0.26436E-05   -0.28960E-05  3027   0.173E-03    0.102E-04
RMM:  12    -0.312202560994E+03   -0.35621E-05   -0.33867E-05  2731   0.164E-03    0.724E-05
RMM:  13    -0.312202564207E+03   -0.32135E-05   -0.30946E-05  2508   0.157E-03    0.488E-05
RMM:  14    -0.312202567676E+03   -0.34687E-05   -0.34056E-05  2336   0.153E-03    0.225E-05
RMM:  15    -0.312202570950E+03   -0.32736E-05   -0.32431E-05  2163   0.147E-03    0.219E-05
 num prob RMM:  16    -0.312202574544E+03   -0.35943E-05   -0.35426E-05  2031   0.143E-03    0.244E-05
RMM:  17    -0.312202578095E+03   -0.35505E-05   -0.35038E-05  1910   0.142E-03    0.324E-05
RMM:  18    -0.312202581733E+03   -0.36383E-05   -0.35868E-05  1762   0.138E-03    0.456E-05
RMM:  19    -0.312202585498E+03   -0.37647E-05   -0.37150E-05  1655   0.134E-03    0.503E-05
RMM:  20    -0.312202589399E+03   -0.39012E-05   -0.38565E-05  1575   0.132E-03    0.533E-05
RMM:  21    -0.312202593525E+03   -0.41258E-05   -0.40837E-05  1522   0.131E-03    0.553E-05
RMM:  22    -0.312202597755E+03   -0.42305E-05   -0.41742E-05  1486   0.130E-03    0.620E-05
RMM:  23    -0.312202602445E+03   -0.46899E-05   -0.46264E-05  1439   0.129E-03    0.712E-05
RMM:  24    -0.312202607190E+03   -0.47446E-05   -0.46762E-05  1415   0.129E-03    0.794E-05
RMM:  25    -0.312202612696E+03   -0.55063E-05   -0.54308E-05  1389   0.128E-03    0.879E-05
RMM:  26    -0.312202618305E+03   -0.56094E-05   -0.55222E-05  1352   0.129E-03    0.958E-05
RMM:  27    -0.312202625074E+03   -0.67684E-05   -0.66620E-05  1337   0.129E-03    0.105E-04
 num prob RMM:  28    -0.312208550057E+03   -0.59250E-02   -0.64270E-02  1331  -0.856E-04    0.118E-03
RMM:  29    -0.312236255704E+03   -0.27706E-01   -0.30188E-01  1350  -0.867E-03    0.175E-02
RMM:  30    -0.312202650564E+03    0.33605E-01   -0.94410E-05  2878   0.165E-03    0.385E-04
RMM:  31    -0.312202662251E+03   -0.11687E-04   -0.11477E-04  2390   0.145E-03    0.161E-04
 num prob RMM:  32    -0.312202996790E+03   -0.33454E-03   -0.34230E-03  1594   0.127E-03    0.275E-04
RMM:  33    -0.312202674322E+03    0.32247E-03    0.42132E-06  1311   0.122E-03    0.184E-04
 num prob  num prob RMM:  34    -0.312202677901E+03   -0.35785E-05   -0.34811E-05  1291   0.122E-03    0.205E-04
RMM:  35    -0.312202691275E+03   -0.13374E-04   -0.13412E-04  1288   0.120E-03    0.244E-04
RMM:  36    -0.312202684630E+03    0.66454E-05   -0.34845E-05  1234   0.121E-03    0.252E-04
RMM:  37    -0.312202688025E+03   -0.33956E-05   -0.33200E-05  1214   0.121E-03    0.268E-04
RMM:  38    -0.312202691565E+03   -0.35396E-05   -0.35063E-05  1189   0.121E-03    0.270E-04
WARNING in EDDRMM: call to ZHEGV failed, returncode =   8  4  7
RMM:  39    -0.312202695185E+03   -0.36204E-05   -0.35284E-05  1181   0.120E-03    0.288E-04
RMM:  40    -0.312202698699E+03   -0.35141E-05   -0.35219E-05  1159   0.119E-03    0.272E-04
RMM:  41    -0.312202724202E+03   -0.25502E-04   -0.28032E-04  1165   0.104E-03    0.246E-04
RMM:  42    -0.312202893658E+03   -0.16946E-03   -0.23260E-03  1141   0.757E-04    0.266E-04
RMM:  43    -0.312204424443E+03   -0.15308E-02   -0.10264E-02  1132   0.215E-04    0.307E-04
RMM:  44    -0.312239595357E+03   -0.35171E-01    0.12463E+00  1147   0.338E-02    0.216E-02
[...]
WARNING in EDDRMM: call to ZHEGV failed, returncode =   6  3 32
 num prob RMM:  14    -0.368614320123E+03    0.12326E-05    0.13037E-05  2063   0.114E-03    0.808E-05
RMM:  15    -0.368614318253E+03    0.18704E-05    0.19384E-05  1948   0.113E-03    0.110E-04
 num prob RMM:  16    -0.368614317126E+03    0.11275E-05    0.12028E-05  1856   0.111E-03    0.144E-04
RMM:  17    -0.368614315686E+03    0.14394E-05    0.14990E-05  1791   0.109E-03    0.152E-04
RMM:  18    -0.368614314516E+03    0.11705E-05    0.12443E-05  1746   0.109E-03    0.209E-04
 num prob RMM:  19    -0.368614313378E+03    0.11373E-05    0.12038E-05  1645   0.106E-03    0.219E-04
 num prob RMM:  20    -0.368614312203E+03    0.11755E-05    0.12414E-05  1605   0.105E-03    0.212E-04
RMM:  21    -0.368614311261E+03    0.94165E-06    0.10182E-05  1552   0.103E-03    0.214E-04
 num prob RMM:  22    -0.368614310146E+03    0.11157E-05    0.11887E-05  1516   0.103E-03    0.211E-04
RMM:  23    -0.368614309340E+03    0.80603E-06    0.86828E-06  1490   0.102E-03
  23 F= -.37115888E+03 E0= -.37115888E+03  d E =-.567312E-01
 curvature:  -0.20 expect dE=-0.175E-01 dE for cont linesearch -0.828E-05
 trial: gam= 0.29620 g(F)=  0.866E-01 g(S)=  0.000E+00 ort =-0.360E-02 (trialstep = 0.352E+00)
 search vector abs. value=  0.112E+00
 bond charge predicted
       N       E                     dE             d eps       ncg     rms          rms(c)
RMM:   1    -0.368638702998E+03   -0.24393E-01   -0.22884E-01  5740   0.147E+00    0.209E-01
RMM:   2    -0.368637431643E+03    0.12714E-02    0.66600E-04  5946   0.139E-01    0.111E-01
RMM:   3    -0.368637278921E+03    0.15272E-03   -0.17509E-03  5891   0.838E-02    0.392E-02
RMM:   4    -0.368637221750E+03    0.57170E-04    0.12216E-04  6296   0.237E-02    0.203E-02
RMM:   5    -0.368637213175E+03    0.85750E-05   -0.59349E-05  6423   0.114E-02    0.101E-02
RMM:   6    -0.368637202218E+03    0.10958E-04    0.40545E-05  5417   0.421E-03    0.544E-03
WARNING in EDDRMM: call to ZHEGV failed, returncode =   8  4 26
RMM:   7    -0.368637198819E+03    0.33987E-05   -0.37303E-05  6065   0.662E-03    0.232E-03
RMM:   8    -0.368637185787E+03    0.13032E-04    0.11434E-04  4435   0.254E-03    0.745E-04
 num prob RMM:   9    -0.368637184376E+03    0.14105E-05    0.18767E-05  4132   0.184E-03    0.641E-04
RMM:  10    -0.368637175839E+03    0.85376E-05    0.79599E-05  3583   0.147E-03    0.427E-04
 num prob  num prob RMM:  11    -0.368637175164E+03    0.67451E-06    0.50836E-06  2755   0.138E-03
  24 F= -.37118238E+03 E0= -.37118238E+03  d E =-.235001E-01
 trial-energy change:   -0.023500  1 .order   -0.022954   -0.030135   -0.015772
 step:   0.6276(harm=  0.7395)  dis= 0.00917  next Energy=  -371.188796 (dE=-0.299E-01)
 bond charge predicted
       N       E                     dE             d eps       ncg     rms          rms(c)
RMM:   1    -0.368646028390E+03   -0.88526E-02   -0.13946E-01  5740   0.115E+00    0.164E-01
RMM:   2    -0.368645240522E+03    0.78787E-03    0.28341E-04  5943   0.109E-01    0.871E-02
RMM:   3    -0.368645129742E+03    0.11078E-03   -0.10424E-03  5912   0.654E-02    0.306E-02
RMM:   4    -0.368645082808E+03    0.46934E-04    0.21490E-04  6475   0.189E-02    0.157E-02
WARNING in EDDRMM: call to ZHEGV failed, returncode =   8  4 28
RMM:   5    -0.368645081346E+03    0.14621E-05   -0.94599E-05  6377   0.879E-03    0.802E-03
WARNING in EDDRMM: call to ZHEGV failed, returncode =   6  3  9
RMM:   6    -0.368645070433E+03    0.10912E-04    0.68470E-05  4691   0.305E-03    0.522E-03
RMM:   7    -0.368645068227E+03    0.22066E-05   -0.38597E-05  5923   0.593E-03    0.182E-03
WARNING in EDDRMM: call to ZHEGV failed, returncode =   6  3 27
RMM:   8    -0.368645055030E+03    0.13196E-04    0.11813E-04  4332   0.207E-03    0.709E-04
RMM:   9    -0.368645053688E+03    0.13422E-05    0.15545E-05  4088   0.174E-03    0.508E-04
RMM:  10    -0.368645044678E+03    0.90097E-05    0.85591E-05  3165   0.141E-03    0.358E-04
RMM:  11    -0.368645043837E+03    0.84168E-06    0.83885E-06  2446   0.126E-03
  25 F= -.37119075E+03 E0= -.37119075E+03  d E =-.318699E-01
 curvature:  -0.44 expect dE=-0.124E-01 dE for cont linesearch -0.669E-03
 trial: gam= 0.14740 g(F)=  0.278E-01 g(S)=  0.000E+00 ort = 0.130E-01 (trialstep = 0.407E+00)
 search vector abs. value=  0.341E-01
 bond charge predicted
       N       E                     dE             d eps       ncg     rms          rms(c)
RMM:   1    -0.368653325110E+03   -0.82804E-02   -0.31126E-01  5733   0.163E+00    0.129E-01
RMM:   2    -0.368652858374E+03    0.46674E-03    0.18187E-03  5915   0.117E-01    0.705E-02
RMM:   3    -0.368652809975E+03    0.48399E-04   -0.27361E-04  6020   0.443E-02    0.156E-02
RMM:   4    -0.368652794806E+03    0.15170E-04    0.67190E-05  6419   0.989E-03    0.755E-03
RMM:   5    -0.368652784538E+03    0.10268E-04    0.88813E-05  6155   0.658E-03    0.318E-03
WARNING in EDDRMM: call to ZHEGV failed, returncode =   8  4 18
WARNING in EDDRMM: call to ZHEGV failed, returncode =   8  4 13
WARNING in EDDRMM: call to ZHEGV failed, returncode =   8  4 22
RMM:   6    -0.368652787187E+03   -0.26492E-05   -0.88382E-06  5372   0.412E-03    0.238E-03
WARNING in EDDRMM: call to ZHEGV failed, returncode =   8  4 23
WARNING in EDDRMM: call to ZHEGV failed, returncode =   8  4 30
RMM:   7    -0.368652777813E+03    0.93748E-05    0.83970E-05  4309   0.252E-03    0.456E-04
 num prob  num prob  num prob  num prob  num prob  num prob  num prob  num prob  num prob  num prob  num prob  num prob  num prob  num prob  num prob  num prob  num prob  num prob  num prob  num prob  num prob  num prob  num prob  num prob  num prob  num prob  num prob  num prob  num prob  num prob  num prob  num prob  num prob  num prob RMM:   8    -0.368652778133E+03   -0.32009E-06   -0.29172E-06  3922   0.168E-03
  26 F= -.37119828E+03 E0= -.37119828E+03  d E =-.752931E-02
 trial-energy change:   -0.007529  1 .order   -0.007538   -0.012125   -0.002950
 step:   0.5385(harm=  0.5385)  dis= 0.00489  next Energy=  -371.198760 (dE=-0.801E-02)
 bond charge predicted
       N       E                     dE             d eps       ncg     rms          rms(c)
RMM:   1    -0.368653401786E+03   -0.62397E-03   -0.32492E-02  5732   0.524E-01    0.418E-02
RMM:   2    -0.368653331422E+03    0.70364E-04    0.41273E-04  5944   0.380E-02    0.228E-02
RMM:   3    -0.368653325924E+03    0.54979E-05   -0.99215E-06  6245   0.147E-02    0.508E-03
RMM:   4    -0.368653322746E+03    0.31784E-05    0.16292E-05  4676   0.366E-03    0.245E-03
RMM:   5    -0.368653314157E+03    0.85885E-05    0.81353E-05  4248   0.300E-03    0.956E-04
RMM:   6    -0.368653316359E+03   -0.22019E-05   -0.14522E-05  4076   0.180E-03    0.563E-04
WARNING in EDDRMM: call to ZHEGV failed, returncode =   6  3 12
RMM:   7    -0.368653308618E+03    0.77415E-05    0.76204E-05  3552   0.146E-03    0.186E-04
 num prob  num prob RMM:   8    -0.368653311411E+03   -0.27936E-05   -0.27227E-05  2811   0.127E-03    0.212E-04
RMM:   9    -0.368653306543E+03    0.48690E-05    0.49478E-05  2302   0.111E-03    0.104E-04
 num prob  num prob  num prob  num prob  num prob  num prob  num prob RMM:  10    -0.368653309407E+03   -0.28647E-05   -0.27329E-05  2310   0.111E-03    0.775E-05
WARNING in EDDRMM: call to ZHEGV failed, returncode =   6  3 16
RMM:  11    -0.368653305077E+03    0.43298E-05    0.43951E-05  2045   0.108E-03    0.209E-05
 num prob RMM:  12    -0.368653307707E+03   -0.26298E-05   -0.25425E-05  1938   0.107E-03    0.965E-05
 num prob RMM:  13    -0.368653303810E+03    0.38971E-05    0.39541E-05  1833   0.103E-03    0.377E-05
RMM:  14    -0.368653306138E+03   -0.23278E-05   -0.22577E-05  1763   0.104E-03    0.521E-05
RMM:  15    -0.368653302439E+03    0.36991E-05    0.37661E-05  1677   0.105E-03    0.118E-05
RMM:  16    -0.368653304659E+03   -0.22199E-05   -0.21453E-05  1621   0.100E-03    0.524E-05
 num prob RMM:  17    -0.368653301113E+03    0.35457E-05    0.36189E-05  1563   0.101E-03    0.175E-05
 num prob  num prob RMM:  18    -0.368653303217E+03   -0.21038E-05   -0.20275E-05  1481   0.995E-04    0.528E-05
RMM:  19    -0.368653299792E+03    0.34248E-05    0.35006E-05  1438   0.964E-04    0.191E-05
 num prob RMM:  20    -0.368653301846E+03   -0.20543E-05   -0.19783E-05  1415   0.977E-04    0.574E-05
 num prob RMM:  21    -0.368653298524E+03    0.33219E-05    0.33998E-05  1358   0.987E-04    0.267E-05
RMM:  22    -0.368653300558E+03   -0.20336E-05   -0.19573E-05  1356   0.957E-04    0.642E-05
 num prob RMM:  23    -0.368653297314E+03    0.32439E-05    0.33185E-05  1354   0.958E-04    0.322E-05
 num prob  num prob RMM:  24    -0.368653299288E+03   -0.19734E-05   -0.19031E-05  1279   0.951E-04    0.667E-05
RMM:  25    -0.368653296151E+03    0.31362E-05    0.32052E-05  1256   0.924E-04    0.344E-05
RMM:  26    -0.368653298047E+03   -0.18958E-05   -0.18340E-05  1264   0.933E-04    0.431E-05
 num prob  num prob RMM:  27    -0.368653294989E+03    0.30584E-05    0.31212E-05  1215   0.935E-04    0.834E-06
RMM:  28    -0.368653296854E+03   -0.18656E-05   -0.17956E-05  1202   0.906E-04    0.387E-05
 num prob RMM:  29    -0.368653293890E+03    0.29641E-05    0.30342E-05  1218   0.920E-04    0.886E-06
 num prob RMM:  30    -0.368653295658E+03   -0.17674E-05   -0.17157E-05  1151   0.912E-04    0.316E-05
RMM:  31    -0.368653292855E+03    0.28031E-05    0.28681E-05  1149   0.897E-04    0.751E-06
 num prob  num prob  num prob  num prob RMM:  32    -0.368653294521E+03   -0.16659E-05   -0.15961E-05  1136   0.904E-04    0.247E-05
 num prob  num prob RMM:  33    -0.368653291916E+03    0.26043E-05    0.26682E-05  1131   0.898E-04    0.768E-05
 num prob  num prob RMM:  34    -0.368653293449E+03   -0.15328E-05   -0.14630E-05  1090   0.879E-04    0.519E-05
RMM:  35    -0.368653291130E+03    0.23187E-05    0.24018E-05  1106   0.883E-04    0.720E-05
 num prob  num prob  num prob  num prob  num prob RMM:  36    -0.368653292534E+03   -0.14033E-05   -0.13246E-05  1059   0.882E-04    0.455E-05
RMM:  37    -0.368653290498E+03    0.20357E-05    0.21128E-05  1057   0.873E-04    0.916E-05
RMM:  38    -0.368653291688E+03   -0.11901E-05   -0.11131E-05  1046   0.872E-04    0.682E-05
 num prob  num prob  num prob RMM:  39    -0.368653289965E+03    0.17230E-05    0.18000E-05  1015   0.859E-04    0.850E-05
 num prob RMM:  40    -0.368653290921E+03   -0.95611E-06   -0.88137E-06   997   0.850E-04
  27 F= -.37119873E+03 E0= -.37119873E+03  d E =-.797766E-02
 curvature:  -0.31 expect dE=-0.478E-02 dE for cont linesearch -0.829E-09
 trial: gam= 0.63552 g(F)=  0.155E-01 g(S)=  0.000E+00 ort =-0.957E-05 (trialstep = 0.434E+00)
 search vector abs. value=  0.292E-01
 bond charge predicted
       N       E                     dE             d eps       ncg     rms          rms(c)
RMM:   1    -0.368658485758E+03   -0.51958E-02   -0.11650E-01  5736   0.111E+00    0.925E-02
RMM:   2    -0.368658384933E+03    0.10082E-03   -0.41051E-04  5905   0.860E-02    0.536E-02
RMM:   3    -0.368658385864E+03   -0.93056E-06   -0.18199E-04  6004   0.403E-02    0.187E-02
WARNING in EDDRMM: call to ZHEGV failed, returncode =   8  4 25
RMM:   4    -0.368658358740E+03    0.27124E-04    0.78748E-05  6204   0.116E-02    0.101E-02
RMM:   5    -0.368658347497E+03    0.11243E-04    0.11610E-04  5263   0.533E-03    0.307E-03
WARNING in EDDRMM: call to ZHEGV failed, returncode =   8  4 20
RMM:   6    -0.368658347353E+03    0.14362E-06    0.24430E-05  5469   0.416E-03    0.228E-03
WARNING in EDDRMM: call to ZHEGV failed, returncode =   8  4 29
RMM:   7    -0.368658339357E+03    0.79965E-05    0.75012E-05  4298   0.227E-03    0.640E-04
 num prob  num prob  num prob  num prob  num prob  num prob  num prob RMM:   8    -0.368658340332E+03   -0.97534E-06   -0.11805E-05  3950   0.175E-03    0.635E-04
WARNING in EDDRMM: call to ZHEGV failed, returncode =   6  3 10
RMM:   9    -0.368658335934E+03    0.43974E-05    0.50985E-05  3081   0.124E-03    0.400E-04
RMM:  10    -0.368658338724E+03   -0.27896E-05   -0.22632E-05  3103   0.127E-03    0.139E-04
RMM:  11    -0.368658335634E+03    0.30901E-05    0.32369E-05  2456   0.111E-03    0.114E-04
 num prob  num prob RMM:  12    -0.368658338383E+03   -0.27493E-05   -0.25215E-05  2401   0.114E-03    0.426E-05
RMM:  13    -0.368658335999E+03    0.23839E-05    0.24178E-05  2134   0.109E-03    0.194E-05
RMM:  14    -0.368658338367E+03   -0.23679E-05   -0.22640E-05  2088   0.110E-03    0.287E-05
RMM:  15    -0.368658335885E+03    0.24825E-05    0.25235E-05  2007   0.106E-03    0.269E-05
RMM:  16    -0.368658338054E+03   -0.21690E-05   -0.20887E-05  1850   0.107E-03    0.147E-05
RMM:  17    -0.368658335677E+03    0.23769E-05    0.24417E-05  1792   0.104E-03    0.349E-05
 num prob RMM:  18    -0.368658337646E+03   -0.19691E-05   -0.18992E-05  1698   0.103E-03    0.156E-05
 num prob RMM:  19    -0.368658335471E+03    0.21754E-05    0.22438E-05  1585   0.102E-03    0.475E-05
 num prob RMM:  20    -0.368658337201E+03   -0.17304E-05   -0.16635E-05  1519   0.101E-03    0.307E-05
RMM:  21    -0.368658335294E+03    0.19072E-05    0.19842E-05  1489   0.100E-03    0.609E-05
 num prob RMM:  22    -0.368658336756E+03   -0.14626E-05   -0.13948E-05  1437   0.101E-03    0.482E-05
 num prob RMM:  23    -0.368658335120E+03    0.16363E-05    0.17062E-05  1407   0.995E-04    0.770E-05
RMM:  24    -0.368658336277E+03   -0.11566E-05   -0.10905E-05  1383   0.997E-04    0.110E-05
 num prob RMM:  25    -0.368658334853E+03    0.14236E-05    0.14915E-05  1377   0.996E-04    0.282E-05
 num prob RMM:  26    -0.368658335740E+03   -0.88715E-06   -0.81873E-06  1306   0.972E-04
  28 F= -.37120350E+03 E0= -.37120350E+03  d E =-.477080E-02
 trial-energy change:   -0.004771  1 .order   -0.004744   -0.006710   -0.002777
 step:   0.7201(harm=  0.7399)  dis= 0.00464  next Energy=  -371.204421 (dE=-0.570E-02)
 bond charge predicted
       N       E                     dE             d eps       ncg     rms          rms(c)
RMM:   1    -0.368659596833E+03   -0.12620E-02   -0.50954E-02  5737   0.733E-01    0.610E-02
RMM:   2    -0.368659543447E+03    0.53386E-04   -0.25444E-05  5915   0.569E-02    0.353E-02
RMM:   3    -0.368659540904E+03    0.25439E-05   -0.17643E-05  6058   0.267E-02    0.123E-02
RMM:   4    -0.368659526535E+03    0.14369E-04    0.44474E-05  6386   0.779E-03    0.661E-03
RMM:   5    -0.368659518020E+03    0.85149E-05    0.86200E-05  4585   0.376E-03    0.202E-03
RMM:   6    -0.368659519160E+03   -0.11395E-05    0.49117E-06  4315   0.280E-03    0.120E-03
 num prob RMM:   7    -0.368659512847E+03    0.63129E-05    0.60126E-05  3997   0.172E-03    0.273E-04
RMM:   8    -0.368659513732E+03   -0.88500E-06   -0.66259E-06  2885   0.128E-03
  29 F= -.37120449E+03 E0= -.37120449E+03  d E =-.576908E-02
 curvature:  -0.70 expect dE=-0.123E-02 dE for cont linesearch -0.409E-05
 trial: gam= 0.02307 g(F)=  0.177E-02 g(S)=  0.000E+00 ort = 0.414E-03 (trialstep = 0.491E+00)
 search vector abs. value=  0.180E-02
 bond charge predicted
       N       E                     dE             d eps       ncg     rms          rms(c)
RMM:   1    -0.368660042255E+03   -0.52941E-03   -0.19315E-02  5739   0.386E-01    0.520E-02
RMM:   2    -0.368659919680E+03    0.12257E-03    0.33056E-04  5956   0.349E-02    0.260E-02
RMM:   3    -0.368659891730E+03    0.27951E-04   -0.36450E-05  6021   0.195E-02    0.860E-03
RMM:   4    -0.368659890265E+03    0.14646E-05    0.72799E-06  6334   0.565E-03    0.403E-03
WARNING in EDDRMM: call to ZHEGV failed, returncode =   8  4 24
WARNING in EDDRMM: call to ZHEGV failed, returncode =   8  4  9
RMM:   5    -0.368659883808E+03    0.64569E-05    0.46773E-05  4477   0.347E-03    0.224E-03
WARNING in EDDRMM: call to ZHEGV failed, returncode =   8  4 13
WARNING in EDDRMM: call to ZHEGV failed, returncode =   6  3 26
RMM:   6    -0.368659884666E+03   -0.85811E-06   -0.23025E-05  4268   0.221E-03    0.437E-04
 num prob  num prob  num prob  num prob  num prob  num prob  num prob  num prob  num prob RMM:   7    -0.368659880760E+03    0.39065E-05    0.36479E-05  3695   0.136E-03    0.218E-04
 num prob RMM:   8    -0.368659882701E+03   -0.19410E-05   -0.19485E-05  2461   0.114E-03    0.134E-04
RMM:   9    -0.368659878332E+03    0.43685E-05    0.43921E-05  2216   0.103E-03    0.603E-05
 num prob  num prob  num prob RMM:  10    -0.368659880832E+03   -0.24999E-05   -0.23844E-05  2121   0.103E-03    0.381E-05
 num prob  num prob RMM:  11    -0.368659877502E+03    0.33307E-05    0.34134E-05  1947   0.986E-04    0.344E-05
 num prob RMM:  12    -0.368659879834E+03   -0.23325E-05   -0.22618E-05  1824   0.100E-03    0.295E-05
 num prob  num prob RMM:  13    -0.368659876883E+03    0.29511E-05    0.30090E-05  1746   0.101E-03    0.215E-05
 num prob  num prob RMM:  14    -0.368659879072E+03   -0.21892E-05   -0.21224E-05  1663   0.987E-04    0.232E-05
 num prob RMM:  15    -0.368659876374E+03    0.26986E-05    0.27622E-05  1597   0.997E-04    0.157E-05
 num prob  num prob RMM:  16    -0.368659878433E+03   -0.20599E-05   -0.19936E-05  1530   0.100E-03    0.219E-05
 num prob  num prob RMM:  17    -0.368659875944E+03    0.24890E-05    0.25548E-05  1479   0.986E-04    0.157E-05
 num prob  num prob RMM:  18    -0.368659877803E+03   -0.18588E-05   -0.17902E-05  1395   0.992E-04    0.259E-05
RMM:  19    -0.368659875508E+03    0.22957E-05    0.23620E-05  1360   0.100E-03    0.832E-06
 num prob RMM:  20    -0.368659877252E+03   -0.17446E-05   -0.16789E-05  1340   0.970E-04    0.296E-05
 num prob  num prob RMM:  21    -0.368659875164E+03    0.20884E-05    0.21574E-05  1305   0.985E-04    0.434E-06
 num prob  num prob RMM:  22    -0.368659876757E+03   -0.15931E-05   -0.15260E-05  1298   0.995E-04    0.326E-05
 num prob RMM:  23    -0.368659874879E+03    0.18778E-05    0.19443E-05  1272   0.966E-04    0.184E-05
RMM:  24    -0.368659876283E+03   -0.14041E-05   -0.13381E-05  1233   0.977E-04    0.422E-05
RMM:  25    -0.368659874606E+03    0.16775E-05    0.17441E-05  1210   0.986E-04    0.275E-05
 num prob  num prob RMM:  26    -0.368659875833E+03   -0.12270E-05   -0.11616E-05  1181   0.949E-04    0.537E-05
 num prob  num prob RMM:  27    -0.368659874300E+03    0.15332E-05    0.15992E-05  1175   0.972E-04    0.400E-05
 num prob RMM:  28    -0.368659875353E+03   -0.10535E-05   -0.98771E-06  1152   0.973E-04    0.650E-05
 num prob  num prob  num prob RMM:  29    -0.368659873988E+03    0.13651E-05    0.14304E-05  1128   0.942E-04    0.503E-05
 num prob RMM:  30    -0.368659874846E+03   -0.85771E-06   -0.79165E-06  1144   0.954E-04
  30 F= -.37120502E+03 E0= -.37120502E+03  d E =-.530190E-03
 trial-energy change:   -0.000530  1 .order   -0.000392   -0.000874    0.000090
 step:   0.4658(harm=  0.4452)  dis= 0.00103  next Energy=  -371.205027 (dE=-0.532E-03)
 bond charge predicted
       N       E                     dE             d eps       ncg     rms          rms(c)
RMM:   1    -0.368659878570E+03   -0.45817E-05   -0.51149E-05  5766   0.201E-02    0.269E-03
 num prob  num prob  num prob  num prob  num prob  num prob  num prob  num prob  num prob  num prob  num prob  num prob  num prob  num prob  num prob  num prob  num prob  num prob  num prob  num prob  num prob  num prob  num prob  num prob  num prob  num prob  num prob  num prob  num prob  num prob  num prob  num prob  num prob  num prob  num prob  num prob  num prob  num prob  num prob  num prob  num prob  num prob  num prob  num prob  num prob  num prob  num prob  num prob  num prob  num prob  num prob  num prob  num prob  num prob  num prob  num prob  num prob  num prob  num prob  num prob RMM:   2    -0.368659878564E+03    0.52191E-08    0.70259E-06  3583   0.226E-03
  31 F= -.37120502E+03 E0= -.37120502E+03  d E =-.525214E-03
 curvature:  -0.18 expect dE=-0.113E-03 dE for cont linesearch -0.817E-06
 trial: gam= 0.41234 g(F)=  0.629E-03 g(S)=  0.000E+00 ort =-0.905E-04 (trialstep = 0.486E+00)
 search vector abs. value=  0.862E-03
 reached required accuracy - stopping structural energy minimisation
