mesh: [     9,     9,     4 ]
nqpoint: 324    
reciprocal_lattice:
- [   0.37725542,  -0.21780852,  -0.15401388 ] # a*
- [   0.00000000,   0.43561704,  -0.15401388 ] # b*
- [   0.00000000,   0.00000000,   0.46204165 ] # c*
natom:   2      
lattice:
- [     2.650723983494909,     0.000000000000000,     0.000000000000000 ] # a
- [     1.325361991696796,     2.295594308136868,     0.000000000000000 ] # b
- [     1.325361991696796,     0.765198102678518,     2.164307069429294 ] # c
points:
- symbol: C  # 1
  coordinates: [  0.000000000000000,  0.000000000000000,  0.000000000000000 ]
  mass: 12.010700
- symbol: C  # 2
  coordinates: [  0.250000000000000,  0.250000000000000,  0.249999985000000 ]
  mass: 12.010700
phonon:
- q-position: [    0.0000000,    0.0000000,    0.1250000 ]
  weight: 1    
  band:
  - # 1
    frequency:     5.3342417936
  - # 2
    frequency:     5.3342417937
  - # 3
    frequency:     8.8034989517
  - # 4
    frequency:    32.9966210617
  - # 5
    frequency:    32.9966210624
  - # 6
    frequency:    33.6677455716

- q-position: [    0.1111111,    0.0000000,    0.1250000 ]
  weight: 1    
  band:
  - # 1
    frequency:     5.9951396210
  - # 2
    frequency:     5.9969650338
  - # 3
    frequency:     9.5014746302
  - # 4
    frequency:    32.9104423036
  - # 5
    frequency:    32.9112334729
  - # 6
    frequency:    33.7179426434

- q-position: [    0.2222222,    0.0000000,    0.1250000 ]
  weight: 1    
  band:
  - # 1
    frequency:     9.2798567453
  - # 2
    frequency:     9.4342691883
  - # 3
    frequency:    14.5090384378
  - # 4
    frequency:    32.2412612074
  - # 5
    frequency:    32.3027245241
  - # 6
    frequency:    34.0310810081

- q-position: [    0.3333333,    0.0000000,    0.1250000 ]
  weight: 1    
  band:
  - # 1
    frequency:    12.9139216924
  - # 2
    frequency:    13.4698173430
  - # 3
    frequency:    19.7681766879
  - # 4
    frequency:    31.0984269152
  - # 5
    frequency:    31.3711225088
  - # 6
    frequency:    34.1155714689

- q-position: [    0.4444444,    0.0000000,    0.1250000 ]
  weight: 1    
  band:
  - # 1
    frequency:    15.7146920122
  - # 2
    frequency:    16.6913525868
  - # 3
    frequency:    23.6797380803
  - # 4
    frequency:    29.8834369288
  - # 5
    frequency:    30.3851583001
  - # 6
    frequency:    33.7428348260

- q-position: [   -0.4444444,    0.0000000,    0.1250000 ]
  weight: 1    
  band:
  - # 1
    frequency:    16.5387415153
  - # 2
    frequency:    17.8797697885
  - # 3
    frequency:    24.8968929194
  - # 4
    frequency:    29.4534319582
  - # 5
    frequency:    30.0363115885
  - # 6
    frequency:    33.4292043983

- q-position: [   -0.3333333,    0.0000000,    0.1250000 ]
  weight: 1    
  band:
  - # 1
    frequency:    14.9002822683
  - # 2
    frequency:    16.3983985214
  - # 3
    frequency:    22.6900556248
  - # 4
    frequency:    30.2416175337
  - # 5
    frequency:    30.7454310806
  - # 6
    frequency:    33.7377367023

- q-position: [   -0.2222222,    0.0000000,    0.1250000 ]
  weight: 1    
  band:
  - # 1
    frequency:    11.7043210778
  - # 2
    frequency:    13.0099396950
  - # 3
    frequency:    18.2340806938
  - # 4
    frequency:    31.4910323513
  - # 5
    frequency:    31.8081460316
  - # 6
    frequency:    33.9822267097

- q-position: [   -0.1111111,    0.0000000,    0.1250000 ]
  weight: 1    
  band:
  - # 1
    frequency:     8.0537988116
  - # 2
    frequency:     8.7535505839
  - # 3
    frequency:    12.9743548670
  - # 4
    frequency:    32.4988237337
  - # 5
    frequency:    32.5960760661
  - # 6
    frequency:    33.8814798091

- q-position: [    0.0000000,    0.1111111,    0.1250000 ]
  weight: 1    
  band:
  - # 1
    frequency:     5.9951396209
  - # 2
    frequency:     5.9969650338
  - # 3
    frequency:     9.5014746302
  - # 4
    frequency:    32.9104423033
  - # 5
    frequency:    32.9112334733
  - # 6
    frequency:    33.7179426433

- q-position: [    0.1111111,    0.1111111,    0.1250000 ]
  weight: 1    
  band:
  - # 1
    frequency:     4.9615823130
  - # 2
    frequency:     5.0071863592
  - # 3
    frequency:     8.2168141615
  - # 4
    frequency:    33.0434765713
  - # 5
    frequency:    33.0444640142
  - # 6
    frequency:    33.6297837997

- q-position: [    0.2222222,    0.1111111,    0.1250000 ]
  weight: 1    
  band:
  - # 1
    frequency:     7.6195681173
  - # 2
    frequency:     8.2279173943
  - # 3
    frequency:    12.3208971074
  - # 4
    frequency:    32.5918614153
  - # 5
    frequency:    32.6686169042
  - # 6
    frequency:    33.8520209444

- q-position: [    0.3333333,    0.1111111,    0.1250000 ]
  weight: 1    
  band:
  - # 1
    frequency:    11.3148624730
  - # 2
    frequency:    12.4843714596
  - # 3
    frequency:    17.7238733132
  - # 4
    frequency:    31.6214066139
  - # 5
    frequency:    31.8901577532
  - # 6
    frequency:    34.0121665951

- q-position: [    0.4444444,    0.1111111,    0.1250000 ]
  weight: 1    
  band:
  - # 1
    frequency:    14.6080905974
  - # 2
    frequency:    15.9698181999
  - # 3
    frequency:    22.3623778200
  - # 4
    frequency:    30.3770708448
  - # 5
    frequency:    30.8192095283
  - # 6
    frequency:    33.8347154082

- q-position: [    0.5555556,    0.1111111,    0.1250000 ]
  weight: 1    
  band:
  - # 1
    frequency:    16.4172834511
  - # 2
    frequency:    17.6602481890
  - # 3
    frequency:    24.8191798034
  - # 4
    frequency:    29.5224164184
  - # 5
    frequency:    30.0509793995
  - # 6
    frequency:    33.5138008238

- q-position: [   -0.3333333,    0.1111111,    0.1250000 ]
  weight: 1    
  band:
  - # 1
    frequency:    15.7849422162
  - # 2
    frequency:    16.7185237775
  - # 3
    frequency:    23.8616416178
  - # 4
    frequency:    29.8534907797
  - # 5
    frequency:    30.3294899283
  - # 6
    frequency:    33.7551481006

- q-position: [   -0.2222222,    0.1111111,    0.1250000 ]
  weight: 1    
  band:
  - # 1
    frequency:    13.0806039245
  - # 2
    frequency:    13.6526498494
  - # 3
    frequency:    20.0630479119
  - # 4
    frequency:    31.0363532092
  - # 5
    frequency:    31.3141135070
  - # 6
    frequency:    34.1164362629

- q-position: [   -0.1111111,    0.1111111,    0.1250000 ]
  weight: 1    
  band:
  - # 1
    frequency:     9.4322521520
  - # 2
    frequency:     9.6457524205
  - # 3
    frequency:    14.7737600505
  - # 4
    frequency:    32.2002903533
  - # 5
    frequency:    32.2753373854
  - # 6
    frequency:    34.0384384848

- q-position: [    0.0000000,    0.2222222,    0.1250000 ]
  weight: 1    
  band:
  - # 1
    frequency:     9.2798567452
  - # 2
    frequency:     9.4342691883
  - # 3
    frequency:    14.5090384379
  - # 4
    frequency:    32.2412612071
  - # 5
    frequency:    32.3027245242
  - # 6
    frequency:    34.0310810083

- q-position: [    0.1111111,    0.2222222,    0.1250000 ]
  weight: 1    
  band:
  - # 1
    frequency:     7.6195681172
  - # 2
    frequency:     8.2279173943
  - # 3
    frequency:    12.3208971075
  - # 4
    frequency:    32.5918614150
  - # 5
    frequency:    32.6686169042
  - # 6
    frequency:    33.8520209447

- q-position: [    0.2222222,    0.2222222,    0.1250000 ]
  weight: 1    
  band:
  - # 1
    frequency:     9.0119931221
  - # 2
    frequency:     9.1540462658
  - # 3
    frequency:    14.2062758501
  - # 4
    frequency:    32.3119132244
  - # 5
    frequency:    32.3776734520
  - # 6
    frequency:    34.0077882869

- q-position: [    0.3333333,    0.2222222,    0.1250000 ]
  weight: 1    
  band:
  - # 1
    frequency:    11.7697407015
  - # 2
    frequency:    12.9109663823
  - # 3
    frequency:    18.0496078804
  - # 4
    frequency:    31.4620785057
  - # 5
    frequency:    31.7582152543
  - # 6
    frequency:    34.0019972999

- q-position: [    0.4444444,    0.2222222,    0.1250000 ]
  weight: 1    
  band:
  - # 1
    frequency:    14.9292570685
  - # 2
    frequency:    17.0283103602
  - # 3
    frequency:    21.9150736908
  - # 4
    frequency:    30.1808168401
  - # 5
    frequency:    30.9904394811
  - # 6
    frequency:    33.4465957875

- q-position: [    0.5555556,    0.2222222,    0.1250000 ]
  weight: 1    
  band:
  - # 1
    frequency:    17.2503180685
  - # 2
    frequency:    19.7675098233
  - # 3
    frequency:    24.7223725251
  - # 4
    frequency:    28.9882920254
  - # 5
    frequency:    30.2415466143
  - # 6
    frequency:    32.5791289827

- q-position: [   -0.3333333,    0.2222222,    0.1250000 ]
  weight: 1    
  band:
  - # 1
    frequency:    17.4166309534
  - # 2
    frequency:    19.7962986670
  - # 3
    frequency:    24.9435724242
  - # 4
    frequency:    28.8960505749
  - # 5
    frequency:    30.1204433927
  - # 6
    frequency:    32.5883421634

- q-position: [   -0.2222222,    0.2222222,    0.1250000 ]
  weight: 1    
  band:
  - # 1
    frequency:    15.2940189447
  - # 2
    frequency:    17.1136792845
  - # 3
    frequency:    22.4007681078
  - # 4
    frequency:    30.0116235079
  - # 5
    frequency:    30.7682032416
  - # 6
    frequency:    33.4949652674

- q-position: [   -0.1111111,    0.2222222,    0.1250000 ]
  weight: 1    
  band:
  - # 1
    frequency:    12.1565902031
  - # 2
    frequency:    13.1121465046
  - # 3
    frequency:    18.5451069160
  - # 4
    frequency:    31.3261853523
  - # 5
    frequency:    31.5878544051
  - # 6
    frequency:    34.0537313209

- q-position: [    0.0000000,    0.3333333,    0.1250000 ]
  weight: 1    
  band:
  - # 1
    frequency:    12.9139216923
  - # 2
    frequency:    13.4698173430
  - # 3
    frequency:    19.7681766881
  - # 4
    frequency:    31.0984269149
  - # 5
    frequency:    31.3711225088
  - # 6
    frequency:    34.1155714693

- q-position: [    0.1111111,    0.3333333,    0.1250000 ]
  weight: 1    
  band:
  - # 1
    frequency:    11.3148624729
  - # 2
    frequency:    12.4843714596
  - # 3
    frequency:    17.7238733134
  - # 4
    frequency:    31.6214066136
  - # 5
    frequency:    31.8901577532
  - # 6
    frequency:    34.0121665955

- q-position: [    0.2222222,    0.3333333,    0.1250000 ]
  weight: 1    
  band:
  - # 1
    frequency:    11.7697407014
  - # 2
    frequency:    12.9109663823
  - # 3
    frequency:    18.0496078806
  - # 4
    frequency:    31.4620785055
  - # 5
    frequency:    31.7582152544
  - # 6
    frequency:    34.0019973001

- q-position: [    0.3333333,    0.3333333,    0.1250000 ]
  weight: 1    
  band:
  - # 1
    frequency:    13.8674686419
  - # 2
    frequency:    14.4158317070
  - # 3
    frequency:    20.7511526872
  - # 4
    frequency:    30.6590220182
  - # 5
    frequency:    30.8885525509
  - # 6
    frequency:    34.1228137119

- q-position: [    0.4444444,    0.3333333,    0.1250000 ]
  weight: 1    
  band:
  - # 1
    frequency:    16.5067308691
  - # 2
    frequency:    17.8286024656
  - # 3
    frequency:    23.7055676787
  - # 4
    frequency:    29.3352369722
  - # 5
    frequency:    29.9413074464
  - # 6
    frequency:    33.5367475267

- q-position: [    0.5555556,    0.3333333,    0.1250000 ]
  weight: 1    
  band:
  - # 1
    frequency:    19.0010660436
  - # 2
    frequency:    21.6482698398
  - # 3
    frequency:    25.7895673958
  - # 4
    frequency:    27.8216089408
  - # 5
    frequency:    29.3057164979
  - # 6
    frequency:    32.0113860056

- q-position: [   -0.3333333,    0.3333333,    0.1250000 ]
  weight: 1    
  band:
  - # 1
    frequency:    19.7072007007
  - # 2
    frequency:    23.7087448475
  - # 3
    frequency:    25.9479200559
  - # 4
    frequency:    27.3258685295
  - # 5
    frequency:    29.6561211859
  - # 6
    frequency:    30.6412585753

- q-position: [   -0.2222222,    0.3333333,    0.1250000 ]
  weight: 1    
  band:
  - # 1
    frequency:    17.9316772659
  - # 2
    frequency:    21.5374271770
  - # 3
    frequency:    24.3346127647
  - # 4
    frequency:    28.5157262118
  - # 5
    frequency:    30.3795485503
  - # 6
    frequency:    31.8232666471

- q-position: [   -0.1111111,    0.3333333,    0.1250000 ]
  weight: 1    
  band:
  - # 1
    frequency:    15.2580354988
  - # 2
    frequency:    17.1975911151
  - # 3
    frequency:    22.2647373770
  - # 4
    frequency:    30.0197052992
  - # 5
    frequency:    30.8080598662
  - # 6
    frequency:    33.4599041010

- q-position: [    0.0000000,    0.4444444,    0.1250000 ]
  weight: 1    
  band:
  - # 1
    frequency:    15.7146920120
  - # 2
    frequency:    16.6913525868
  - # 3
    frequency:    23.6797380806
  - # 4
    frequency:    29.8834369286
  - # 5
    frequency:    30.3851583000
  - # 6
    frequency:    33.7428348263

- q-position: [    0.1111111,    0.4444444,    0.1250000 ]
  weight: 1    
  band:
  - # 1
    frequency:    14.6080905973
  - # 2
    frequency:    15.9698181999
  - # 3
    frequency:    22.3623778203
  - # 4
    frequency:    30.3770708445
  - # 5
    frequency:    30.8192095282
  - # 6
    frequency:    33.8347154087

- q-position: [    0.2222222,    0.4444444,    0.1250000 ]
  weight: 1    
  band:
  - # 1
    frequency:    14.9292570684
  - # 2
    frequency:    17.0283103601
  - # 3
    frequency:    21.9150736910
  - # 4
    frequency:    30.1808168399
  - # 5
    frequency:    30.9904394809
  - # 6
    frequency:    33.4465957879

- q-position: [    0.3333333,    0.4444444,    0.1250000 ]
  weight: 1    
  band:
  - # 1
    frequency:    16.5067308691
  - # 2
    frequency:    17.8286024657
  - # 3
    frequency:    23.7055676788
  - # 4
    frequency:    29.3352369721
  - # 5
    frequency:    29.9413074464
  - # 6
    frequency:    33.5367475268

- q-position: [    0.4444444,    0.4444444,    0.1250000 ]
  weight: 1    
  band:
  - # 1
    frequency:    18.5852287610
  - # 2
    frequency:    19.4912361178
  - # 3
    frequency:    26.3330384331
  - # 4
    frequency:    28.0297981538
  - # 5
    frequency:    28.3496924316
  - # 6
    frequency:    33.2684338377

- q-position: [    0.5555556,    0.4444444,    0.1250000 ]
  weight: 1    
  band:
  - # 1
    frequency:    21.0651999254
  - # 2
    frequency:    22.2249695388
  - # 3
    frequency:    26.3076758991
  - # 4
    frequency:    27.1261136166
  - # 5
    frequency:    28.3636563077
  - # 6
    frequency:    31.9022466964

- q-position: [    0.6666667,    0.4444444,    0.1250000 ]
  weight: 1    
  band:
  - # 1
    frequency:    21.9954108751
  - # 2
    frequency:    24.8505610009
  - # 3
    frequency:    25.7774807829
  - # 4
    frequency:    27.0011047758
  - # 5
    frequency:    28.4955688851
  - # 6
    frequency:    30.1971945867

- q-position: [   -0.2222222,    0.4444444,    0.1250000 ]
  weight: 1    
  band:
  - # 1
    frequency:    19.9055096747
  - # 2
    frequency:    24.1348523721
  - # 3
    frequency:    25.9324452358
  - # 4
    frequency:    27.1815333287
  - # 5
    frequency:    29.5856507087
  - # 6
    frequency:    30.4594046524

- q-position: [   -0.1111111,    0.4444444,    0.1250000 ]
  weight: 1    
  band:
  - # 1
    frequency:    17.5229976062
  - # 2
    frequency:    20.0925786996
  - # 3
    frequency:    24.8803540441
  - # 4
    frequency:    28.8207845692
  - # 5
    frequency:    30.1544255014
  - # 6
    frequency:    32.4539981116

- q-position: [    0.0000000,   -0.4444444,    0.1250000 ]
  weight: 1    
  band:
  - # 1
    frequency:    16.5387415151
  - # 2
    frequency:    17.8797697884
  - # 3
    frequency:    24.8968929197
  - # 4
    frequency:    29.4534319579
  - # 5
    frequency:    30.0363115885
  - # 6
    frequency:    33.4292043987

- q-position: [    0.1111111,    0.5555556,    0.1250000 ]
  weight: 1    
  band:
  - # 1
    frequency:    16.4172834510
  - # 2
    frequency:    17.6602481890
  - # 3
    frequency:    24.8191798037
  - # 4
    frequency:    29.5224164181
  - # 5
    frequency:    30.0509793994
  - # 6
    frequency:    33.5138008242

- q-position: [    0.2222222,    0.5555556,    0.1250000 ]
  weight: 1    
  band:
  - # 1
    frequency:    17.2503180684
  - # 2
    frequency:    19.7675098231
  - # 3
    frequency:    24.7223725254
  - # 4
    frequency:    28.9882920253
  - # 5
    frequency:    30.2415466141
  - # 6
    frequency:    32.5791289831

- q-position: [    0.3333333,    0.5555556,    0.1250000 ]
  weight: 1    
  band:
  - # 1
    frequency:    19.0010660435
  - # 2
    frequency:    21.6482698397
  - # 3
    frequency:    25.7895673960
  - # 4
    frequency:    27.8216089407
  - # 5
    frequency:    29.3057164979
  - # 6
    frequency:    32.0113860057

- q-position: [    0.4444444,    0.5555556,    0.1250000 ]
  weight: 1    
  band:
  - # 1
    frequency:    21.0651999254
  - # 2
    frequency:    22.2249695388
  - # 3
    frequency:    26.3076758991
  - # 4
    frequency:    27.1261136166
  - # 5
    frequency:    28.3636563078
  - # 6
    frequency:    31.9022466964

- q-position: [    0.5555556,    0.5555556,    0.1250000 ]
  weight: 1    
  band:
  - # 1
    frequency:    21.9536986690
  - # 2
    frequency:    23.6609830615
  - # 3
    frequency:    25.1063287938
  - # 4
    frequency:    25.4238475800
  - # 5
    frequency:    30.2713832165
  - # 6
    frequency:    31.1570472600

- q-position: [   -0.3333333,   -0.4444444,    0.1250000 ]
  weight: 1    
  band:
  - # 1
    frequency:    21.5809708911
  - # 2
    frequency:    22.6597973939
  - # 3
    frequency:    25.9375317914
  - # 4
    frequency:    26.7427517605
  - # 5
    frequency:    28.8389725159
  - # 6
    frequency:    31.5997074937

- q-position: [   -0.2222222,   -0.4444444,    0.1250000 ]
  weight: 1    
  band:
  - # 1
    frequency:    19.4926498966
  - # 2
    frequency:    22.1848326330
  - # 3
    frequency:    26.2212595450
  - # 4
    frequency:    27.4792037137
  - # 5
    frequency:    29.0262648127
  - # 6
    frequency:    31.7746183797

- q-position: [   -0.1111111,   -0.4444444,    0.1250000 ]
  weight: 1    
  band:
  - # 1
    frequency:    17.5997394775
  - # 2
    frequency:    20.2780091249
  - # 3
    frequency:    24.9592419319
  - # 4
    frequency:    28.7748855689
  - # 5
    frequency:    30.1692844223
  - # 6
    frequency:    32.3497117932

- q-position: [    0.0000000,   -0.3333333,    0.1250000 ]
  weight: 1    
  band:
  - # 1
    frequency:    14.9002822682
  - # 2
    frequency:    16.3983985214
  - # 3
    frequency:    22.6900556251
  - # 4
    frequency:    30.2416175334
  - # 5
    frequency:    30.7454310805
  - # 6
    frequency:    33.7377367028

- q-position: [    0.1111111,   -0.3333333,    0.1250000 ]
  weight: 1    
  band:
  - # 1
    frequency:    15.7849422161
  - # 2
    frequency:    16.7185237775
  - # 3
    frequency:    23.8616416181
  - # 4
    frequency:    29.8534907794
  - # 5
    frequency:    30.3294899283
  - # 6
    frequency:    33.7551481010

- q-position: [    0.2222222,   -0.3333333,    0.1250000 ]
  weight: 1    
  band:
  - # 1
    frequency:    17.4166309533
  - # 2
    frequency:    19.7962986669
  - # 3
    frequency:    24.9435724245
  - # 4
    frequency:    28.8960505748
  - # 5
    frequency:    30.1204433925
  - # 6
    frequency:    32.5883421637

- q-position: [    0.3333333,   -0.3333333,    0.1250000 ]
  weight: 1    
  band:
  - # 1
    frequency:    19.7072007007
  - # 2
    frequency:    23.7087448473
  - # 3
    frequency:    25.9479200562
  - # 4
    frequency:    27.3258685295
  - # 5
    frequency:    29.6561211856
  - # 6
    frequency:    30.6412585756

- q-position: [    0.4444444,    0.6666667,    0.1250000 ]
  weight: 1    
  band:
  - # 1
    frequency:    21.9954108751
  - # 2
    frequency:    24.8505610009
  - # 3
    frequency:    25.7774807829
  - # 4
    frequency:    27.0011047758
  - # 5
    frequency:    28.4955688852
  - # 6
    frequency:    30.1971945867

- q-position: [   -0.4444444,   -0.3333333,    0.1250000 ]
  weight: 1    
  band:
  - # 1
    frequency:    21.5809708911
  - # 2
    frequency:    22.6597973939
  - # 3
    frequency:    25.9375317914
  - # 4
    frequency:    26.7427517605
  - # 5
    frequency:    28.8389725158
  - # 6
    frequency:    31.5997074937

- q-position: [   -0.3333333,   -0.3333333,    0.1250000 ]
  weight: 1    
  band:
  - # 1
    frequency:    19.1363097775
  - # 2
    frequency:    20.0915160355
  - # 3
    frequency:    26.9265279760
  - # 4
    frequency:    27.6479140062
  - # 5
    frequency:    27.9638328779
  - # 6
    frequency:    33.0665089647

- q-position: [   -0.2222222,   -0.3333333,    0.1250000 ]
  weight: 1    
  band:
  - # 1
    frequency:    17.0981587542
  - # 2
    frequency:    18.4215662211
  - # 3
    frequency:    24.3505372672
  - # 4
    frequency:    28.9962735634
  - # 5
    frequency:    29.6433516344
  - # 6
    frequency:    33.4047910845

- q-position: [   -0.1111111,   -0.3333333,    0.1250000 ]
  weight: 1    
  band:
  - # 1
    frequency:    15.4331605661
  - # 2
    frequency:    17.6215339323
  - # 3
    frequency:    22.4310515725
  - # 4
    frequency:    29.9339989018
  - # 5
    frequency:    30.8302189393
  - # 6
    frequency:    33.3161708402

- q-position: [    0.0000000,   -0.2222222,    0.1250000 ]
  weight: 1    
  band:
  - # 1
    frequency:    11.7043210777
  - # 2
    frequency:    13.0099396950
  - # 3
    frequency:    18.2340806940
  - # 4
    frequency:    31.4910323510
  - # 5
    frequency:    31.8081460315
  - # 6
    frequency:    33.9822267101

- q-position: [    0.1111111,   -0.2222222,    0.1250000 ]
  weight: 1    
  band:
  - # 1
    frequency:    13.0806039244
  - # 2
    frequency:    13.6526498494
  - # 3
    frequency:    20.0630479121
  - # 4
    frequency:    31.0363532089
  - # 5
    frequency:    31.3141135070
  - # 6
    frequency:    34.1164362632

- q-position: [    0.2222222,   -0.2222222,    0.1250000 ]
  weight: 1    
  band:
  - # 1
    frequency:    15.2940189446
  - # 2
    frequency:    17.1136792845
  - # 3
    frequency:    22.4007681080
  - # 4
    frequency:    30.0116235079
  - # 5
    frequency:    30.7682032415
  - # 6
    frequency:    33.4949652676

- q-position: [    0.3333333,   -0.2222222,    0.1250000 ]
  weight: 1    
  band:
  - # 1
    frequency:    17.9316772659
  - # 2
    frequency:    21.5374271769
  - # 3
    frequency:    24.3346127648
  - # 4
    frequency:    28.5157262118
  - # 5
    frequency:    30.3795485503
  - # 6
    frequency:    31.8232666471

- q-position: [    0.4444444,   -0.2222222,    0.1250000 ]
  weight: 1    
  band:
  - # 1
    frequency:    19.9055096747
  - # 2
    frequency:    24.1348523724
  - # 3
    frequency:    25.9324452354
  - # 4
    frequency:    27.1815333287
  - # 5
    frequency:    29.5856507089
  - # 6
    frequency:    30.4594046521

- q-position: [   -0.4444444,   -0.2222222,    0.1250000 ]
  weight: 1    
  band:
  - # 1
    frequency:    19.4926498967
  - # 2
    frequency:    22.1848326331
  - # 3
    frequency:    26.2212595448
  - # 4
    frequency:    27.4792037137
  - # 5
    frequency:    29.0262648128
  - # 6
    frequency:    31.7746183796

- q-position: [   -0.3333333,   -0.2222222,    0.1250000 ]
  weight: 1    
  band:
  - # 1
    frequency:    17.0981587543
  - # 2
    frequency:    18.4215662211
  - # 3
    frequency:    24.3505372671
  - # 4
    frequency:    28.9962735635
  - # 5
    frequency:    29.6433516344
  - # 6
    frequency:    33.4047910844

- q-position: [   -0.2222222,   -0.2222222,    0.1250000 ]
  weight: 1    
  band:
  - # 1
    frequency:    14.4747514863
  - # 2
    frequency:    15.0700071102
  - # 3
    frequency:    21.5169804519
  - # 4
    frequency:    30.3814346148
  - # 5
    frequency:    30.6306205210
  - # 6
    frequency:    34.0820189072

- q-position: [   -0.1111111,   -0.2222222,    0.1250000 ]
  weight: 1    
  band:
  - # 1
    frequency:    12.3518787847
  - # 2
    frequency:    13.5325111822
  - # 3
    frequency:    18.7900755137
  - # 4
    frequency:    31.2536659647
  - # 5
    frequency:    31.5849826741
  - # 6
    frequency:    33.9910328735

- q-position: [    0.0000000,   -0.1111111,    0.1250000 ]
  weight: 1    
  band:
  - # 1
    frequency:     8.0537988116
  - # 2
    frequency:     8.7535505839
  - # 3
    frequency:    12.9743548671
  - # 4
    frequency:    32.4988237334
  - # 5
    frequency:    32.5960760662
  - # 6
    frequency:    33.8814798094

- q-position: [    0.1111111,   -0.1111111,    0.1250000 ]
  weight: 1    
  band:
  - # 1
    frequency:     9.4322521519
  - # 2
    frequency:     9.6457524205
  - # 3
    frequency:    14.7737600506
  - # 4
    frequency:    32.2002903530
  - # 5
    frequency:    32.2753373855
  - # 6
    frequency:    34.0384384850

- q-position: [    0.2222222,   -0.1111111,    0.1250000 ]
  weight: 1    
  band:
  - # 1
    frequency:    12.1565902031
  - # 2
    frequency:    13.1121465046
  - # 3
    frequency:    18.5451069160
  - # 4
    frequency:    31.3261853522
  - # 5
    frequency:    31.5878544051
  - # 6
    frequency:    34.0537313209

- q-position: [    0.3333333,   -0.1111111,    0.1250000 ]
  weight: 1    
  band:
  - # 1
    frequency:    15.2580354988
  - # 2
    frequency:    17.1975911151
  - # 3
    frequency:    22.2647373769
  - # 4
    frequency:    30.0197052993
  - # 5
    frequency:    30.8080598663
  - # 6
    frequency:    33.4599041008

- q-position: [    0.4444444,   -0.1111111,    0.1250000 ]
  weight: 1    
  band:
  - # 1
    frequency:    17.5229976063
  - # 2
    frequency:    20.0925786998
  - # 3
    frequency:    24.8803540438
  - # 4
    frequency:    28.8207845693
  - # 5
    frequency:    30.1544255016
  - # 6
    frequency:    32.4539981113

- q-position: [   -0.4444444,   -0.1111111,    0.1250000 ]
  weight: 1    
  band:
  - # 1
    frequency:    17.5997394776
  - # 2
    frequency:    20.2780091251
  - # 3
    frequency:    24.9592419316
  - # 4
    frequency:    28.7748855691
  - # 5
    frequency:    30.1692844225
  - # 6
    frequency:    32.3497117928

- q-position: [   -0.3333333,   -0.1111111,    0.1250000 ]
  weight: 1    
  band:
  - # 1
    frequency:    15.4331605661
  - # 2
    frequency:    17.6215339324
  - # 3
    frequency:    22.4310515722
  - # 4
    frequency:    29.9339989020
  - # 5
    frequency:    30.8302189394
  - # 6
    frequency:    33.3161708399

- q-position: [   -0.2222222,   -0.1111111,    0.1250000 ]
  weight: 1    
  band:
  - # 1
    frequency:    12.3518787848
  - # 2
    frequency:    13.5325111822
  - # 3
    frequency:    18.7900755136
  - # 4
    frequency:    31.2536659649
  - # 5
    frequency:    31.5849826741
  - # 6
    frequency:    33.9910328733

- q-position: [   -0.1111111,   -0.1111111,    0.1250000 ]
  weight: 1    
  band:
  - # 1
    frequency:     9.6073899099
  - # 2
    frequency:     9.7999565814
  - # 3
    frequency:    15.0442497568
  - # 4
    frequency:    32.1590476739
  - # 5
    frequency:    32.2428643465
  - # 6
    frequency:    34.0515066894

- q-position: [    0.0000000,    0.0000000,    0.3750000 ]
  weight: 1    
  band:
  - # 1
    frequency:    14.1630803882
  - # 2
    frequency:    14.1630803885
  - # 3
    frequency:    22.4282523906
  - # 4
    frequency:    30.6360821345
  - # 5
    frequency:    30.6360821352
  - # 6
    frequency:    34.3914198864

- q-position: [    0.1111111,    0.0000000,    0.3750000 ]
  weight: 1    
  band:
  - # 1
    frequency:    14.0402137134
  - # 2
    frequency:    14.6444689567
  - # 3
    frequency:    21.4823039507
  - # 4
    frequency:    30.6574214550
  - # 5
    frequency:    30.9779916753
  - # 6
    frequency:    34.0766660330

- q-position: [    0.2222222,    0.0000000,    0.3750000 ]
  weight: 1    
  band:
  - # 1
    frequency:    15.2184055305
  - # 2
    frequency:    16.0811020180
  - # 3
    frequency:    22.3937259726
  - # 4
    frequency:    30.0323342270
  - # 5
    frequency:    30.4033907186
  - # 6
    frequency:    33.9145587658

- q-position: [    0.3333333,    0.0000000,    0.3750000 ]
  weight: 1    
  band:
  - # 1
    frequency:    17.3232151689
  - # 2
    frequency:    17.4255596687
  - # 3
    frequency:    25.1552845077
  - # 4
    frequency:    28.8148766705
  - # 5
    frequency:    28.8532684634
  - # 6
    frequency:    33.9384956700

- q-position: [    0.4444444,    0.0000000,    0.3750000 ]
  weight: 1    
  band:
  - # 1
    frequency:    19.7043340478
  - # 2
    frequency:    20.0378940021
  - # 3
    frequency:    27.2170547144
  - # 4
    frequency:    27.2932167117
  - # 5
    frequency:    27.7553182983
  - # 6
    frequency:    33.1374577750

- q-position: [    0.5555556,    0.0000000,    0.3750000 ]
  weight: 1    
  band:
  - # 1
    frequency:    21.1331457485
  - # 2
    frequency:    23.7127507276
  - # 3
    frequency:    26.1434939454
  - # 4
    frequency:    26.2156671366
  - # 5
    frequency:    28.9011843954
  - # 6
    frequency:    31.4343226066

- q-position: [   -0.3333333,    0.0000000,    0.3750000 ]
  weight: 1    
  band:
  - # 1
    frequency:    19.9929436376
  - # 2
    frequency:    24.6625101543
  - # 3
    frequency:    26.6090077568
  - # 4
    frequency:    27.0807204239
  - # 5
    frequency:    28.1248217717
  - # 6
    frequency:    30.9921430803

- q-position: [   -0.2222222,    0.0000000,    0.3750000 ]
  weight: 1    
  band:
  - # 1
    frequency:    17.6863809446
  - # 2
    frequency:    21.1924115848
  - # 3
    frequency:    24.8406459287
  - # 4
    frequency:    28.7018201528
  - # 5
    frequency:    30.2521964269
  - # 6
    frequency:    31.9447159777

- q-position: [   -0.1111111,    0.0000000,    0.3750000 ]
  weight: 1    
  band:
  - # 1
    frequency:    15.5250753074
  - # 2
    frequency:    16.7367304816
  - # 3
    frequency:    23.7166318927
  - # 4
    frequency:    29.9662382652
  - # 5
    frequency:    30.3961150602
  - # 6
    frequency:    33.7551659801

- q-position: [    0.0000000,    0.1111111,    0.3750000 ]
  weight: 1    
  band:
  - # 1