       N       E                     dE             d eps       ncg     rms          rms(c)
DAV:   1     0.456971864194E+03    0.45697E+03   -0.38889E+04  3312   0.179E+03
DAV:   2    -0.353440124643E+02   -0.49232E+03   -0.47614E+03  4176   0.305E+02
DAV:   3    -0.816739904321E+02   -0.46330E+02   -0.45241E+02  4034   0.891E+01
DAV:   4    -0.839159282217E+02   -0.22419E+01   -0.22150E+01  5024   0.191E+01
DAV:   5    -0.839746057296E+02   -0.58678E-01   -0.58580E-01  4704   0.336E+00    0.104E+01
DAV:   6    -0.812609050394E+02    0.27137E+01   -0.90268E+00  4856   0.118E+01    0.558E+00
