# Thermal properties / unit cell (natom)

unit:
  temperature:   K
  free_energy:   kJ/mol
  entropy:       J/K/mol
  heat_capacity: J/K/mol

natom:     2
num_modes: 1944
num_integrated_modes: 1944

zero_point_energy:      29.8913799
high_T_entropy:        115.7477439

thermal_properties:
- temperature:         0.0000000
  free_energy:        29.8913799
  entropy:             0.0000000
  heat_capacity:       0.0000000
  energy:             29.8913799

- temperature:        10.0000000
  free_energy:        29.8913799
  entropy:             0.0000000
  heat_capacity:       0.0000000
  energy:             29.8913799

- temperature:        20.0000000
  free_energy:        29.8913798
  entropy:             0.0000143
  heat_capacity:       0.0001652
  energy:             29.8913801

- temperature:        30.0000000
  free_energy:        29.8913777
  entropy:             0.0006786
  heat_capacity:       0.0052568
  energy:             29.8913981

- temperature:        40.0000000
  free_energy:        29.8913549
  entropy:             0.0047804
  heat_capacity:       0.0283828
  energy:             29.8915461

- temperature:        50.0000000
  free_energy:        29.8912582
  entropy:             0.0160157
  heat_capacity:       0.0793415
  energy:             29.8920590

- temperature:        60.0000000
  free_energy:        29.8910007
  entropy:             0.0373865
  heat_capacity:       0.1636165
  energy:             29.8932439

- temperature:        70.0000000
  free_energy:        29.8904686
  entropy:             0.0713208
  heat_capacity:       0.2868649
  energy:             29.8954611

- temperature:        80.0000000
  free_energy:        29.8895248
  entropy:             0.1201228
  heat_capacity:       0.4561354
  energy:             29.8991346

- temperature:        90.0000000
  free_energy:        29.8880088
  entropy:             0.1861457
  heat_capacity:       0.6787953
  energy:             29.9047619

- temperature:       100.0000000
  free_energy:        29.8857366
  entropy:             0.2717308
  heat_capacity:       0.9611568
  energy:             29.9129097

- temperature:       110.0000000
  free_energy:        29.8825016
  entropy:             0.3790693
  heat_capacity:       1.3077166
  energy:             29.9241992

- temperature:       120.0000000
  free_energy:        29.8780763
  entropy:             0.5100867
  heat_capacity:       1.7210076
  energy:             29.9392867

- temperature:       130.0000000
  free_energy:        29.8722156
  entropy:             0.6663757
  heat_capacity:       2.2017620
  energy:             29.9588444

- temperature:       140.0000000
  free_energy:        29.8646604
  entropy:             0.8491700
  heat_capacity:       2.7491470
  energy:             29.9835442

- temperature:       150.0000000
  free_energy:        29.8551409
  entropy:             1.0593429
  heat_capacity:       3.3609778
  energy:             30.0140423

- temperature:       160.0000000
  free_energy:        29.8433805
  entropy:             1.2974189
  heat_capacity:       4.0339013
  energy:             30.0509675

- temperature:       170.0000000
  free_energy:        29.8290988
  entropy:             1.5635928
  heat_capacity:       4.7635716
  energy:             30.0949096

- temperature:       180.0000000
  free_energy:        29.8120153
  entropy:             1.8577537
  heat_capacity:       5.5448348
  energy:             30.1464110

- temperature:       190.0000000
  free_energy:        29.7918517
  entropy:             2.1795125
  heat_capacity:       6.3719285
  energy:             30.2059591

- temperature:       200.0000000
  free_energy:        29.7683351
  entropy:             2.5282331
  heat_capacity:       7.2386876
  energy:             30.2739818

- temperature:       210.0000000
  free_energy:        29.7412000
  entropy:             2.9030660
  heat_capacity:       8.1387453
  energy:             30.3508438

- temperature:       220.0000000
  free_energy:        29.7101902
  entropy:             3.3029827
  heat_capacity:       9.0657186
  energy:             30.4368464

- temperature:       230.0000000
  free_energy:        29.6750606
  entropy:             3.7268108
  heat_capacity:      10.0133680
  energy:             30.5322271

- temperature:       240.0000000
  free_energy:        29.6355785
  entropy:             4.1732675
  heat_capacity:      10.9757281
  energy:             30.6371627

- temperature:       250.0000000
  free_energy:        29.5915244
  entropy:             4.6409905
  heat_capacity:      11.9472066
  energy:             30.7517720

- temperature:       260.0000000
  free_energy:        29.5426925
  entropy:             5.1285673
  heat_capacity:      12.9226531
  energy:             30.8761200

- temperature:       270.0000000
  free_energy:        29.4888917
  entropy:             5.6345594
  heat_capacity:      13.8974015
  energy:             31.0102227

- temperature:       280.0000000
  free_energy:        29.4299448
  entropy:             6.1575251
  heat_capacity:      14.8672893
  energy:             31.1540518

- temperature:       290.0000000
  free_energy:        29.3656893
  entropy:             6.6960369
  heat_capacity:      15.8286586
  energy:             31.3075400

- temperature:       300.0000000
  free_energy:        29.2959769
  entropy:             7.2486969
  heat_capacity:      16.7783426
  energy:             31.4705860

- temperature:       310.0000000
  free_energy:        29.2206728
  entropy:             7.8141488
  heat_capacity:      17.7136425
  energy:             31.6430589

- temperature:       320.0000000
  free_energy:        29.1396556
  entropy:             8.3910864
  heat_capacity:      18.6322961
  energy:             31.8248033

- temperature:       330.0000000
  free_energy:        29.0528169
  entropy:             8.9782611
  heat_capacity:      19.5324434
  energy:             32.0156431

- temperature:       340.0000000
  free_energy:        28.9600602
  entropy:             9.5744859
  heat_capacity:      20.4125893
  energy:             32.2153854

- temperature:       350.0000000
  free_energy:        28.8613008
  entropy:            10.1786385
  heat_capacity:      21.2715660
  energy:             32.4238243

- temperature:       360.0000000
  free_energy:        28.7564646
  entropy:            10.7896630
  heat_capacity:      22.1084964
  energy:             32.6407432

- temperature:       370.0000000
  free_energy:        28.6454879
  entropy:            11.4065694
  heat_capacity:      22.9227582
  energy:             32.8659186

- temperature:       380.0000000
  free_energy:        28.5283167
  entropy:            12.0284338
  heat_capacity:      23.7139518
  energy:             33.0991215

- temperature:       390.0000000
  free_energy:        28.4049056
  entropy:            12.6543960
  heat_capacity:      24.4818692
  energy:             33.3401200

- temperature:       400.0000000
  free_energy:        28.2752178
  entropy:            13.2836584
  heat_capacity:      25.2264660
  energy:             33.5886811

- temperature:       410.0000000
  free_energy:        28.1392239
  entropy:            13.9154830
  heat_capacity:      25.9478368
  energy:             33.8445719

- temperature:       420.0000000
  free_energy:        27.9969018
  entropy:            14.5491888
  heat_capacity:      26.6461926
  energy:             34.1075611

- temperature:       430.0000000
  free_energy:        27.8482359
  entropy:            15.1841492
  heat_capacity:      27.3218406
  energy:             34.3774201

- temperature:       440.0000000
  free_energy:        27.6932166
  entropy:            15.8197885
  heat_capacity:      27.9751668
  energy:             34.6539235

- temperature:       450.0000000
  free_energy:        27.5318397
  entropy:            16.4555796
  heat_capacity:      28.6066209
  energy:             34.9368505

- temperature:       460.0000000
  free_energy:        27.3641061
  entropy:            17.0910405
  heat_capacity:      29.2167027
  energy:             35.2259847

- temperature:       470.0000000
  free_energy:        27.1900214
  entropy:            17.7257312
  heat_capacity:      29.8059506
  energy:             35.5211151

- temperature:       480.0000000
  free_energy:        27.0095954
  entropy:            18.3592516
  heat_capacity:      30.3749319
  energy:             35.8220362

- temperature:       490.0000000
  free_energy:        26.8228415
  entropy:            18.9912380
  heat_capacity:      30.9242342
  energy:             36.1285481

- temperature:       500.0000000
  free_energy:        26.6297768
  entropy:            19.6213608
  heat_capacity:      31.4544582
  energy:             36.4404573

- temperature:       510.0000000
  free_energy:        26.4304215
  entropy:            20.2493220
  heat_capacity:      31.9662119
  energy:             36.7575757

- temperature:       520.0000000
  free_energy:        26.2247985
  entropy:            20.8748528
  heat_capacity:      32.4601050
  energy:             37.0797220

- temperature:       530.0000000
  free_energy:        26.0129334
  entropy:            21.4977113
  heat_capacity:      32.9367453
  energy:             37.4067203

- temperature:       540.0000000
  free_energy:        25.7948539
  entropy:            22.1176805
  heat_capacity:      33.3967350
  energy:             37.7384014

- temperature:       550.0000000
  free_energy:        25.5705900
  entropy:            22.7345663
  heat_capacity:      33.8406676
  energy:             38.0746015

- temperature:       560.0000000
  free_energy:        25.3401734
  entropy:            23.3481959
  heat_capacity:      34.2691259
  energy:             38.4151631

- temperature:       570.0000000
  free_energy:        25.1036375
  entropy:            23.9584156
  heat_capacity:      34.6826802
  energy:             38.7599344

- temperature:       580.0000000
  free_energy:        24.8610169
  entropy:            24.5650896
  heat_capacity:      35.0818869
  energy:             39.1087689

- temperature:       590.0000000
  free_energy:        24.6123479
  entropy:            25.1680986
  heat_capacity:      35.4672871
  energy:             39.4615261

- temperature:       600.0000000
  free_energy:        24.3576675
  entropy:            25.7673381
  heat_capacity:      35.8394062
  energy:             39.8180704

- temperature:       610.0000000
  free_energy:        24.0970140
  entropy:            26.3627174
  heat_capacity:      36.1987534
  energy:             40.1782716

- temperature:       620.0000000
  free_energy:        23.8304263
  entropy:            26.9541584
  heat_capacity:      36.5458210
  energy:             40.5420045

- temperature:       630.0000000
  free_energy:        23.5579442
  entropy:            27.5415944
  heat_capacity:      36.8810846
  energy:             40.9091487

- temperature:       640.0000000
  free_energy:        23.2796080
  entropy:            28.1249694
  heat_capacity:      37.2050029
  energy:             41.2795884

- temperature:       650.0000000
  free_energy:        22.9954585
  entropy:            28.7042368
  heat_capacity:      37.5180177
  energy:             41.6532124

- temperature:       660.0000000
  free_energy:        22.7055371
  entropy:            29.2793588
  heat_capacity:      37.8205546
  energy:             42.0299138

- temperature:       670.0000000
  free_energy:        22.4098852
  entropy:            29.8503055
  heat_capacity:      38.1130226
  energy:             42.4095899

- temperature:       680.0000000
  free_energy:        22.1085449
  entropy:            30.4170546
  heat_capacity:      38.3958150
  energy:             42.7921420

- temperature:       690.0000000
  free_energy:        21.8015582
  entropy:            30.9795899
  heat_capacity:      38.6693092
  energy:             43.1774753

- temperature:       700.0000000
  free_energy:        21.4889672
  entropy:            31.5379017
  heat_capacity:      38.9338678
  energy:             43.5654984

- temperature:       710.0000000
  free_energy:        21.1708143
  entropy:            32.0919855
  heat_capacity:      39.1898386
  energy:             43.9561240

- temperature:       720.0000000
  free_energy:        20.8471416
  entropy:            32.6418418
  heat_capacity:      39.4375551
  energy:             44.3492677

- temperature:       730.0000000
  free_energy:        20.5179915
  entropy:            33.1874755
  heat_capacity:      39.6773371
  energy:             44.7448486

- temperature:       740.0000000
  free_energy:        20.1834061
  entropy:            33.7288958
  heat_capacity:      39.9094910
  energy:             45.1427890

- temperature:       750.0000000
  free_energy:        19.8434276
  entropy:            34.2661152
  heat_capacity:      40.1343107
  energy:             45.5430140

- temperature:       760.0000000
  free_energy:        19.4980978
  entropy:            34.7991499
  heat_capacity:      40.3520774
  energy:             45.9454517

- temperature:       770.0000000
  free_energy:        19.1474585
  entropy:            35.3280188
  heat_capacity:      40.5630607
  energy:             46.3500330

- temperature:       780.0000000
  free_energy:        18.7915512
  entropy:            35.8527435
  heat_capacity:      40.7675190
  energy:             46.7566912

- temperature:       790.0000000
  free_energy:        18.4304173
  entropy:            36.3733482
  heat_capacity:      40.9656993
  energy:             47.1653624

- temperature:       800.0000000
  free_energy:        18.0640979
  entropy:            36.8898589
  heat_capacity:      41.1578387
  energy:             47.5759850

- temperature:       810.0000000
  free_energy:        17.6926337
  entropy:            37.4023038
  heat_capacity:      41.3441639
  energy:             47.9884998

- temperature:       820.0000000
  free_energy:        17.3160653
  entropy:            37.9107127
  heat_capacity:      41.5248921
  energy:             48.4028497

- temperature:       830.0000000
  free_energy:        16.9344328
  entropy:            38.4151167
  heat_capacity:      41.7002315
  energy:             48.8189797

- temperature:       840.0000000
  free_energy:        16.5477762
  entropy:            38.9155486
  heat_capacity:      41.8703814
  energy:             49.2368370

- temperature:       850.0000000
  free_energy:        16.1561350
  entropy:            39.4120420
  heat_capacity:      42.0355326
  energy:             49.6563706

- temperature:       860.0000000
  free_energy:        15.7595484
  entropy:            39.9046317
  heat_capacity:      42.1958681
  energy:             50.0775316

- temperature:       870.0000000
  free_energy:        15.3580552
  entropy:            40.3933532
  heat_capacity:      42.3515629
  energy:             50.5002725

- temperature:       880.0000000
  free_energy:        14.9516941
  entropy:            40.8782430
  heat_capacity:      42.5027850
  energy:             50.9245479

- temperature:       890.0000000
  free_energy:        14.5405030
  entropy:            41.3593380
  heat_capacity:      42.6496953
  energy:             51.3503139

- temperature:       900.0000000
  free_energy:        14.1245198
  entropy:            41.8366757
  heat_capacity:      42.7924479
  energy:             51.7775280

- temperature:       910.0000000
  free_energy:        13.7037819
  entropy:            42.3102940
  heat_capacity:      42.9311906
  energy:             52.2061495

- temperature:       920.0000000
  free_energy:        13.2783262
  entropy:            42.7802312
  heat_capacity:      43.0660651
  energy:             52.6361389

- temperature:       930.0000000
  free_energy:        12.8481894
  entropy:            43.2465257
  heat_capacity:      43.1972072
  energy:             53.0674583

- temperature:       940.0000000
  free_energy:        12.4134077
  entropy:            43.7092163
  heat_capacity:      43.3247472
  energy:             53.5000710

- temperature:       950.0000000
  free_energy:        11.9740170
  entropy:            44.1683418
  heat_capacity:      43.4488100
  energy:             53.9339417

- temperature:       960.0000000
  free_energy:        11.5300526
  entropy:            44.6239411
  heat_capacity:      43.5695156
  energy:             54.3690361

- temperature:       970.0000000
  free_energy:        11.0815498
  entropy:            45.0760530
  heat_capacity:      43.6869790
  energy:             54.8053212

- temperature:       980.0000000
  free_energy:        10.6285431
  entropy:            45.5247164
  heat_capacity:      43.8013105
  energy:             55.2427652

- temperature:       990.0000000
  free_energy:        10.1710668
  entropy:            45.9699702
  heat_capacity:      43.9126161
  energy:             55.6813373

- temperature:      1000.0000000
  free_energy:         9.7091549
  entropy:            46.4118529
  heat_capacity:      44.0209975
  energy:             56.1210078
