diamond                                 
           1
    11.861969    0.000000    0.000000
     0.000000    8.297066    0.000000
     0.000000    0.000000    8.291899
   H    C 
  64  16
Direct configuration=     1
   0.07560405  0.81709273  0.16748153
   0.92439598  0.18290727  0.83251850
   0.92439598  0.68290727  0.66748150
   0.07560405  0.31709273  0.33251847
   0.92439598  0.31709273  0.33251847
   0.07560405  0.68290727  0.66748150
   0.07560405  0.18290727  0.83251850
   0.92439598  0.81709273  0.16748153
   0.57560402  0.31709273  0.16748153
   0.42439595  0.68290727  0.83251850
   0.42439595  0.18290727  0.66748150
   0.57560402  0.81709273  0.33251847
   0.42439595  0.81709273  0.33251847
   0.57560402  0.18290727  0.66748150
   0.57560402  0.68290727  0.83251850
   0.42439595  0.31709273  0.16748153
   0.81469109  0.58435233  0.93300258
   0.18530891  0.41564767  0.06699742
   0.18530891  0.91564767  0.43300258
   0.81469109  0.08435233  0.56699742
   0.18530891  0.08435233  0.56699742
   0.81469109  0.91564767  0.43300258
   0.81469109  0.41564767  0.06699742
   0.18530891  0.58435233  0.93300258
   0.31469109  0.08435233  0.93300258
   0.68530891  0.91564767  0.06699742
   0.68530891  0.41564767  0.43300258
   0.31469109  0.58435233  0.56699742
   0.68530891  0.58435233  0.56699742
   0.31469109  0.41564767  0.43300258
   0.31469109  0.91564767  0.06699742
   0.68530891  0.08435233  0.93300258
   0.70797835  0.56730843  0.08427995
   0.29202165  0.43269157  0.91572005
   0.29202165  0.93269157  0.58427995
   0.70797835  0.06730843  0.41572005
   0.29202165  0.06730843  0.41572005
   0.70797835  0.93269157  0.58427995
   0.70797835  0.43269157  0.91572005
   0.29202165  0.56730843  0.08427995
   0.20797835  0.06730843  0.08427995
   0.79202165  0.93269157  0.91572005
   0.79202165  0.43269157  0.58427995
   0.20797835  0.56730843  0.41572005
   0.79202165  0.56730843  0.41572005
   0.20797835  0.43269157  0.58427995
   0.20797835  0.93269157  0.91572005
   0.79202165  0.06730843  0.08427995
   0.00000000  0.63111369  0.14949836
   0.00000000  0.36888631  0.85050161
   0.00000000  0.86888631  0.64949839
   0.00000000  0.13111369  0.35050164
   0.50000000  0.13111369  0.14949836
   0.50000000  0.86888631  0.85050161
   0.50000000  0.36888631  0.64949839
   0.50000000  0.63111369  0.35050164
   0.00000000  0.27239992  0.51332621
   0.00000000  0.72760008  0.48667379
   0.00000000  0.22760008  0.01332621
   0.00000000  0.77239992  0.98667379
   0.50000000  0.77239992  0.51332621
   0.50000000  0.22760008  0.48667379
   0.50000000  0.72760008  0.01332621
   0.50000000  0.27239992  0.98667379
   0.00000000  0.25935253  0.38173496
   0.00000000  0.74064747  0.61826503
   0.00000000  0.24064747  0.88173497
   0.00000000  0.75935253  0.11826503
   0.50000000  0.75935253  0.38173496
   0.50000000  0.24064747  0.61826503
   0.50000000  0.74064747  0.88173497
   0.50000000  0.25935253  0.11826503
   0.76128312  0.50000000  0.00000000
   0.23871688  0.50000000  0.00000000
   0.23871688  0.00000000  0.50000000
   0.76128312  0.00000000  0.50000000
   0.26128312  0.00000000  0.00000000
   0.73871688  0.00000000  0.00000000
   0.73871688  0.50000000  0.50000000
   0.26128312  0.50000000  0.50000000
Direct configuration=     2
   0.07558320  0.81708515  0.16754241
   0.92441682  0.18291485  0.83245761
   0.92441682  0.68291485  0.66754239
   0.07558320  0.31708515  0.33245759
   0.92441682  0.31708515  0.33245759
   0.07558320  0.68291485  0.66754239
   0.07558320  0.18291485  0.83245761
   0.92441682  0.81708515  0.16754241
   0.57558318  0.31708515  0.16754241
   0.42441679  0.68291485  0.83245761
   0.42441679  0.18291485  0.66754239
   0.57558318  0.81708515  0.33245759
   0.42441679  0.81708515  0.33245759
   0.57558318  0.18291485  0.66754239
   0.57558318  0.68291485  0.83245761
   0.42441679  0.31708515  0.16754241
   0.81468301  0.58435122  0.93300049
   0.18531699  0.41564878  0.06699951
   0.18531699  0.91564878  0.43300049
   0.81468301  0.08435122  0.56699951
   0.18531699  0.08435122  0.56699951
   0.81468301  0.91564878  0.43300049
   0.81468301  0.41564878  0.06699951
   0.18531699  0.58435122  0.93300049
   0.31468301  0.08435122  0.93300049
   0.68531699  0.91564878  0.06699951
   0.68531699  0.41564878  0.43300049
   0.31468301  0.58435122  0.56699951
   0.68531699  0.58435122  0.56699951
   0.31468301  0.41564878  0.43300049
   0.31468301  0.91564878  0.06699951
   0.68531699  0.08435122  0.93300049
   0.70797226  0.56732049  0.08427657
   0.29202774  0.43267951  0.91572343
   0.29202774  0.93267951  0.58427657
   0.70797226  0.06732049  0.41572343
   0.29202774  0.06732049  0.41572343
   0.70797226  0.93267951  0.58427657
   0.70797226  0.43267951  0.91572343
   0.29202774  0.56732049  0.08427657
   0.20797226  0.06732049  0.08427657
   0.79202774  0.93267951  0.91572343
   0.79202774  0.43267951  0.58427657
   0.20797226  0.56732049  0.41572343
   0.79202774  0.56732049  0.41572343
   0.20797226  0.43267951  0.58427657
   0.20797226  0.93267951  0.91572343
   0.79202774  0.06732049  0.08427657
  -0.00000000  0.63102181  0.14956842
  -0.00000000  0.36897819  0.85043155
  -0.00000000  0.86897819  0.64956845
  -0.00000000  0.13102181  0.35043158
   0.50000000  0.13102181  0.14956842
   0.50000000  0.86897819  0.85043155
   0.50000000  0.36897819  0.64956845
   0.50000000  0.63102181  0.35043158
  -0.00000000  0.27239535  0.51319056
  -0.00000000  0.72760465  0.48680944
  -0.00000000  0.22760465  0.01319056
  -0.00000000  0.77239535  0.98680944
   0.50000000  0.77239535  0.51319056
   0.50000000  0.22760465  0.48680944
   0.50000000  0.72760465  0.01319056
   0.50000000  0.27239535  0.98680944
  -0.00000000  0.25946278  0.38172749
  -0.00000000  0.74053722  0.61827250
  -0.00000000  0.24053722  0.88172750
  -0.00000000  0.75946278  0.11827250
   0.50000000  0.75946278  0.38172749
   0.50000000  0.24053722  0.61827250
   0.50000000  0.74053722  0.88172750
   0.50000000  0.25946278  0.11827250
   0.76127969  0.50000000 -0.00000000
   0.23872031  0.50000000 -0.00000000
   0.23872031 -0.00000000  0.50000000
   0.76127969 -0.00000000  0.50000000
   0.26127969 -0.00000000 -0.00000000
   0.73872031 -0.00000000 -0.00000000
   0.73872031  0.50000000  0.50000000
   0.26127969  0.50000000  0.50000000
Direct configuration=     3
   0.07559386  0.81708903  0.16751128
   0.92440616  0.18291097  0.83248875
   0.92440616  0.68291097  0.66751125
   0.07559386  0.31708903  0.33248872
   0.92440616  0.31708903  0.33248872
   0.07559386  0.68291097  0.66751125
   0.07559386  0.18291097  0.83248875
   0.92440616  0.81708903  0.16751128
   0.57559384  0.31708903  0.16751128
   0.42440613  0.68291097  0.83248875
   0.42440613  0.18291097  0.66751125
   0.57559384  0.81708903  0.33248872
   0.42440613  0.81708903  0.33248872
   0.57559384  0.18291097  0.66751125
   0.57559384  0.68291097  0.83248875
   0.42440613  0.31708903  0.16751128
   0.81468714  0.58435179  0.93300156
   0.18531286  0.41564821  0.06699844
   0.18531286  0.91564821  0.43300156
   0.81468714  0.08435179  0.56699844
   0.18531286  0.08435179  0.56699844
   0.81468714  0.91564821  0.43300156
   0.81468714  0.41564821  0.06699844
   0.18531286  0.58435179  0.93300156
   0.31468714  0.08435179  0.93300156
   0.68531286  0.91564821  0.06699844
   0.68531286  0.41564821  0.43300156
   0.31468714  0.58435179  0.56699844
   0.68531286  0.58435179  0.56699844
   0.31468714  0.41564821  0.43300156
   0.31468714  0.91564821  0.06699844
   0.68531286  0.08435179  0.93300156
   0.70797537  0.56731432  0.08427830
   0.29202463  0.43268568  0.91572170
   0.29202463  0.93268568  0.58427830
   0.70797537  0.06731432  0.41572170
   0.29202463  0.06731432  0.41572170
   0.70797537  0.93268568  0.58427830
   0.70797537  0.43268568  0.91572170
   0.29202463  0.56731432  0.08427830
   0.20797537  0.06731432  0.08427830
   0.79202463  0.93268568  0.91572170
   0.79202463  0.43268568  0.58427830
   0.20797537  0.56731432  0.41572170
   0.79202463  0.56731432  0.41572170
   0.20797537  0.43268568  0.58427830
   0.20797537  0.93268568  0.91572170
   0.79202463  0.06731432  0.08427830
  -0.00000000  0.63106879  0.14953260
  -0.00000000  0.36893121  0.85046737
  -0.00000000  0.86893121  0.64953263
  -0.00000000  0.13106879  0.35046740
   0.50000000  0.13106879  0.14953260
   0.50000000  0.86893121  0.85046737
   0.50000000  0.36893121  0.64953263
   0.50000000  0.63106879  0.35046740
  -0.00000000  0.27239769  0.51325992
  -0.00000000  0.72760231  0.48674008
  -0.00000000  0.22760231  0.01325992
  -0.00000000  0.77239769  0.98674008
   0.50000000  0.77239769  0.51325992
   0.50000000  0.22760231  0.48674008
   0.50000000  0.72760231  0.01325992
   0.50000000  0.27239769  0.98674008
  -0.00000000  0.25940641  0.38173131
  -0.00000000  0.74059359  0.61826868
  -0.00000000  0.24059359  0.88173132
  -0.00000000  0.75940641  0.11826868
   0.50000000  0.75940641  0.38173131
   0.50000000  0.24059359  0.61826868
   0.50000000  0.74059359  0.88173132
   0.50000000  0.25940641  0.11826868
   0.76128145  0.50000000 -0.00000000
   0.23871855  0.50000000 -0.00000000
   0.23871855 -0.00000000  0.50000000
   0.76128145 -0.00000000  0.50000000
   0.26128145 -0.00000000 -0.00000000
   0.73871855 -0.00000000 -0.00000000
   0.73871855  0.50000000  0.50000000
   0.26128145  0.50000000  0.50000000
Direct configuration=     4
   0.07558522  0.81709570  0.16758608
   0.92441480  0.18290430  0.83241395
   0.92441480  0.68290430  0.66758605
   0.07558522  0.31709570  0.33241392
   0.92441480  0.31709570  0.33241392
   0.07558522  0.68290430  0.66758605
   0.07558522  0.18290430  0.83241395
   0.92441480  0.81709570  0.16758608
   0.57558520  0.31709570  0.16758608
   0.42441478  0.68290430  0.83241395
   0.42441478  0.18290430  0.66758605
   0.57558520  0.81709570  0.33241392
   0.42441478  0.81709570  0.33241392
   0.57558520  0.18290430  0.66758605
   0.57558520  0.68290430  0.83241395
   0.42441478  0.31709570  0.16758608
   0.81467927  0.58435132  0.93299778
   0.18532073  0.41564868  0.06700222
   0.18532073  0.91564868  0.43299778
   0.81467927  0.08435132  0.56700222
   0.18532073  0.08435132  0.56700222
   0.81467927  0.91564868  0.43299778
   0.81467927  0.41564868  0.06700222
   0.18532073  0.58435132  0.93299778
   0.31467927  0.08435132  0.93299778
   0.68532073  0.91564868  0.06700222
   0.68532073  0.41564868  0.43299778
   0.31467927  0.58435132  0.56700222
   0.68532073  0.58435132  0.56700222
   0.31467927  0.41564868  0.43299778
   0.31467927  0.91564868  0.06700222
   0.68532073  0.08435132  0.93299778
   0.70796927  0.56732609  0.08427339
   0.29203073  0.43267391  0.91572661
   0.29203073  0.93267391  0.58427339
   0.70796927  0.06732609  0.41572661
   0.29203073  0.06732609  0.41572661
   0.70796927  0.93267391  0.58427339
   0.70796927  0.43267391  0.91572661
   0.29203073  0.56732609  0.08427339
   0.20796927  0.06732609  0.08427339
   0.79203073  0.93267391  0.91572661
   0.79203073  0.43267391  0.58427339
   0.20796927  0.56732609  0.41572661
   0.79203073  0.56732609  0.41572661
   0.20796927  0.43267391  0.58427339
   0.20796927  0.93267391  0.91572661
   0.79203073  0.06732609  0.08427339
  -0.00000000  0.63105826  0.14958866
  -0.00000000  0.36894174  0.85041131
  -0.00000000  0.86894174  0.64958869
  -0.00000000  0.13105826  0.35041134
   0.50000000  0.13105826  0.14958866
   0.50000000  0.86894174  0.85041131
   0.50000000  0.36894174  0.64958869
   0.50000000  0.63105826  0.35041134
  -0.00000000  0.27240442  0.51317065
  -0.00000000  0.72759558  0.48682935
  -0.00000000  0.22759558  0.01317065
  -0.00000000  0.77240442  0.98682935
   0.50000000  0.77240442  0.51317065
   0.50000000  0.22759558  0.48682935
   0.50000000  0.72759558  0.01317065
   0.50000000  0.27240442  0.98682935
  -0.00000000  0.25939624  0.38165049
  -0.00000000  0.74060376  0.61834949
  -0.00000000  0.24060376  0.88165051
  -0.00000000  0.75939624  0.11834949
   0.50000000  0.75939624  0.38165049
   0.50000000  0.24060376  0.61834949
   0.50000000  0.74060376  0.88165051
   0.50000000  0.25939624  0.11834949
   0.76127368  0.50000000 -0.00000000
   0.23872632  0.50000000 -0.00000000
   0.23872632 -0.00000000  0.50000000
   0.76127368 -0.00000000  0.50000000
   0.26127368 -0.00000000 -0.00000000
   0.73872632 -0.00000000 -0.00000000
   0.73872632  0.50000000  0.50000000
   0.26127368  0.50000000  0.50000000
Direct configuration=     5
   0.07555929  0.81711570  0.16781046
   0.92444073  0.18288430  0.83218957
   0.92444073  0.68288430  0.66781043
   0.07555929  0.31711570  0.33218954
   0.92444073  0.31711570  0.33218954
   0.07555929  0.68288430  0.66781043
   0.07555929  0.18288430  0.83218957
   0.92444073  0.81711570  0.16781046
   0.57555927  0.31711570  0.16781046
   0.42444071  0.68288430  0.83218957
   0.42444071  0.18288430  0.66781043
   0.57555927  0.81711570  0.33218954
   0.42444071  0.81711570  0.33218954
   0.57555927  0.18288430  0.66781043
   0.57555927  0.68288430  0.83218957
   0.42444071  0.31711570  0.16781046
   0.81465566  0.58434990  0.93298643
   0.18534434  0.41565010  0.06701357
   0.18534434  0.91565010  0.43298643
   0.81465566  0.08434990  0.56701357
   0.18534434  0.08434990  0.56701357
   0.81465566  0.91565010  0.43298643
   0.81465566  0.41565010  0.06701357
   0.18534434  0.58434990  0.93298643
   0.31465566  0.08434990  0.93298643
   0.68534434  0.91565010  0.06701357
   0.68534434  0.41565010  0.43298643
   0.31465566  0.58434990  0.56701357
   0.68534434  0.58434990  0.56701357
   0.31465566  0.41565010  0.43298643
   0.31465566  0.91565010  0.06701357
   0.68534434  0.08434990  0.93298643
   0.70795096  0.56736140  0.08425866
   0.29204904  0.43263860  0.91574134
   0.29204904  0.93263860  0.58425866
   0.70795096  0.06736140  0.41574134
   0.29204904  0.06736140  0.41574134
   0.70795096  0.93263860  0.58425866
   0.70795096  0.43263860  0.91574134
   0.29204904  0.56736140  0.08425866
   0.20795096  0.06736140  0.08425866
   0.79204904  0.93263860  0.91574134
   0.79204904  0.43263860  0.58425866
   0.20795096  0.56736140  0.41574134
   0.79204904  0.56736140  0.41574134
   0.20795096  0.43263860  0.58425866
   0.20795096  0.93263860  0.91574134
   0.79204904  0.06736140  0.08425866
  -0.00000000  0.63102668  0.14975685
  -0.00000000  0.36897332  0.85024312
  -0.00000000  0.86897332  0.64975688
  -0.00000000  0.13102668  0.35024315
   0.50000000  0.13102668  0.14975685
   0.50000000  0.86897332  0.85024312
   0.50000000  0.36897332  0.64975688
   0.50000000  0.63102668  0.35024315
  -0.00000000  0.27242462  0.51290285
  -0.00000000  0.72757538  0.48709715
  -0.00000000  0.22757538  0.01290285
  -0.00000000  0.77242462  0.98709715
   0.50000000  0.77242462  0.51290285
   0.50000000  0.22757538  0.48709715
   0.50000000  0.72757538  0.01290285
   0.50000000  0.27242462  0.98709715
  -0.00000000  0.25936575  0.38140805
  -0.00000000  0.74063425  0.61859194
  -0.00000000  0.24063425  0.88140806
  -0.00000000  0.75936575  0.11859194
   0.50000000  0.75936575  0.38140805
   0.50000000  0.24063425  0.61859194
   0.50000000  0.74063425  0.88140806
   0.50000000  0.25936575  0.11859194
   0.76125039  0.50000000 -0.00000000
   0.23874961  0.50000000 -0.00000000
   0.23874961 -0.00000000  0.50000000
   0.76125039 -0.00000000  0.50000000
   0.26125039 -0.00000000 -0.00000000
   0.73874961 -0.00000000 -0.00000000
   0.73874961  0.50000000  0.50000000
   0.26125039  0.50000000  0.50000000
Direct configuration=     6
   0.07550743  0.81715571  0.16825923
   0.92449259  0.18284429  0.83174080
   0.92449259  0.68284429  0.66825920
   0.07550743  0.31715571  0.33174077
   0.92449259  0.31715571  0.33174077
   0.07550743  0.68284429  0.66825920
   0.07550743  0.18284429  0.83174080
   0.92449259  0.81715571  0.16825923
   0.57550741  0.31715571  0.16825923
   0.42449256  0.68284429  0.83174080
   0.42449256  0.18284429  0.66825920
   0.57550741  0.81715571  0.33174077
   0.42449256  0.81715571  0.33174077
   0.57550741  0.18284429  0.66825920
   0.57550741  0.68284429  0.83174080
   0.42449256  0.31715571  0.16825923
   0.81460844  0.58434707  0.93296374
   0.18539156  0.41565293  0.06703626
   0.18539156  0.91565293  0.43296374
   0.81460844  0.08434707  0.56703626
   0.18539156  0.08434707  0.56703626
   0.81460844  0.91565293  0.43296374
   0.81460844  0.41565293  0.06703626
   0.18539156  0.58434707  0.93296374
   0.31460844  0.08434707  0.93296374
   0.68539156  0.91565293  0.06703626
   0.68539156  0.41565293  0.43296374
   0.31460844  0.58434707  0.56703626
   0.68539156  0.58434707  0.56703626
   0.31460844  0.41565293  0.43296374
   0.31460844  0.91565293  0.06703626
   0.68539156  0.08434707  0.93296374
   0.70791433  0.56743202  0.08422920
   0.29208567  0.43256798  0.91577080
   0.29208567  0.93256798  0.58422920
   0.70791433  0.06743202  0.41577080
   0.29208567  0.06743202  0.41577080
   0.70791433  0.93256798  0.58422920
   0.70791433  0.43256798  0.91577080
   0.29208567  0.56743202  0.08422920
   0.20791433  0.06743202  0.08422920
   0.79208567  0.93256798  0.91577080
   0.79208567  0.43256798  0.58422920
   0.20791433  0.56743202  0.41577080
   0.79208567  0.56743202  0.41577080
   0.20791433  0.43256798  0.58422920
   0.20791433  0.93256798  0.91577080
   0.79208567  0.06743202  0.08422920
  -0.00000000  0.63096350  0.15009323
  -0.00000000  0.36903650  0.84990674
  -0.00000000  0.86903650  0.65009326
  -0.00000000  0.13096350  0.34990677
   0.50000000  0.13096350  0.15009323
   0.50000000  0.86903650  0.84990674
   0.50000000  0.36903650  0.65009326
   0.50000000  0.63096350  0.34990677
  -0.00000000  0.27246502  0.51236725
  -0.00000000  0.72753498  0.48763275
  -0.00000000  0.22753498  0.01236725
  -0.00000000  0.77246502  0.98763275
   0.50000000  0.77246502  0.51236725
   0.50000000  0.22753498  0.48763275
   0.50000000  0.72753498  0.01236725
   0.50000000  0.27246502  0.98763275
  -0.00000000  0.25930477  0.38092316
  -0.00000000  0.74069523  0.61907682
  -0.00000000  0.24069523  0.88092318
  -0.00000000  0.75930477  0.11907682
   0.50000000  0.75930477  0.38092316
   0.50000000  0.24069523  0.61907682
   0.50000000  0.74069523  0.88092318
   0.50000000  0.25930477  0.11907682
   0.76120380  0.50000000 -0.00000000
   0.23879620  0.50000000 -0.00000000
   0.23879620 -0.00000000  0.50000000
   0.76120380 -0.00000000  0.50000000
   0.26120380 -0.00000000 -0.00000000
   0.73879620 -0.00000000 -0.00000000
   0.73879620  0.50000000  0.50000000
   0.26120380  0.50000000  0.50000000
Direct configuration=     7
   0.07540371  0.81723572  0.16915677
   0.92459631  0.18276428  0.83084326
   0.92459631  0.68276428  0.66915674
   0.07540371  0.31723572  0.33084323
   0.92459631  0.31723572  0.33084323
   0.07540371  0.68276428  0.66915674
   0.07540371  0.18276428  0.83084326
   0.92459631  0.81723572  0.16915677
   0.57540369  0.31723572  0.16915677
   0.42459628  0.68276428  0.83084326
   0.42459628  0.18276428  0.66915674
   0.57540369  0.81723572  0.33084323
   0.42459628  0.81723572  0.33084323
   0.57540369  0.18276428  0.66915674
   0.57540369  0.68276428  0.83084326
   0.42459628  0.31723572  0.16915677
   0.81451398  0.58434141  0.93291836
   0.18548602  0.41565859  0.06708164
   0.18548602  0.91565859  0.43291836
   0.81451398  0.08434141  0.56708164
   0.18548602  0.08434141  0.56708164
   0.81451398  0.91565859  0.43291836
   0.81451398  0.41565859  0.06708164
   0.18548602  0.58434141  0.93291836
   0.31451398  0.08434141  0.93291836
   0.68548602  0.91565859  0.06708164
   0.68548602  0.41565859  0.43291836
   0.31451398  0.58434141  0.56708164
   0.68548602  0.58434141  0.56708164
   0.31451398  0.41565859  0.43291836
   0.31451398  0.91565859  0.06708164
   0.68548602  0.08434141  0.93291836
   0.70784109  0.56757325  0.08417029
   0.29215891  0.43242675  0.91582971
   0.29215891  0.93242675  0.58417029
   0.70784109  0.06757325  0.41582971
   0.29215891  0.06757325  0.41582971
   0.70784109  0.93242675  0.58417029
   0.70784109  0.43242675  0.91582971
   0.29215891  0.56757325  0.08417029
   0.20784109  0.06757325  0.08417029
   0.79215891  0.93242675  0.91582971
   0.79215891  0.43242675  0.58417029
   0.20784109  0.56757325  0.41582971
   0.79215891  0.56757325  0.41582971
   0.20784109  0.43242675  0.58417029
   0.20784109  0.93242675  0.91582971
   0.79215891  0.06757325  0.08417029
  -0.00000000  0.63083715  0.15076600
  -0.00000000  0.36916285  0.84923397
  -0.00000000  0.86916285  0.65076603
  -0.00000000  0.13083715  0.34923400
   0.50000000  0.13083715  0.15076600
   0.50000000  0.86916285  0.84923397
   0.50000000  0.36916285  0.65076603
   0.50000000  0.63083715  0.34923400
  -0.00000000  0.27254581  0.51129604
  -0.00000000  0.72745419  0.48870396
  -0.00000000  0.22745419  0.01129604
  -0.00000000  0.77254581  0.98870396
   0.50000000  0.77254581  0.51129604
   0.50000000  0.22745419  0.48870396
   0.50000000  0.72745419  0.01129604
   0.50000000  0.27254581  0.98870396
  -0.00000000  0.25918281  0.37995339
  -0.00000000  0.74081719  0.62004660
  -0.00000000  0.24081719  0.87995340
  -0.00000000  0.75918281  0.12004660
   0.50000000  0.75918281  0.37995339
   0.50000000  0.24081719  0.62004660
   0.50000000  0.74081719  0.87995340
   0.50000000  0.25918281  0.12004660
   0.76111062  0.50000000 -0.00000000
   0.23888938  0.50000000 -0.00000000
   0.23888938 -0.00000000  0.50000000
   0.76111062 -0.00000000  0.50000000
   0.26111062 -0.00000000 -0.00000000
   0.73888938 -0.00000000 -0.00000000
   0.73888938  0.50000000  0.50000000
   0.26111062  0.50000000  0.50000000
Direct configuration=     8
   0.07519627  0.81739575  0.17095185
   0.92480375  0.18260425  0.82904818
   0.92480375  0.68260425  0.67095182
   0.07519627  0.31739575  0.32904815
   0.92480375  0.31739575  0.32904815
   0.07519627  0.68260425  0.67095182
   0.07519627  0.18260425  0.82904818
   0.92480375  0.81739575  0.17095185
   0.57519625  0.31739575  0.17095185
   0.42480372  0.68260425  0.82904818
   0.42480372  0.18260425  0.67095182
   0.57519625  0.81739575  0.32904815
   0.42480372  0.81739575  0.32904815
   0.57519625  0.18260425  0.67095182
   0.57519625  0.68260425  0.82904818
   0.42480372  0.31739575  0.17095185
   0.81432508  0.58433008  0.93282760
   0.18567492  0.41566992  0.06717240
   0.18567492  0.91566992  0.43282760
   0.81432508  0.08433008  0.56717240
   0.18567492  0.08433008  0.56717240
   0.81432508  0.91566992  0.43282760
   0.81432508  0.41566992  0.06717240
   0.18567492  0.58433008  0.93282760
   0.31432508  0.08433008  0.93282760
   0.68567492  0.91566992  0.06717240
   0.68567492  0.41566992  0.43282760
   0.31432508  0.58433008  0.56717240
   0.68567492  0.58433008  0.56717240
   0.31432508  0.41566992  0.43282760
   0.31432508  0.91566992  0.06717240
   0.68567492  0.08433008  0.93282760
   0.70769459  0.56785572  0.08405245
   0.29230541  0.43214428  0.91594755
   0.29230541  0.93214428  0.58405245
   0.70769459  0.06785572  0.41594755
   0.29230541  0.06785572  0.41594755
   0.70769459  0.93214428  0.58405245
   0.70769459  0.43214428  0.91594755
   0.29230541  0.56785572  0.08405245
   0.20769459  0.06785572  0.08405245
   0.79230541  0.93214428  0.91594755
   0.79230541  0.43214428  0.58405245
   0.20769459  0.56785572  0.41594755
   0.79230541  0.56785572  0.41594755
   0.20769459  0.43214428  0.58405245
   0.20769459  0.93214428  0.91594755
   0.79230541  0.06785572  0.08405245
  -0.00000000  0.63058445  0.15211153
  -0.00000000  0.36941555  0.84788844
  -0.00000000  0.86941555  0.65211156
  -0.00000000  0.13058445  0.34788847
   0.50000000  0.13058445  0.15211153
   0.50000000  0.86941555  0.84788844
   0.50000000  0.36941555  0.65211156
   0.50000000  0.63058445  0.34788847
  -0.00000000  0.27270741  0.50915361
  -0.00000000  0.72729259  0.49084639
  -0.00000000  0.22729259  0.00915361
  -0.00000000  0.77270741  0.99084639
   0.50000000  0.77270741  0.50915361
   0.50000000  0.22729259  0.49084639
   0.50000000  0.72729259  0.00915361
   0.50000000  0.27270741  0.99084639
  -0.00000000  0.25893889  0.37801384
  -0.00000000  0.74106111  0.62198615
  -0.00000000  0.24106111  0.87801385
  -0.00000000  0.75893889  0.12198615
   0.50000000  0.75893889  0.37801384
   0.50000000  0.24106111  0.62198615
   0.50000000  0.74106111  0.87801385
   0.50000000  0.25893889  0.12198615
   0.76092427  0.50000000 -0.00000000
   0.23907573  0.50000000 -0.00000000
   0.23907573 -0.00000000  0.50000000
   0.76092427 -0.00000000  0.50000000
   0.26092427 -0.00000000 -0.00000000
   0.73907573 -0.00000000 -0.00000000
   0.73907573  0.50000000  0.50000000
   0.26092427  0.50000000  0.50000000
Direct configuration=     9
   0.07528027  0.81733094  0.17022492
   0.92471975  0.18266906  0.82977511
   0.92471975  0.68266906  0.67022489
   0.07528027  0.31733094  0.32977508
   0.92471975  0.31733094  0.32977508
   0.07528027  0.68266906  0.67022489
   0.07528027  0.18266906  0.82977511
   0.92471975  0.81733094  0.17022492
   0.57528025  0.31733094  0.17022492
   0.42471972  0.68266906  0.82977511
   0.42471972  0.18266906  0.67022489
   0.57528025  0.81733094  0.32977508
   0.42471972  0.81733094  0.32977508
   0.57528025  0.18266906  0.67022489
   0.57528025  0.68266906  0.82977511
   0.42471972  0.31733094  0.17022492
   0.81440158  0.58433467  0.93286436
   0.18559842  0.41566533  0.06713564
   0.18559842  0.91566533  0.43286436
   0.81440158  0.08433467  0.56713564
   0.18559842  0.08433467  0.56713564
   0.81440158  0.91566533  0.43286436
   0.81440158  0.41566533  0.06713564
   0.18559842  0.58433467  0.93286436
   0.31440158  0.08433467  0.93286436
   0.68559842  0.91566533  0.06713564
   0.68559842  0.41566533  0.43286436
   0.31440158  0.58433467  0.56713564
   0.68559842  0.58433467  0.56713564
   0.31440158  0.41566533  0.43286436
   0.31440158  0.91566533  0.06713564
   0.68559842  0.08433467  0.93286436
   0.70775392  0.56774134  0.08410017
   0.29224608  0.43225866  0.91589983
   0.29224608  0.93225866  0.58410017
   0.70775392  0.06774134  0.41589983
   0.29224608  0.06774134  0.41589983
   0.70775392  0.93225866  0.58410017
   0.70775392  0.43225866  0.91589983
   0.29224608  0.56774134  0.08410017
   0.20775392  0.06774134  0.08410017
   0.79224608  0.93225866  0.91589983
   0.79224608  0.43225866  0.58410017
   0.20775392  0.56774134  0.41589983
   0.79224608  0.56774134  0.41589983
   0.20775392  0.43225866  0.58410017
   0.20775392  0.93225866  0.91589983
   0.79224608  0.06774134  0.08410017
  -0.00000000  0.63068678  0.15156664
  -0.00000000  0.36931322  0.84843333
  -0.00000000  0.86931322  0.65156667
  -0.00000000  0.13068678  0.34843336
   0.50000000  0.13068678  0.15156664
   0.50000000  0.86931322  0.84843333
   0.50000000  0.36931322  0.65156667
   0.50000000  0.63068678  0.34843336
  -0.00000000  0.27264197  0.51002120
  -0.00000000  0.72735803  0.48997880
  -0.00000000  0.22735803  0.01002120
  -0.00000000  0.77264197  0.98997880
   0.50000000  0.77264197  0.51002120
   0.50000000  0.22735803  0.48997880
   0.50000000  0.72735803  0.01002120
   0.50000000  0.27264197  0.98997880
  -0.00000000  0.25903767  0.37879928
  -0.00000000  0.74096233  0.62120071
  -0.00000000  0.24096233  0.87879929
  -0.00000000  0.75903767  0.12120071
   0.50000000  0.75903767  0.37879928
   0.50000000  0.24096233  0.62120071
   0.50000000  0.74096233  0.87879929
   0.50000000  0.25903767  0.12120071
   0.76099973  0.50000000 -0.00000000
   0.23900027  0.50000000 -0.00000000
   0.23900027 -0.00000000  0.50000000
   0.76099973 -0.00000000  0.50000000
   0.26099973 -0.00000000 -0.00000000
   0.73900027 -0.00000000 -0.00000000
   0.73900027  0.50000000  0.50000000
   0.26099973  0.50000000  0.50000000
Direct configuration=    10
   0.07528047  0.81733266  0.17026254
   0.92471955  0.18266734  0.82973749
   0.92471955  0.68266734  0.67026251
   0.07528047  0.31733266  0.32973746
   0.92471955  0.31733266  0.32973746
   0.07528047  0.68266734  0.67026251
   0.07528047  0.18266734  0.82973749
   0.92471955  0.81733266  0.17026254
   0.57528045  0.31733266  0.17026254
   0.42471952  0.68266734  0.82973749
   0.42471952  0.18266734  0.67026251
   0.57528045  0.81733266  0.32973746
   0.42471952  0.81733266  0.32973746
   0.57528045  0.18266734  0.67026251
   0.57528045  0.68266734  0.82973749
   0.42471952  0.31733266  0.17026254
   0.81439760  0.58433279  0.93286256
   0.18560240  0.41566721  0.06713744
   0.18560240  0.91566721  0.43286256
   0.81439760  0.08433279  0.56713744
   0.18560240  0.08433279  0.56713744
   0.81439760  0.91566721  0.43286256
   0.81439760  0.41566721  0.06713744
   0.18560240  0.58433279  0.93286256
   0.31439760  0.08433279  0.93286256
   0.68560240  0.91566721  0.06713744
   0.68560240  0.41566721  0.43286256
   0.31439760  0.58433279  0.56713744
   0.68560240  0.58433279  0.56713744
   0.31439760  0.41566721  0.43286256
   0.31439760  0.91566721  0.06713744
   0.68560240  0.08433279  0.93286256
   0.70775123  0.56774493  0.08409728
   0.29224877  0.43225507  0.91590272
   0.29224877  0.93225507  0.58409728
   0.70775123  0.06774493  0.41590272
   0.29224877  0.06774493  0.41590272
   0.70775123  0.93225507  0.58409728
   0.70775123  0.43225507  0.91590272
   0.29224877  0.56774493  0.08409728
   0.20775123  0.06774493  0.08409728
   0.79224877  0.93225507  0.91590272
   0.79224877  0.43225507  0.58409728
   0.20775123  0.56774493  0.41590272
   0.79224877  0.56774493  0.41590272
   0.20775123  0.43225507  0.58409728
   0.20775123  0.93225507  0.91590272
   0.79224877  0.06774493  0.08409728
  -0.00000000  0.63067993  0.15159645
  -0.00000000  0.36932007  0.84840352
  -0.00000000  0.86932007  0.65159648
  -0.00000000  0.13067993  0.34840355
   0.50000000  0.13067993  0.15159645
   0.50000000  0.86932007  0.84840352
   0.50000000  0.36932007  0.65159648
   0.50000000  0.63067993  0.34840355
  -0.00000000  0.27264550  0.50998740