diamond                                 
           1
    12.012136    0.000000    0.000000
     0.000000    8.402103    0.000000
     0.000000    0.000000    8.396871
   H    C 
  64  16
Direct configuration=     1
   0.07450755  0.77837188  0.26134065
   0.92549247  0.22162812  0.73865938
   0.92549247  0.72162812  0.76134062
   0.07450755  0.27837188  0.23865935
   0.92549247  0.27837188  0.23865935
   0.07450755  0.72162812  0.76134062
   0.07450755  0.22162812  0.73865938
   0.92549247  0.77837188  0.26134065
   0.57450753  0.27837188  0.26134065
   0.42549244  0.72162812  0.73865938
   0.42549244  0.22162812  0.76134062
   0.57450753  0.77837188  0.23865935
   0.42549244  0.77837188  0.23865935
   0.57450753  0.22162812  0.76134062
   0.57450753  0.72162812  0.73865938
   0.42549244  0.27837188  0.26134065
   0.80245679  0.58175242  0.93198877
   0.19754321  0.41824758  0.06801123
   0.19754321  0.91824758  0.43198877
   0.80245679  0.08175242  0.56801123
   0.19754321  0.08175242  0.56801123
   0.80245679  0.91824758  0.43198877
   0.80245679  0.41824758  0.06801123
   0.19754321  0.58175242  0.93198877
   0.30245679  0.08175242  0.93198877
   0.69754321  0.91824758  0.06801123
   0.69754321  0.41824758  0.43198877
   0.30245679  0.58175242  0.56801123
   0.69754321  0.58175242  0.56801123
   0.30245679  0.41824758  0.43198877
   0.30245679  0.91824758  0.06801123
   0.69754321  0.08175242  0.93198877
   0.69707131  0.56810161  0.08194834
   0.30292869  0.43189839  0.91805166
   0.30292869  0.93189839  0.58194834
   0.69707131  0.06810161  0.41805166
   0.30292869  0.06810161  0.41805166
   0.69707131  0.93189839  0.58194834
   0.69707131  0.43189839  0.91805166
   0.30292869  0.56810161  0.08194834
   0.19707131  0.06810161  0.08194834
   0.80292869  0.93189839  0.91805166
   0.80292869  0.43189839  0.58194834
   0.19707131  0.56810161  0.41805166
   0.80292869  0.56810161  0.41805166
   0.19707131  0.43189839  0.58194834
   0.19707131  0.93189839  0.91805166
   0.80292869  0.06810161  0.08194834
   0.00000000  0.60222561  0.20656476
   0.00000000  0.39777439  0.79343521
   0.00000000  0.89777439  0.70656479
   0.00000000  0.10222561  0.29343524
   0.50000000  0.10222561  0.20656476
   0.50000000  0.89777439  0.79343521
   0.50000000  0.39777439  0.70656479
   0.50000000  0.60222561  0.29343524
   0.00000000  0.22830957  0.92285455
   0.00000000  0.77169043  0.07714545
   0.00000000  0.27169043  0.42285455
   0.00000000  0.72830957  0.57714545
   0.50000000  0.72830957  0.92285455
   0.50000000  0.27169043  0.07714545
   0.50000000  0.77169043  0.42285455
   0.50000000  0.22830957  0.57714545
   0.00000000  0.23254029  0.29845990
   0.00000000  0.76745971  0.70154009
   0.00000000  0.26745971  0.79845991
   0.00000000  0.73254029  0.20154009
   0.50000000  0.73254029  0.29845990
   0.50000000  0.26745971  0.70154009
   0.50000000  0.76745971  0.79845991
   0.50000000  0.23254029  0.20154009
   0.74966999  0.50000000  0.00000000
   0.25033001  0.50000000  0.00000000
   0.25033001  0.00000000  0.50000000
   0.74966999  0.00000000  0.50000000
   0.24966999  0.00000000  0.00000000
   0.75033001  0.00000000  0.00000000
   0.75033001  0.50000000  0.50000000
   0.24966999  0.50000000  0.50000000
Direct configuration=     2
   0.07448172  0.77837031  0.26126209
   0.92551830  0.22162969  0.73873794
   0.92551830  0.72162969  0.76126206
   0.07448172  0.27837031  0.23873791
   0.92551830  0.27837031  0.23873791
   0.07448172  0.72162969  0.76126206
   0.07448172  0.22162969  0.73873794
   0.92551830  0.77837031  0.26126209
   0.57448170  0.27837031  0.26126209
   0.42551827  0.72162969  0.73873794
   0.42551827  0.22162969  0.76126206
   0.57448170  0.77837031  0.23873791
   0.42551827  0.77837031  0.23873791
   0.57448170  0.22162969  0.76126206
   0.57448170  0.72162969  0.73873794
   0.42551827  0.27837031  0.26126209
   0.80242153  0.58175926  0.93201662
   0.19757847  0.41824074  0.06798338
   0.19757847  0.91824074  0.43201662
   0.80242153  0.08175926  0.56798338
   0.19757847  0.08175926  0.56798338
   0.80242153  0.91824074  0.43201662
   0.80242153  0.41824074  0.06798338
   0.19757847  0.58175926  0.93201662
   0.30242153  0.08175926  0.93201662
   0.69757847  0.91824074  0.06798338
   0.69757847  0.41824074  0.43201662
   0.30242153  0.58175926  0.56798338
   0.69757847  0.58175926  0.56798338
   0.30242153  0.41824074  0.43201662
   0.30242153  0.91824074  0.06798338
   0.69757847  0.08175926  0.93201662
   0.69707561  0.56806689  0.08194254
   0.30292439  0.43193311  0.91805746
   0.30292439  0.93193311  0.58194254
   0.69707561  0.06806689  0.41805746
   0.30292439  0.06806689  0.41805746
   0.69707561  0.93193311  0.58194254
   0.69707561  0.43193311  0.91805746
   0.30292439  0.56806689  0.08194254
   0.19707561  0.06806689  0.08194254
   0.80292439  0.93193311  0.91805746
   0.80292439  0.43193311  0.58194254
   0.19707561  0.56806689  0.41805746
   0.80292439  0.56806689  0.41805746
   0.19707561  0.43193311  0.58194254
   0.19707561  0.93193311  0.91805746
   0.80292439  0.06806689  0.08194254
   0.00000000  0.60226455  0.20650922
   0.00000000  0.39773545  0.79349075
   0.00000000  0.89773545  0.70650925
   0.00000000  0.10226455  0.29349078
   0.50000000  0.10226455  0.20650922
   0.50000000  0.89773545  0.79349075
   0.50000000  0.39773545  0.70650925
   0.50000000  0.60226455  0.29349078
   0.00000000  0.22833353  0.92288690
   0.00000000  0.77166647  0.07711310
   0.00000000  0.27166647  0.42288690
   0.00000000  0.72833353  0.57711310
   0.50000000  0.72833353  0.92288690
   0.50000000  0.27166647  0.07711310
   0.50000000  0.77166647  0.42288690
   0.50000000  0.22833353  0.57711310
   0.00000000  0.23252039  0.29834237
   0.00000000  0.76747961  0.70165761
   0.00000000  0.26747961  0.79834239
   0.00000000  0.73252039  0.20165761
   0.50000000  0.73252039  0.29834237
   0.50000000  0.26747961  0.70165761
   0.50000000  0.76747961  0.79834239
   0.50000000  0.23252039  0.20165761
   0.74965444  0.50000000 -0.00000000
   0.25034556  0.50000000 -0.00000000
   0.25034556  0.00000000  0.50000000
   0.74965444  0.00000000  0.50000000
   0.24965444  0.00000000 -0.00000000
   0.75034556  0.00000000 -0.00000000
   0.75034556  0.50000000  0.50000000
   0.24965444  0.50000000  0.50000000
Direct configuration=     3
   0.07449670  0.77837122  0.26130765
   0.92550332  0.22162878  0.73869238
   0.92550332  0.72162878  0.76130762
   0.07449670  0.27837122  0.23869235
   0.92550332  0.27837122  0.23869235
   0.07449670  0.72162878  0.76130762
   0.07449670  0.22162878  0.73869238
   0.92550332  0.77837122  0.26130765
   0.57449668  0.27837122  0.26130765
   0.42550329  0.72162878  0.73869238
   0.42550329  0.22162878  0.76130762
   0.57449668  0.77837122  0.23869235
   0.42550329  0.77837122  0.23869235
   0.57449668  0.22162878  0.76130762
   0.57449668  0.72162878  0.73869238
   0.42550329  0.27837122  0.26130765
   0.80244197  0.58175529  0.93200047
   0.19755803  0.41824471  0.06799953
   0.19755803  0.91824471  0.43200047
   0.80244197  0.08175529  0.56799953
   0.19755803  0.08175529  0.56799953
   0.80244197  0.91824471  0.43200047
   0.80244197  0.41824471  0.06799953
   0.19755803  0.58175529  0.93200047
   0.30244197  0.08175529  0.93200047
   0.69755803  0.91824471  0.06799953
   0.69755803  0.41824471  0.43200047
   0.30244197  0.58175529  0.56799953
   0.69755803  0.58175529  0.56799953
   0.30244197  0.41824471  0.43200047
   0.30244197  0.91824471  0.06799953
   0.69755803  0.08175529  0.93200047
   0.69707312  0.56808702  0.08194591
   0.30292688  0.43191298  0.91805409
   0.30292688  0.93191298  0.58194591
   0.69707312  0.06808702  0.41805409
   0.30292688  0.06808702  0.41805409
   0.69707312  0.93191298  0.58194591
   0.69707312  0.43191298  0.91805409
   0.30292688  0.56808702  0.08194591
   0.19707312  0.06808702  0.08194591
   0.80292688  0.93191298  0.91805409
   0.80292688  0.43191298  0.58194591
   0.19707312  0.56808702  0.41805409
   0.80292688  0.56808702  0.41805409
   0.19707312  0.43191298  0.58194591
   0.19707312  0.93191298  0.91805409
   0.80292688  0.06808702  0.08194591
   0.00000000  0.60224197  0.20654143
   0.00000000  0.39775803  0.79345854
   0.00000000  0.89775803  0.70654146
   0.00000000  0.10224197  0.29345857
   0.50000000  0.10224197  0.20654143
   0.50000000  0.89775803  0.79345854
   0.50000000  0.39775803  0.70654146
   0.50000000  0.60224197  0.29345857
   0.00000000  0.22831964  0.92286814
   0.00000000  0.77168036  0.07713186
   0.00000000  0.27168036  0.42286814
   0.00000000  0.72831964  0.57713186
   0.50000000  0.72831964  0.92286814
   0.50000000  0.27168036  0.07713186
   0.50000000  0.77168036  0.42286814
   0.50000000  0.22831964  0.57713186
   0.00000000  0.23253193  0.29841053
   0.00000000  0.76746807  0.70158946
   0.00000000  0.26746807  0.79841054
   0.00000000  0.73253193  0.20158946
   0.50000000  0.73253193  0.29841053
   0.50000000  0.26746807  0.70158946
   0.50000000  0.76746807  0.79841054
   0.50000000  0.23253193  0.20158946
   0.74966346  0.50000000 -0.00000000
   0.25033654  0.50000000 -0.00000000
   0.25033654  0.00000000  0.50000000
   0.74966346  0.00000000  0.50000000
   0.24966346  0.00000000 -0.00000000
   0.75033654  0.00000000 -0.00000000
   0.75033654  0.50000000  0.50000000
   0.24966346  0.50000000  0.50000000
