diamond                                 
           1
    12.012136    0.000000    0.000000
     0.000000    8.402103    0.000000
     0.000000    0.000000    8.396871
   H    C 
  64  16
Direct configuration=     1
   0.07496258  0.77863942  0.26175302
   0.92503744  0.22136058  0.73824701
   0.92503744  0.72136058  0.76175299
   0.07496258  0.27863942  0.23824698
   0.92503744  0.27863942  0.23824698
   0.07496258  0.72136058  0.76175299
   0.07496258  0.22136058  0.73824701
   0.92503744  0.77863942  0.26175302
   0.57496256  0.27863942  0.26175302
   0.42503741  0.72136058  0.73824701
   0.42503741  0.22136058  0.76175299
   0.57496256  0.77863942  0.23824698
   0.42503741  0.77863942  0.23824698
   0.57496256  0.22136058  0.76175299
   0.57496256  0.72136058  0.73824701
   0.42503741  0.27863942  0.26175302
   0.80278266  0.58221714  0.93157996
   0.19721734  0.41778286  0.06842004
   0.19721734  0.91778286  0.43157996
   0.80278266  0.08221714  0.56842004
   0.19721734  0.08221714  0.56842004
   0.80278266  0.91778286  0.43157996
   0.80278266  0.41778286  0.06842004
   0.19721734  0.58221714  0.93157996
   0.30278266  0.08221714  0.93157996
   0.69721734  0.91778286  0.06842004
   0.69721734  0.41778286  0.43157996
   0.30278266  0.58221714  0.56842004
   0.69721734  0.58221714  0.56842004
   0.30278266  0.41778286  0.43157996
   0.30278266  0.91778286  0.06842004
   0.69721734  0.08221714  0.93157996
   0.69676663  0.56851243  0.08242000
   0.30323337  0.43148757  0.91758000
   0.30323337  0.93148757  0.58242000
   0.69676663  0.06851243  0.41758000
   0.30323337  0.06851243  0.41758000
   0.69676663  0.93148757  0.58242000
   0.69676663  0.43148757  0.91758000
   0.30323337  0.56851243  0.08242000
   0.19676663  0.06851243  0.08242000
   0.80323337  0.93148757  0.91758000
   0.80323337  0.43148757  0.58242000
   0.19676663  0.56851243  0.41758000
   0.80323337  0.56851243  0.41758000
   0.19676663  0.43148757  0.58242000
   0.19676663  0.93148757  0.91758000
   0.80323337  0.06851243  0.08242000
   0.00000000  0.60141758  0.20663685
   0.00000000  0.39858242  0.79336312
   0.00000000  0.89858242  0.70663688
   0.00000000  0.10141758  0.29336315
   0.50000000  0.10141758  0.20663685
   0.50000000  0.89858242  0.79336312
   0.50000000  0.39858242  0.70663688
   0.50000000  0.60141758  0.29336315
   0.00000000  0.22802544  0.92368784
   0.00000000  0.77197456  0.07631216
   0.00000000  0.27197456  0.42368784
   0.00000000  0.72802544  0.57631216
   0.50000000  0.72802544  0.92368784
   0.50000000  0.27197456  0.07631216
   0.50000000  0.77197456  0.42368784
   0.50000000  0.22802544  0.57631216
   0.00000000  0.23254117  0.29842156
   0.00000000  0.76745883  0.70157842
   0.00000000  0.26745883  0.79842158
   0.00000000  0.73254117  0.20157842
   0.50000000  0.73254117  0.29842156
   0.50000000  0.26745883  0.70157842
   0.50000000  0.76745883  0.79842158
   0.50000000  0.23254117  0.20157842
   0.74967585  0.50000000  0.00000000
   0.25032415  0.50000000  0.00000000
   0.25032415  0.00000000  0.50000000
   0.74967585  0.00000000  0.50000000
   0.24967585  0.00000000  0.00000000
   0.75032415  0.00000000  0.00000000
   0.75032415  0.50000000  0.50000000
   0.24967585  0.50000000  0.50000000
Direct configuration=     2
   0.07426126  0.77822706  0.26111745
   0.92573876  0.22177294  0.73888258
   0.92573876  0.72177294  0.76111742
   0.07426126  0.27822706  0.23888255
   0.92573876  0.27822706  0.23888255
   0.07426126  0.72177294  0.76111742
   0.07426126  0.22177294  0.73888258
   0.92573876  0.77822706  0.26111745
   0.57426124  0.27822706  0.26111745
   0.42573873  0.72177294  0.73888258
   0.42573873  0.22177294  0.76111742
   0.57426124  0.77822706  0.23888255
   0.42573873  0.77822706  0.23888255
   0.57426124  0.22177294  0.76111742
   0.57426124  0.72177294  0.73888258
   0.42573873  0.27822706  0.26111745
   0.80228040  0.58150088  0.93221004
   0.19771960  0.41849912  0.06778996
   0.19771960  0.91849912  0.43221004
   0.80228040  0.08150088  0.56778996
   0.19771960  0.08150088  0.56778996
   0.80228040  0.91849912  0.43221004
   0.80228040  0.41849912  0.06778996
   0.19771960  0.58150088  0.93221004
   0.30228040  0.08150088  0.93221004
   0.69771960  0.91849912  0.06778996
   0.69771960  0.41849912  0.43221004
   0.30228040  0.58150088  0.56778996
   0.69771960  0.58150088  0.56778996
   0.30228040  0.41849912  0.43221004
   0.30228040  0.91849912  0.06778996
   0.69771960  0.08150088  0.93221004
   0.69723623  0.56787924  0.08169305
   0.30276377  0.43212076  0.91830695
   0.30276377  0.93212076  0.58169305
   0.69723623  0.06787924  0.41830695
   0.30276377  0.06787924  0.41830695
   0.69723623  0.93212076  0.58169305
   0.69723623  0.43212076  0.91830695
   0.30276377  0.56787924  0.08169305
   0.19723623  0.06787924  0.08169305
   0.80276377  0.93212076  0.91830695
   0.80276377  0.43212076  0.58169305
   0.19723623  0.56787924  0.41830695
   0.80276377  0.56787924  0.41830695
   0.19723623  0.43212076  0.58169305
   0.19723623  0.93212076  0.91830695
   0.80276377  0.06787924  0.08169305
  -0.00000000  0.60266296  0.20652573
  -0.00000000  0.39733704  0.79347424
  -0.00000000  0.89733704  0.70652576
  -0.00000000  0.10266296  0.29347427
   0.50000000  0.10266296  0.20652573
   0.50000000  0.89733704  0.79347424
   0.50000000  0.39733704  0.70652576
   0.50000000  0.60266296  0.29347427
  -0.00000000  0.22846336  0.92240351
  -0.00000000  0.77153664  0.07759649
  -0.00000000  0.27153664  0.42240351
  -0.00000000  0.72846336  0.57759649
   0.50000000  0.72846336  0.92240351
   0.50000000  0.27153664  0.07759649
   0.50000000  0.77153664  0.42240351
   0.50000000  0.22846336  0.57759649
  -0.00000000  0.23253981  0.29848064
  -0.00000000  0.76746019  0.70151934
  -0.00000000  0.26746019  0.79848066
  -0.00000000  0.73253981  0.20151934
   0.50000000  0.73253981  0.29848064
   0.50000000  0.26746019  0.70151934
   0.50000000  0.76746019  0.79848066
   0.50000000  0.23253981  0.20151934
   0.74966682  0.50000000  0.00000000
   0.25033318  0.50000000 -0.00000000
   0.25033318 -0.00000000  0.50000000
   0.74966682 -0.00000000  0.50000000
   0.24966682 -0.00000000  0.00000000
   0.75033318 -0.00000000 -0.00000000
   0.75033318  0.50000000  0.50000000
   0.24966682  0.50000000  0.50000000
Direct configuration=     3
   0.07450755  0.77837188  0.26134065
   0.92549247  0.22162812  0.73865938
   0.92549247  0.72162812  0.76134062
   0.07450755  0.27837188  0.23865935
   0.92549247  0.27837188  0.23865935
   0.07450755  0.72162812  0.76134062
   0.07450755  0.22162812  0.73865938
   0.92549247  0.77837188  0.26134065
   0.57450753  0.27837188  0.26134065
   0.42549244  0.72162812  0.73865938
   0.42549244  0.22162812  0.76134062
   0.57450753  0.77837188  0.23865935
   0.42549244  0.77837188  0.23865935
   0.57450753  0.22162812  0.76134062
   0.57450753  0.72162812  0.73865938
   0.42549244  0.27837188  0.26134065
   0.80245679  0.58175242  0.93198877
   0.19754321  0.41824758  0.06801123
   0.19754321  0.91824758  0.43198877
   0.80245679  0.08175242  0.56801123
   0.19754321  0.08175242  0.56801123
   0.80245679  0.91824758  0.43198877
   0.80245679  0.41824758  0.06801123
   0.19754321  0.58175242  0.93198877
   0.30245679  0.08175242  0.93198877
   0.69754321  0.91824758  0.06801123
   0.69754321  0.41824758  0.43198877
   0.30245679  0.58175242  0.56801123
   0.69754321  0.58175242  0.56801123
   0.30245679  0.41824758  0.43198877
   0.30245679  0.91824758  0.06801123
   0.69754321  0.08175242  0.93198877
   0.69707131  0.56810161  0.08194834
   0.30292869  0.43189839  0.91805166
   0.30292869  0.93189839  0.58194834
   0.69707131  0.06810161  0.41805166
   0.30292869  0.06810161  0.41805166
   0.69707131  0.93189839  0.58194834
   0.69707131  0.43189839  0.91805166
   0.30292869  0.56810161  0.08194834
   0.19707131  0.06810161  0.08194834
   0.80292869  0.93189839  0.91805166
   0.80292869  0.43189839  0.58194834
   0.19707131  0.56810161  0.41805166
   0.80292869  0.56810161  0.41805166
   0.19707131  0.43189839  0.58194834
   0.19707131  0.93189839  0.91805166
   0.80292869  0.06810161  0.08194834
  -0.00000000  0.60222561  0.20656476
  -0.00000000  0.39777439  0.79343521
  -0.00000000  0.89777439  0.70656479
  -0.00000000  0.10222561  0.29343524
   0.50000000  0.10222561  0.20656476
   0.50000000  0.89777439  0.79343521
   0.50000000  0.39777439  0.70656479
   0.50000000  0.60222561  0.29343524
  -0.00000000  0.22830957  0.92285455
  -0.00000000  0.77169043  0.07714545
  -0.00000000  0.27169043  0.42285455
  -0.00000000  0.72830957  0.57714545
   0.50000000  0.72830957  0.92285455
   0.50000000  0.27169043  0.07714545
   0.50000000  0.77169043  0.42285455
   0.50000000  0.22830957  0.57714545
  -0.00000000  0.23254029  0.29845990
  -0.00000000  0.76745971  0.70154009
  -0.00000000  0.26745971  0.79845991
  -0.00000000  0.73254029  0.20154009
   0.50000000  0.73254029  0.29845990
   0.50000000  0.26745971  0.70154009
   0.50000000  0.76745971  0.79845991
   0.50000000  0.23254029  0.20154009
   0.74966999  0.50000000  0.00000000
   0.25033001  0.50000000 -0.00000000
   0.25033001 -0.00000000  0.50000000
   0.74966999 -0.00000000  0.50000000
   0.24966999 -0.00000000  0.00000000
   0.75033001 -0.00000000 -0.00000000
   0.75033001  0.50000000  0.50000000
   0.24966999  0.50000000  0.50000000
Direct configuration=     4
   0.07450229  0.77838220  0.26127522
   0.92549774  0.22161780  0.73872481
   0.92549774  0.72161780  0.76127519
   0.07450229  0.27838220  0.23872478
   0.92549774  0.27838220  0.23872478
   0.07450229  0.72161780  0.76127519
   0.07450229  0.22161780  0.73872481
   0.92549774  0.77838220  0.26127522
   0.57450226  0.27838220  0.26127522
   0.42549771  0.72161780  0.73872481
   0.42549771  0.22161780  0.76127519
   0.57450226  0.77838220  0.23872478
   0.42549771  0.77838220  0.23872478
   0.57450226  0.22161780  0.76127519
   0.57450226  0.72161780  0.73872481
   0.42549771  0.27838220  0.26127522
   0.80243720  0.58177523  0.93199978
   0.19756280  0.41822477  0.06800022
   0.19756280  0.91822477  0.43199978
   0.80243720  0.08177523  0.56800022
   0.19756280  0.08177523  0.56800022
   0.80243720  0.91822477  0.43199978
   0.80243720  0.41822477  0.06800022
   0.19756280  0.58177523  0.93199978
   0.30243720  0.08177523  0.93199978
   0.69756280  0.91822477  0.06800022
   0.69756280  0.41822477  0.43199978
   0.30243720  0.58177523  0.56800022
   0.69756280  0.58177523  0.56800022
   0.30243720  0.41822477  0.43199978
   0.30243720  0.91822477  0.06800022
   0.69756280  0.08177523  0.93199978
   0.69706350  0.56808632  0.08196128
   0.30293650  0.43191368  0.91803872
   0.30293650  0.93191368  0.58196128
   0.69706350  0.06808632  0.41803872
   0.30293650  0.06808632  0.41803872
   0.69706350  0.93191368  0.58196128
   0.69706350  0.43191368  0.91803872
   0.30293650  0.56808632  0.08196128
   0.19706350  0.06808632  0.08196128
   0.80293650  0.93191368  0.91803872
   0.80293650  0.43191368  0.58196128
   0.19706350  0.56808632  0.41803872
   0.80293650  0.56808632  0.41803872
   0.19706350  0.43191368  0.58196128
   0.19706350  0.93191368  0.91803872
   0.80293650  0.06808632  0.08196128
  -0.00000000  0.60222761  0.20651119
  -0.00000000  0.39777239  0.79348878
  -0.00000000  0.89777239  0.70651122
  -0.00000000  0.10222761  0.29348881
   0.50000000  0.10222761  0.20651119
   0.50000000  0.89777239  0.79348878
   0.50000000  0.39777239  0.70651122
   0.50000000  0.60222761  0.29348881
  -0.00000000  0.22832523  0.92291194
  -0.00000000  0.77167477  0.07708806
  -0.00000000  0.27167477  0.42291194
  -0.00000000  0.72832523  0.57708806
   0.50000000  0.72832523  0.92291194
   0.50000000  0.27167477  0.07708806
   0.50000000  0.77167477  0.42291194
   0.50000000  0.22832523  0.57708806
  -0.00000000  0.23251743  0.29835938
  -0.00000000  0.76748257  0.70164061
  -0.00000000  0.26748257  0.79835939
  -0.00000000  0.73251743  0.20164061
   0.50000000  0.73251743  0.29835938
   0.50000000  0.26748257  0.70164061
   0.50000000  0.76748257  0.79835939
   0.50000000  0.23251743  0.20164061
   0.74965794  0.50000000 -0.00000000
   0.25034206  0.50000000 -0.00000000
   0.25034206  0.00000000  0.50000000
   0.74965794 -0.00000000  0.50000000
   0.24965794 -0.00000000 -0.00000000
   0.75034206 -0.00000000 -0.00000000
   0.75034206  0.50000000  0.50000000
   0.24965794  0.50000000  0.50000000
Direct configuration=     5
   0.07450488  0.77837711  0.26130753
   0.92549514  0.22162289  0.73869250
   0.92549514  0.72162289  0.76130750
   0.07450488  0.27837711  0.23869247
   0.92549514  0.27837711  0.23869247
   0.07450488  0.72162289  0.76130750
   0.07450488  0.22162289  0.73869250
   0.92549514  0.77837711  0.26130753
   0.57450486  0.27837711  0.26130753
   0.42549511  0.72162289  0.73869250
   0.42549511  0.22162289  0.76130750
   0.57450486  0.77837711  0.23869247
   0.42549511  0.77837711  0.23869247
   0.57450486  0.22162289  0.76130750
   0.57450486  0.72162289  0.73869250
   0.42549511  0.27837711  0.26130753
   0.80244687  0.58176397  0.93199434
   0.19755313  0.41823603  0.06800566
   0.19755313  0.91823603  0.43199434
   0.80244687  0.08176397  0.56800566
   0.19755313  0.08176397  0.56800566
   0.80244687  0.91823603  0.43199434
   0.80244687  0.41823603  0.06800566
   0.19755313  0.58176397  0.93199434
   0.30244687  0.08176397  0.93199434
   0.69755313  0.91823603  0.06800566
   0.69755313  0.41823603  0.43199434
   0.30244687  0.58176397  0.56800566
   0.69755313  0.58176397  0.56800566
   0.30244687  0.41823603  0.43199434
   0.30244687  0.91823603  0.06800566
   0.69755313  0.08176397  0.93199434
   0.69706736  0.56809387  0.08195489
   0.30293264  0.43190613  0.91804511
   0.30293264  0.93190613  0.58195489
   0.69706736  0.06809387  0.41804511
   0.30293264  0.06809387  0.41804511
   0.69706736  0.93190613  0.58195489
   0.69706736  0.43190613  0.91804511
   0.30293264  0.56809387  0.08195489
   0.19706736  0.06809387  0.08195489
   0.80293264  0.93190613  0.91804511
   0.80293264  0.43190613  0.58195489
   0.19706736  0.56809387  0.41804511
   0.80293264  0.56809387  0.41804511
   0.19706736  0.43190613  0.58195489
   0.19706736  0.93190613  0.91804511
   0.80293264  0.06809387  0.08195489
  -0.00000000  0.60222662  0.20653764
  -0.00000000  0.39777338  0.79346233
  -0.00000000  0.89777338  0.70653767
  -0.00000000  0.10222662  0.29346236
   0.50000000  0.10222662  0.20653764
   0.50000000  0.89777338  0.79346233
   0.50000000  0.39777338  0.70653767
   0.50000000  0.60222662  0.29346236
  -0.00000000  0.22831750  0.92288360
  -0.00000000  0.77168250  0.07711640
  -0.00000000  0.27168250  0.42288360
  -0.00000000  0.72831750  0.57711640
   0.50000000  0.72831750  0.92288360
   0.50000000  0.27168250  0.07711640
   0.50000000  0.77168250  0.42288360
   0.50000000  0.22831750  0.57711640
  -0.00000000  0.23252872  0.29840901
  -0.00000000  0.76747128  0.70159098
  -0.00000000  0.26747128  0.79840902
  -0.00000000  0.73252872  0.20159098
   0.50000000  0.73252872  0.29840901
   0.50000000  0.26747128  0.70159098
   0.50000000  0.76747128  0.79840902
   0.50000000  0.23252872  0.20159098
   0.74966389  0.50000000 -0.00000000
   0.25033611  0.50000000 -0.00000000
   0.25033611 -0.00000000  0.50000000
   0.74966389 -0.00000000  0.50000000
   0.24966389 -0.00000000 -0.00000000
   0.75033611 -0.00000000 -0.00000000
   0.75033611  0.50000000  0.50000000
   0.24966389  0.50000000  0.50000000
