diamond                                 
           1
    11.861969    0.000000    0.000000
     0.000000    8.297066    0.000000
     0.000000    0.000000    8.291899
   H    C 
  56  16
Direct configuration=     1
   0.80100000  0.57950002  0.93360001
   0.19900000  0.42049998  0.06639999
   0.19900000  0.92049998  0.43360001
   0.80100000  0.07950002  0.56639999
   0.19900000  0.07950002  0.56639999
   0.80100000  0.92049998  0.43360001
   0.80100000  0.42049998  0.06639999
   0.19900000  0.57950002  0.93360001
   0.30100000  0.07950002  0.93360001
   0.69900000  0.92049998  0.06639999
   0.69900000  0.42049998  0.43360001
   0.30100000  0.57950002  0.56639999
   0.69900000  0.57950002  0.56639999
   0.30100000  0.42049998  0.43360001
   0.30100000  0.92049998  0.06639999
   0.69900000  0.07950002  0.93360001
   0.69859999  0.56629997  0.07959998
   0.30140001  0.43370003  0.92040002
   0.30140001  0.93370003  0.57959998
   0.69859999  0.06629997  0.42040002
   0.30140001  0.06629997  0.42040002
   0.69859999  0.93370003  0.57959998
   0.69859999  0.43370003  0.92040002
   0.30140001  0.56629997  0.07959998
   0.19859999  0.06629997  0.07959998
   0.80140001  0.93370003  0.92040002
   0.80140001  0.43370003  0.57959998
   0.19859999  0.56629997  0.42040002
   0.80140001  0.56629997  0.42040002
   0.19859999  0.43370003  0.57959998
   0.19859999  0.93370003  0.92040002
   0.80140001  0.06629997  0.07959998
   0.07280000  0.78549999  0.18230000
   0.92720002  0.21450001  0.81770003
   0.92720002  0.71450001  0.68229997
   0.07280000  0.28549999  0.31770000
   0.92720002  0.28549999  0.31770000
   0.07280000  0.71450001  0.68229997
   0.07280000  0.21450001  0.81770003
   0.92720002  0.78549999  0.18230000
   0.57279998  0.28549999  0.18230000
   0.42719999  0.71450001  0.81770003
   0.42719999  0.21450001  0.68229997
   0.57279998  0.78549999  0.31770000
   0.42719999  0.78549999  0.31770000
   0.57279998  0.21450001  0.68229997
   0.57279998  0.71450001  0.81770003
   0.42719999  0.28549999  0.18230000
   0.00000000  0.60589999  0.19920000
   0.00000000  0.39410001  0.80079997
   0.00000000  0.89410001  0.69920003
   0.00000000  0.10589999  0.30080000
   0.50000000  0.10589999  0.19920000
   0.50000000  0.89410001  0.80079997
   0.50000000  0.39410001  0.69920003
   0.50000000  0.60589999  0.30080000
   0.00000000  0.72960001  0.23029999
   0.00000000  0.27039999  0.76969999
   0.00000000  0.77039999  0.73030001
   0.00000000  0.22960001  0.26969999
   0.50000000  0.22960001  0.23029999
   0.50000000  0.77039999  0.76969999
   0.50000000  0.27039999  0.73030001
   0.50000000  0.72960001  0.26969999
   0.74980003  0.50000000  0.00000000
   0.25019997  0.50000000  0.00000000
   0.25019997  0.00000000  0.50000000
   0.74980003  0.00000000  0.50000000
   0.24980003  0.00000000  0.00000000
   0.75019997  0.00000000  0.00000000
   0.75019997  0.50000000  0.50000000
   0.24980003  0.50000000  0.50000000
Direct configuration=     2
   0.80487044  0.58539298  0.92880346
   0.19512956  0.41460702  0.07119654
   0.19512956  0.91460702  0.42880346
   0.80487044  0.08539298  0.57119654
   0.19512956  0.08539298  0.57119654
   0.80487044  0.91460702  0.42880346
   0.80487044  0.41460702  0.07119654
   0.19512956  0.58539298  0.92880346
   0.30487044  0.08539298  0.92880346
   0.69512956  0.91460702  0.07119654
   0.69512956  0.41460702  0.42880346
   0.30487044  0.58539298  0.57119654
   0.69512956  0.58539298  0.57119654
   0.30487044  0.41460702  0.42880346
   0.30487044  0.91460702  0.07119654
   0.69512956  0.08539298  0.92880346
   0.69474254  0.57127964  0.08544061
   0.30525746  0.42872036  0.91455939
   0.30525746  0.92872036  0.58544061
   0.69474254  0.07127964  0.41455939
   0.30525746  0.07127964  0.41455939
   0.69474254  0.92872036  0.58544061
   0.69474254  0.42872036  0.91455939
   0.30525746  0.57127964  0.08544061
   0.19474254  0.07127964  0.08544061
   0.80525746  0.92872036  0.91455939
   0.80525746  0.42872036  0.58544061
   0.19474254  0.57127964  0.41455939
   0.80525746  0.57127964  0.41455939
   0.19474254  0.42872036  0.58544061
   0.19474254  0.92872036  0.91455939
   0.80525746  0.07127964  0.08544061
   0.07866280  0.79059287  0.18402985
   0.92133722  0.20940713  0.81597018
   0.92133722  0.70940713  0.68402982
   0.07866280  0.29059287  0.31597015
   0.92133722  0.29059287  0.31597015
   0.07866280  0.70940713  0.68402982
   0.07866280  0.20940713  0.81597018
   0.92133722  0.79059287  0.18402985
   0.57866278  0.29059287  0.18402985
   0.42133719  0.70940713  0.81597018
   0.42133719  0.20940713  0.68402982
   0.57866278  0.79059287  0.31597015
   0.42133719  0.79059287  0.31597015
   0.57866278  0.20940713  0.68402982
   0.57866278  0.70940713  0.81597018
   0.42133719  0.29059287  0.18402985
   0.00000000  0.59649622  0.20237098
   0.00000000  0.40350378  0.79762899
   0.00000000  0.90350378  0.70237101
   0.00000000  0.09649622  0.29762902
   0.50000000  0.09649622  0.20237098
   0.50000000  0.90350378  0.79762899
   0.50000000  0.40350378  0.70237101
   0.50000000  0.59649622  0.29762902
   0.00000000  0.72910977  0.22359182
   0.00000000  0.27089023  0.77640817
   0.00000000  0.77089023  0.72359183
   0.00000000  0.22910977  0.27640817
   0.50000000  0.22910977  0.22359182
   0.50000000  0.77089023  0.77640817
   0.50000000  0.27089023  0.72359183
   0.50000000  0.72910977  0.27640817
   0.74975600  0.50000000 -0.00000000
   0.25024400  0.50000000 -0.00000000
   0.25024400 -0.00000000  0.50000000
   0.74975600 -0.00000000  0.50000000
   0.24975600  0.00000000 -0.00000000
   0.75024400 -0.00000000 -0.00000000
   0.75024400  0.50000000  0.50000000
   0.24975600  0.50000000  0.50000000
Direct configuration=     3
   0.80386862  0.58386766  0.93004499
   0.19613138  0.41613234  0.06995501
   0.19613138  0.91613234  0.43004499
   0.80386862  0.08386766  0.56995501
   0.19613138  0.08386766  0.56995501
   0.80386862  0.91613234  0.43004499
   0.80386862  0.41613234  0.06995501
   0.19613138  0.58386766  0.93004499
   0.30386862  0.08386766  0.93004499
   0.69613138  0.91613234  0.06995501
   0.69613138  0.41613234  0.43004499
   0.30386862  0.58386766  0.56995501
   0.69613138  0.58386766  0.56995501
   0.30386862  0.41613234  0.43004499
   0.30386862  0.91613234  0.06995501
   0.69613138  0.08386766  0.93004499
   0.69574100  0.56999071  0.08392884
   0.30425900  0.43000929  0.91607116
   0.30425900  0.93000929  0.58392884
   0.69574100  0.06999071  0.41607116
   0.30425900  0.06999071  0.41607116
   0.69574100  0.93000929  0.58392884
   0.69574100  0.43000929  0.91607116
   0.30425900  0.56999071  0.08392884
   0.19574100  0.06999071  0.08392884
   0.80425900  0.93000929  0.91607116
   0.80425900  0.43000929  0.58392884
   0.19574100  0.56999071  0.41607116
   0.80425900  0.56999071  0.41607116
   0.19574100  0.43000929  0.58392884
   0.19574100  0.93000929  0.91607116
   0.80425900  0.06999071  0.08392884
   0.07714529  0.78927464  0.18358210
   0.92285473  0.21072536  0.81641793
   0.92285473  0.71072536  0.68358207
   0.07714529  0.28927464  0.31641790
   0.92285473  0.28927464  0.31641790
   0.07714529  0.71072536  0.68358207
   0.07714529  0.21072536  0.81641793
   0.92285473  0.78927464  0.18358210
   0.57714527  0.28927464  0.18358210
   0.42285471  0.71072536  0.81641793
   0.42285471  0.21072536  0.68358207
   0.57714527  0.78927464  0.31641790
   0.42285471  0.78927464  0.31641790
   0.57714527  0.21072536  0.68358207
   0.57714527  0.71072536  0.81641793
   0.42285471  0.28927464  0.18358210
   0.00000000  0.59893027  0.20155021
   0.00000000  0.40106973  0.79844976
   0.00000000  0.90106973  0.70155024
   0.00000000  0.09893027  0.29844979
   0.50000000  0.09893027  0.20155021
   0.50000000  0.90106973  0.79844976
   0.50000000  0.40106973  0.70155024
   0.50000000  0.59893027  0.29844979
   0.00000000  0.72923666  0.22532815
   0.00000000  0.27076334  0.77467184
   0.00000000  0.77076334  0.72532816
   0.00000000  0.22923666  0.27467184
   0.50000000  0.22923666  0.22532815
   0.50000000  0.77076334  0.77467184
   0.50000000  0.27076334  0.72532816
   0.50000000  0.72923666  0.27467184
   0.74976739  0.50000000 -0.00000000
   0.25023261  0.50000000 -0.00000000
   0.25023261 -0.00000000  0.50000000
   0.74976739 -0.00000000  0.50000000
   0.24976739  0.00000000 -0.00000000
   0.75023261 -0.00000000 -0.00000000
   0.75023261  0.50000000  0.50000000
   0.24976739  0.50000000  0.50000000
Direct configuration=     4
   0.80379767  0.58362505  0.93040937
   0.19620233  0.41637495  0.06959063
   0.19620233  0.91637495  0.43040937
   0.80379767  0.08362505  0.56959063
   0.19620233  0.08362505  0.56959063
   0.80379767  0.91637495  0.43040937
   0.80379767  0.41637495  0.06959063
   0.19620233  0.58362505  0.93040937
   0.30379767  0.08362505  0.93040937
   0.69620233  0.91637495  0.06959063
   0.69620233  0.41637495  0.43040937
   0.30379767  0.58362505  0.56959063
   0.69620233  0.58362505  0.56959063
   0.30379767  0.41637495  0.43040937
   0.30379767  0.91637495  0.06959063
   0.69620233  0.08362505  0.93040937
   0.69580833  0.56987424  0.08362447
   0.30419167  0.43012576  0.91637553
   0.30419167  0.93012576  0.58362447
   0.69580833  0.06987424  0.41637553
   0.30419167  0.06987424  0.41637553
   0.69580833  0.93012576  0.58362447
   0.69580833  0.43012576  0.91637553
   0.30419167  0.56987424  0.08362447
   0.19580833  0.06987424  0.08362447
   0.80419167  0.93012576  0.91637553
   0.80419167  0.43012576  0.58362447
   0.19580833  0.56987424  0.41637553
   0.80419167  0.56987424  0.41637553
   0.19580833  0.43012576  0.58362447
   0.19580833  0.93012576  0.91637553
   0.80419167  0.06987424  0.08362447
   0.07853144  0.79083266  0.18702053
   0.92146858  0.20916734  0.81297949
   0.92146858  0.70916734  0.68702051
   0.07853144  0.29083266  0.31297947
   0.92146858  0.29083266  0.31297947
   0.07853144  0.70916734  0.68702051
   0.07853144  0.20916734  0.81297949
   0.92146858  0.79083266  0.18702053
   0.57853142  0.29083266  0.18702053
   0.42146855  0.70916734  0.81297949
   0.42146855  0.20916734  0.68702051
   0.57853142  0.79083266  0.31297947
   0.42146855  0.79083266  0.31297947
   0.57853142  0.20916734  0.68702051
   0.57853142  0.70916734  0.81297949
   0.42146855  0.29083266  0.18702053
   0.00000000  0.59712056  0.20542972
   0.00000000  0.40287944  0.79457025
   0.00000000  0.90287944  0.70542975
   0.00000000  0.09712056  0.29457028
   0.50000000  0.09712056  0.20542972
   0.50000000  0.90287944  0.79457025
   0.50000000  0.40287944  0.70542975
   0.50000000  0.59712056  0.29457028
   0.00000000  0.72826062  0.21439901
   0.00000000  0.27173938  0.78560098
   0.00000000  0.77173938  0.71439902
   0.00000000  0.22826062  0.28560098
   0.50000000  0.22826062  0.21439901
   0.50000000  0.77173938  0.78560098
   0.50000000  0.27173938  0.71439902
   0.50000000  0.72826062  0.28560098
   0.74974350  0.50000000 -0.00000000
   0.25025650  0.50000000 -0.00000000
   0.25025650 -0.00000000  0.50000000
   0.74974350 -0.00000000  0.50000000
   0.24974350 -0.00000000 -0.00000000
   0.75025650 -0.00000000  0.00000000
   0.75025650  0.50000000  0.50000000
   0.24974350  0.50000000  0.50000000
Direct configuration=     5
   0.80373710  0.58341792  0.93072046
   0.19626290  0.41658208  0.06927954
   0.19626290  0.91658208  0.43072046
   0.80373710  0.08341792  0.56927954
   0.19626290  0.08341792  0.56927954
   0.80373710  0.91658208  0.43072046
   0.80373710  0.41658208  0.06927954
   0.19626290  0.58341792  0.93072046
   0.30373710  0.08341792  0.93072046
   0.69626290  0.91658208  0.06927954
   0.69626290  0.41658208  0.43072046
   0.30373710  0.58341792  0.56927954
   0.69626290  0.58341792  0.56927954
   0.30373710  0.41658208  0.43072046
   0.30373710  0.91658208  0.06927954
   0.69626290  0.08341792  0.93072046
   0.69586581  0.56977481  0.08336461
   0.30413419  0.43022519  0.91663539
   0.30413419  0.93022519  0.58336461
   0.69586581  0.06977481  0.41663539
   0.30413419  0.06977481  0.41663539
   0.69586581  0.93022519  0.58336461
   0.69586581  0.43022519  0.91663539
   0.30413419  0.56977481  0.08336461
   0.19586581  0.06977481  0.08336461
   0.80413419  0.93022519  0.91663539
   0.80413419  0.43022519  0.58336461
   0.19586581  0.56977481  0.41663539
   0.80413419  0.56977481  0.41663539
   0.19586581  0.43022519  0.58336461
   0.19586581  0.93022519  0.91663539
   0.80413419  0.06977481  0.08336461
   0.07971488  0.79216282  0.18995611
   0.92028515  0.20783718  0.81004391
   0.92028515  0.70783718  0.68995609
   0.07971488  0.29216282  0.31004389
   0.92028515  0.29216282  0.31004389
   0.07971488  0.70783718  0.68995609
   0.07971488  0.20783718  0.81004391
   0.92028515  0.79216282  0.18995611
   0.57971485  0.29216282  0.18995611
   0.42028512  0.70783718  0.81004391
   0.42028512  0.20783718  0.68995609
   0.57971485  0.79216282  0.31004389
   0.42028512  0.79216282  0.31004389
   0.57971485  0.20783718  0.68995609
   0.57971485  0.70783718  0.81004391
   0.42028512  0.29216282  0.18995611
   0.00000000  0.59557551  0.20874187
   0.00000000  0.40442449  0.79125810
   0.00000000  0.90442449  0.70874190
   0.00000000  0.09557551  0.29125813
   0.50000000  0.09557551  0.20874187
   0.50000000  0.90442449  0.79125810
   0.50000000  0.40442449  0.70874190
   0.50000000  0.59557551  0.29125813
   0.00000000  0.72742731  0.20506820
   0.00000000  0.27257269  0.79493178
   0.00000000  0.77257269  0.70506822
   0.00000000  0.22742731  0.29493178
   0.50000000  0.22742731  0.20506820
   0.50000000  0.77257269  0.79493178
   0.50000000  0.27257269  0.70506822
   0.50000000  0.72742731  0.29493178
   0.74972311  0.50000000 -0.00000000
   0.25027689  0.50000000 -0.00000000
   0.25027689 -0.00000000  0.50000000
   0.74972311 -0.00000000  0.50000000
   0.24972311 -0.00000000 -0.00000000
   0.75027689 -0.00000000  0.00000000
   0.75027689  0.50000000  0.50000000
   0.24972311  0.50000000  0.50000000
Direct configuration=     6
   0.80371909  0.58335636  0.93081292
   0.19628091  0.41664364  0.06918708
   0.19628091  0.91664364  0.43081292
   0.80371909  0.08335636  0.56918708
   0.19628091  0.08335636  0.56918708
   0.80371909  0.91664364  0.43081292
   0.80371909  0.41664364  0.06918708
   0.19628091  0.58335636  0.93081292
   0.30371909  0.08335636  0.93081292
   0.69628091  0.91664364  0.06918708
   0.69628091  0.41664364  0.43081292
   0.30371909  0.58335636  0.56918708
   0.69628091  0.58335636  0.56918708
   0.30371909  0.41664364  0.43081292
   0.30371909  0.91664364  0.06918708
   0.69628091  0.08335636  0.93081292
   0.69588290  0.56974526  0.08328738
   0.30411710  0.43025474  0.91671262
   0.30411710  0.93025474  0.58328738
   0.69588290  0.06974526  0.41671262
   0.30411710  0.06974526  0.41671262
   0.69588290  0.93025474  0.58328738
   0.69588290  0.43025474  0.91671262
   0.30411710  0.56974526  0.08328738
   0.19588290  0.06974526  0.08328738
   0.80411710  0.93025474  0.91671262
   0.80411710  0.43025474  0.58328738
   0.19588290  0.56974526  0.41671262
   0.80411710  0.56974526  0.41671262
   0.19588290  0.43025474  0.58328738
   0.19588290  0.93025474  0.91671262
   0.80411710  0.06974526  0.08328738
   0.08006662  0.79255817  0.19082862
   0.91993341  0.20744183  0.80917140
   0.91993341  0.70744183  0.69082860
   0.08006662  0.29255817  0.30917138
   0.91993341  0.29255817  0.30917138
   0.08006662  0.70744183  0.69082860
   0.08006662  0.20744183  0.80917140
   0.91993341  0.79255817  0.19082862
   0.58006659  0.29255817  0.19082862
   0.41993338  0.70744183  0.80917140
   0.41993338  0.20744183  0.69082860
   0.58006659  0.79255817  0.30917138
   0.41993338  0.79255817  0.30917138
   0.58006659  0.20744183  0.69082860
   0.58006659  0.70744183  0.80917140
   0.41993338  0.29255817  0.19082862
   0.00000000  0.59511629  0.20972631
   0.00000000  0.40488371  0.79027366
   0.00000000  0.90488371  0.70972634
   0.00000000  0.09511629  0.29027369
   0.50000000  0.09511629  0.20972631
   0.50000000  0.90488371  0.79027366
   0.50000000  0.40488371  0.70972634
   0.50000000  0.59511629  0.29027369
   0.00000000  0.72717964  0.20229491
   0.00000000  0.27282036  0.79770508
   0.00000000  0.77282036  0.70229492
   0.00000000  0.22717964  0.29770508
   0.50000000  0.22717964  0.20229491
   0.50000000  0.77282036  0.79770508
   0.50000000  0.27282036  0.70229492
   0.50000000  0.72717964  0.29770508
   0.74971705  0.50000000 -0.00000000
   0.25028295  0.50000000 -0.00000000
   0.25028295 -0.00000000  0.50000000
   0.74971705 -0.00000000  0.50000000
   0.24971705 -0.00000000 -0.00000000
   0.75028295 -0.00000000  0.00000000
   0.75028295  0.50000000  0.50000000
   0.24971705  0.50000000  0.50000000
Direct configuration=     7
   0.80311661  0.58236878  0.93177059
   0.19688339  0.41763122  0.06822941
   0.19688339  0.91763122  0.43177059
   0.80311661  0.08236878  0.56822941
   0.19688339  0.08236878  0.56822941
   0.80311661  0.91763122  0.43177059
   0.80311661  0.41763122  0.06822941
   0.19688339  0.58236878  0.93177059
   0.30311661  0.08236878  0.93177059
   0.69688339  0.91763122  0.06822941
   0.69688339  0.41763122  0.43177059
   0.30311661  0.58236878  0.56822941
   0.69688339  0.58236878  0.56822941
   0.30311661  0.41763122  0.43177059
   0.30311661  0.91763122  0.06822941
   0.69688339  0.08236878  0.93177059
   0.69653634  0.56889097  0.08215892
   0.30346366  0.43110903  0.91784108
   0.30346366  0.93110903  0.58215892
   0.69653634  0.06889097  0.41784108
   0.30346366  0.06889097  0.41784108
   0.69653634  0.93110903  0.58215892
   0.69653634  0.43110903  0.91784108
   0.30346366  0.56889097  0.08215892
   0.19653634  0.06889097  0.08215892
   0.80346366  0.93110903  0.91784108
   0.80346366  0.43110903  0.58215892
   0.19653634  0.56889097  0.41784108
   0.80346366  0.56889097  0.41784108
   0.19653634  0.43110903  0.58215892
   0.19653634  0.93110903  0.91784108
   0.80346366  0.06889097  0.08215892
   0.07851416  0.79130364  0.19119657
   0.92148586  0.20869636  0.80880346
   0.92148586  0.70869636  0.69119654
   0.07851416  0.29130364  0.30880343
   0.92148586  0.29130364  0.30880343
   0.07851416  0.70869636  0.69119654
   0.07851416  0.20869636  0.80880346
   0.92148586  0.79130364  0.19119657
   0.57851414  0.29130364  0.19119657
   0.42148584  0.70869636  0.80880346
   0.42148584  0.20869636  0.69119654
   0.57851414  0.79130364  0.30880343
   0.42148584  0.79130364  0.30880343
   0.57851414  0.20869636  0.69119654
   0.57851414  0.70869636  0.80880346
   0.42148584  0.29130364  0.19119657
   0.00000000  0.59758781  0.20973196
   0.00000000  0.40241219  0.79026801
   0.00000000  0.90241219  0.70973199
   0.00000000  0.09758781  0.29026804
   0.50000000  0.09758781  0.20973196
   0.50000000  0.90241219  0.79026801
   0.50000000  0.40241219  0.70973199
   0.50000000  0.59758781  0.29026804
   0.00000000  0.72754736  0.20129478
   0.00000000  0.27245264  0.79870521
   0.00000000  0.77245264  0.70129479
   0.00000000  0.22754736  0.29870521
   0.50000000  0.22754736  0.20129478
   0.50000000  0.77245264  0.79870521
   0.50000000  0.27245264  0.70129479
   0.50000000  0.72754736  0.29870521
   0.74955293  0.50000000  0.00000000
   0.25044707  0.50000000  0.00000000
   0.25044707 -0.00000000  0.50000000
   0.74955293 -0.00000000  0.50000000
   0.24955293 -0.00000000  0.00000000
   0.75044707 -0.00000000  0.00000000
   0.75044707  0.50000000  0.50000000
   0.24955293  0.50000000  0.50000000
Direct configuration=     8
   0.80338733  0.58281254  0.93134027
   0.19661267  0.41718746  0.06865973
   0.19661267  0.91718746  0.43134027
   0.80338733  0.08281254  0.56865973
   0.19661267  0.08281254  0.56865973
   0.80338733  0.91718746  0.43134027
   0.80338733  0.41718746  0.06865973
   0.19661267  0.58281254  0.93134027
   0.30338733  0.08281254  0.93134027
   0.69661267  0.91718746  0.06865973
   0.69661267  0.41718746  0.43134027
   0.30338733  0.58281254  0.56865973
   0.69661267  0.58281254  0.56865973
   0.30338733  0.41718746  0.43134027
   0.30338733  0.91718746  0.06865973
   0.69661267  0.08281254  0.93134027
   0.69624272  0.56927483  0.08266598
   0.30375728  0.43072517  0.91733402
   0.30375728  0.93072517  0.58266598
   0.69624272  0.06927483  0.41733402
   0.30375728  0.06927483  0.41733402
   0.69624272  0.93072517  0.58266598
   0.69624272  0.43072517  0.91733402
   0.30375728  0.56927483  0.08266598
   0.19624272  0.06927483  0.08266598
   0.80375728  0.93072517  0.91733402
   0.80375728  0.43072517  0.58266598
   0.19624272  0.56927483  0.41733402
   0.80375728  0.56927483  0.41733402
   0.19624272  0.43072517  0.58266598
   0.19624272  0.93072517  0.91733402
   0.80375728  0.06927483  0.08266598
   0.07921174  0.79186735  0.19103124
   0.92078829  0.20813265  0.80896879
   0.92078829  0.70813265  0.69103121
   0.07921174  0.29186735  0.30896876
   0.92078829  0.29186735  0.30896876
   0.07921174  0.70813265  0.69103121
   0.07921174  0.20813265  0.80896879
   0.92078829  0.79186735  0.19103124
   0.57921171  0.29186735  0.19103124
   0.42078826  0.70813265  0.80896879
   0.42078826  0.20813265  0.69103121
   0.57921171  0.79186735  0.30896876
   0.42078826  0.79186735  0.30896876
   0.57921171  0.20813265  0.69103121
   0.57921171  0.70813265  0.80896879
   0.42078826  0.29186735  0.19103124
   0.00000000  0.59647726  0.20972942
   0.00000000  0.40352274  0.79027055
   0.00000000  0.90352274  0.70972945
   0.00000000  0.09647726  0.29027058
   0.50000000  0.09647726  0.20972942
   0.50000000  0.90352274  0.79027055
   0.50000000  0.40352274  0.70972945
   0.50000000  0.59647726  0.29027058
   0.00000000  0.72738213  0.20174417
   0.00000000  0.27261787  0.79825581
   0.00000000  0.77261787  0.70174419
   0.00000000  0.22738213  0.29825581
   0.50000000  0.22738213  0.20174417
   0.50000000  0.77261787  0.79825581
   0.50000000  0.27261787  0.70174419
   0.50000000  0.72738213  0.29825581
   0.74962668  0.50000000  0.00000000
   0.25037332  0.50000000  0.00000000
   0.25037332 -0.00000000  0.50000000
   0.74962668 -0.00000000  0.50000000
   0.24962668 -0.00000000  0.00000000
   0.75037332 -0.00000000  0.00000000
   0.75037332  0.50000000  0.50000000
   0.24962668  0.50000000  0.50000000
Direct configuration=     9
   0.80332989  0.58271282  0.93151840
   0.19667011  0.41728718  0.06848160
   0.19667011  0.91728718  0.43151840
   0.80332989  0.08271282  0.56848160
   0.19667011  0.08271282  0.56848160
   0.80332989  0.91728718  0.43151840
   0.80332989  0.41728718  0.06848160
   0.19667011  0.58271282  0.93151840
   0.30332989  0.08271282  0.93151840
   0.69667011  0.91728718  0.06848160
   0.69667011  0.41728718  0.43151840
   0.30332989  0.58271282  0.56848160
   0.69667011  0.58271282  0.56848160
   0.30332989  0.41728718  0.43151840
   0.30332989  0.91728718  0.06848160
   0.69667011  0.08271282  0.93151840
   0.69620841  0.56929070  0.08261952
   0.30379159  0.43070930  0.91738048
   0.30379159  0.93070930  0.58261952
   0.69620841  0.06929070  0.41738048
   0.30379159  0.06929070  0.41738048
   0.69620841  0.93070930  0.58261952
   0.69620841  0.43070930  0.91738048
   0.30379159  0.56929070  0.08261952
   0.19620841  0.06929070  0.08261952
   0.80379159  0.93070930  0.91738048
   0.80379159  0.43070930  0.58261952
   0.19620841  0.56929070  0.41738048
   0.80379159  0.56929070  0.41738048
   0.19620841  0.43070930  0.58261952
   0.19620841  0.93070930  0.91738048
   0.80379159  0.06929070  0.08261952
   0.07932865  0.79203449  0.19115613
   0.92067137  0.20796551  0.80884390
   0.92067137  0.70796551  0.69115610
   0.07932865  0.29203449  0.30884387
   0.92067137  0.29203449  0.30884387
   0.07932865  0.70796551  0.69115610
   0.07932865  0.20796551  0.80884390
   0.92067137  0.79203449  0.19115613
   0.57932863  0.29203449  0.19115613
   0.42067134  0.70796551  0.80884390
   0.42067134  0.20796551  0.69115610
   0.57932863  0.79203449  0.30884387
   0.42067134  0.79203449  0.30884387
   0.57932863  0.20796551  0.69115610
   0.57932863  0.70796551  0.80884390
   0.42067134  0.29203449  0.19115613
   0.00000000  0.59691450  0.20984596
   0.00000000  0.40308550  0.79015401
   0.00000000  0.90308550  0.70984599
   0.00000000  0.09691450  0.29015404
   0.50000000  0.09691450  0.20984596
   0.50000000  0.90308550  0.79015401
   0.50000000  0.40308550  0.70984599
   0.50000000  0.59691450  0.29015404
   0.00000000  0.72692626  0.20114601
   0.00000000  0.27307374  0.79885398
   0.00000000  0.77307374  0.70114602
   0.00000000  0.22692626  0.29885398
   0.50000000  0.22692626  0.20114601
   0.50000000  0.77307374  0.79885398
   0.50000000  0.27307374  0.70114602
   0.50000000  0.72692626  0.29885398
   0.74975157  0.50000000  0.00000000
   0.25024843  0.50000000  0.00000000
   0.25024843 -0.00000000  0.50000000
   0.74975157 -0.00000000  0.50000000
   0.24975157 -0.00000000  0.00000000
   0.75024843 -0.00000000  0.00000000
   0.75024843  0.50000000  0.50000000
   0.24975157  0.50000000  0.50000000
Direct configuration=    10
   0.80336220  0.58276891  0.93141820
   0.19663780  0.41723109  0.06858180
   0.19663780  0.91723109  0.43141820
   0.80336220  0.08276891  0.56858180
   0.19663780  0.08276891  0.56858180
   0.80336220  0.91723109  0.43141820
   0.80336220  0.41723109  0.06858180
   0.19663780  0.58276891  0.93141820
   0.30336220  0.08276891  0.93141820
   0.69663780  0.91723109  0.06858180
   0.69663780  0.41723109  0.43141820
   0.30336220  0.58276891  0.56858180
   0.69663780  0.58276891  0.56858180
   0.30336220  0.41723109  0.43141820
   0.30336220  0.91723109  0.06858180
   0.69663780  0.08276891  0.93141820
   0.69622771  0.56928178  0.08264565
   0.30377229  0.43071822  0.91735435
   0.30377229  0.93071822  0.58264565
   0.69622771  0.06928178  0.41735435
   0.30377229  0.06928178  0.41735435
   0.69622771  0.93071822  0.58264565
   0.69622771  0.43071822  0.91735435
   0.30377229  0.56928178  0.08264565
   0.19622771  0.06928178  0.08264565
   0.80377229  0.93071822  0.91735435
   0.80377229  0.43071822  0.58264565
   0.19622771  0.56928178  0.41735435
   0.80377229  0.56928178  0.41735435
   0.19622771  0.43071822  0.58264565
   0.19622771  0.93071822  0.91735435
   0.80377229  0.06928178  0.08264565
   0.07926289  0.79194047  0.19108588
   0.92073714  0.20805953  0.80891415
   0.92073714  0.70805953  0.69108585
   0.07926289  0.29194047  0.30891412
   0.92073714  0.29194047  0.30891412
   0.07926289  0.70805953  0.69108585
   0.07926289  0.20805953  0.80891415
   0.92073714  0.79194047  0.19108588
   0.57926286  0.29194047  0.19108588
   0.42073711  0.70805953  0.80891415
   0.42073711  0.20805953  0.69108585
   0.57926286  0.79194047  0.30891412
   0.42073711  0.79194047  0.30891412
   0.57926286  0.20805953  0.69108585
   0.57926286  0.70805953  0.80891415
   0.42073711  0.29194047  0.19108588
   0.00000000  0.59666856  0.20978041
   0.00000000  0.40333144  0.79021956
   0.00000000  0.90333144  0.70978044
   0.00000000  0.09666856  0.29021959
   0.50000000  0.09666856  0.20978041
   0.50000000  0.90333144  0.79021956
   0.50000000  0.40333144  0.70978044
   0.50000000  0.59666856  0.29021959
   0.00000000  0.72718269  0.20148248
   0.00000000  0.27281731  0.79851751
   0.00000000  0.77281731  0.70148249
   0.00000000  0.22718269  0.29851751
   0.50000000  0.22718269  0.20148248
   0.50000000  0.77281731  0.79851751
   0.50000000  0.27281731  0.70148249
   0.50000000  0.72718269  0.29851751
   0.74968132  0.50000000  0.00000000
   0.25031868  0.50000000  0.00000000
   0.25031868 -0.00000000  0.50000000
   0.74968132 -0.00000000  0.50000000
   0.24968132 -0.00000000  0.00000000
   0.75031868 -0.00000000  0.00000000
   0.75031868  0.50000000  0.50000000
   0.24968132  0.50000000  0.50000000
Direct configuration=    11
   0.80336542  0.58275838  0.93152415
   0.19663458  0.41724162  0.06847585
   0.19663458  0.91724162  0.43152415
   0.80336542  0.08275838  0.56847585
   0.19663458  0.08275838  0.56847585
   0.80336542  0.91724162  0.43152415
   0.80336542  0.41724162  0.06847585
   0.19663458  0.58275838  0.93152415
   0.30336542  0.08275838  0.93152415
   0.69663458  0.91724162  0.06847585
   0.69663458  0.41724162  0.43152415
   0.30336542  0.58275838  0.56847585
   0.69663458  0.58275838  0.56847585
   0.30336542  0.41724162  0.43152415
   0.30336542  0.91724162  0.06847585
   0.69663458  0.08275838  0.93152415
   0.69619931  0.56929511  0.08259960
   0.30380069  0.43070489  0.91740040
   0.30380069  0.93070489  0.58259960
   0.69619931  0.06929511  0.41740040
   0.30380069  0.06929511  0.41740040
   0.69619931  0.93070489  0.58259960
   0.69619931  0.43070489  0.91740040
   0.30380069  0.56929511  0.08259960
   0.19619931  0.06929511  0.08259960
   0.80380069  0.93070489  0.91740040
   0.80380069  0.43070489  0.58259960
   0.19619931  0.56929511  0.41740040
   0.80380069  0.56929511  0.41740040
   0.19619931  0.43070489  0.58259960
   0.19619931  0.93070489  0.91740040
   0.80380069  0.06929511  0.08259960
   0.07932282  0.79204426  0.19122292
   0.92067721  0.20795574  0.80877711
   0.92067721  0.70795574  0.69122289
   0.07932282  0.29204426  0.30877708
   0.92067721  0.29204426  0.30877708
   0.07932282  0.70795574  0.69122289
   0.07932282  0.20795574  0.80877711
   0.92067721  0.79204426  0.19122292
   0.57932279  0.29204426  0.19122292
   0.42067718  0.70795574  0.80877711
   0.42067718  0.20795574  0.69122289
   0.57932279  0.79204426  0.30877708
   0.42067718  0.79204426  0.30877708
   0.57932279  0.20795574  0.69122289
   0.57932279  0.70795574  0.80877711
   0.42067718  0.29204426  0.19122292
   0.00000000  0.59670758  0.20992284
   0.00000000  0.40329242  0.79007713
   0.00000000  0.90329242  0.70992287
   0.00000000  0.09670758  0.29007716
   0.50000000  0.09670758  0.20992284
   0.50000000  0.90329242  0.79007713
   0.50000000  0.40329242  0.70992287
   0.50000000  0.59670758  0.29007716