diamond                                 
           1
    11.861969    0.000000    0.000000
     0.000000    8.297066    0.000000
     0.000000    0.000000    8.291899
   H    C 
  64  16
Direct configuration=     1
   0.07280000  0.78549999  0.18230000
   0.92720002  0.21450001  0.81770003
   0.92720002  0.71450001  0.68229997
   0.07280000  0.28549999  0.31770000
   0.92720002  0.28549999  0.31770000
   0.07280000  0.71450001  0.68229997
   0.07280000  0.21450001  0.81770003
   0.92720002  0.78549999  0.18230000
   0.57279998  0.28549999  0.18230000
   0.42719999  0.71450001  0.81770003
   0.42719999  0.21450001  0.68229997
   0.57279998  0.78549999  0.31770000
   0.42719999  0.78549999  0.31770000
   0.57279998  0.21450001  0.68229997
   0.57279998  0.71450001  0.81770003
   0.42719999  0.28549999  0.18230000
   0.80100000  0.57950002  0.93360001
   0.19900000  0.42049998  0.06639999
   0.19900000  0.92049998  0.43360001
   0.80100000  0.07950002  0.56639999
   0.19900000  0.07950002  0.56639999
   0.80100000  0.92049998  0.43360001
   0.80100000  0.42049998  0.06639999
   0.19900000  0.57950002  0.93360001
   0.30100000  0.07950002  0.93360001
   0.69900000  0.92049998  0.06639999
   0.69900000  0.42049998  0.43360001
   0.30100000  0.57950002  0.56639999
   0.69900000  0.57950002  0.56639999
   0.30100000  0.42049998  0.43360001
   0.30100000  0.92049998  0.06639999
   0.69900000  0.07950002  0.93360001
   0.69859999  0.56629997  0.07959998
   0.30140001  0.43370003  0.92040002
   0.30140001  0.93370003  0.57959998
   0.69859999  0.06629997  0.42040002
   0.30140001  0.06629997  0.42040002
   0.69859999  0.93370003  0.57959998
   0.69859999  0.43370003  0.92040002
   0.30140001  0.56629997  0.07959998
   0.19859999  0.06629997  0.07959998
   0.80140001  0.93370003  0.92040002
   0.80140001  0.43370003  0.57959998
   0.19859999  0.56629997  0.42040002
   0.80140001  0.56629997  0.42040002
   0.19859999  0.43370003  0.57959998
   0.19859999  0.93370003  0.92040002
   0.80140001  0.06629997  0.07959998
   0.00000000  0.60589999  0.19920000
   0.00000000  0.39410001  0.80079997
   0.00000000  0.89410001  0.69920003
   0.00000000  0.10589999  0.30080000
   0.50000000  0.10589999  0.19920000
   0.50000000  0.89410001  0.80079997
   0.50000000  0.39410001  0.69920003
   0.50000000  0.60589999  0.30080000
   0.00000000  0.74159998  0.78549999
   0.00000000  0.25840002  0.21450001
   0.00000000  0.75840002  0.28549999
   0.00000000  0.24159998  0.71450001
   0.50000000  0.24159998  0.78549999
   0.50000000  0.75840002  0.21450001
   0.50000000  0.25840002  0.28549999
   0.50000000  0.74159998  0.71450001
   0.00000000  0.72960001  0.23029999
   0.00000000  0.27039999  0.76969999
   0.00000000  0.77039999  0.73030001
   0.00000000  0.22960001  0.26969999
   0.50000000  0.22960001  0.23029999
   0.50000000  0.77039999  0.76969999
   0.50000000  0.27039999  0.73030001
   0.50000000  0.72960001  0.26969999
   0.74980003  0.50000000  0.00000000
   0.25019997  0.50000000  0.00000000
   0.25019997  0.00000000  0.50000000
   0.74980003  0.00000000  0.50000000
   0.24980003  0.00000000  0.00000000
   0.75019997  0.00000000  0.00000000
   0.75019997  0.50000000  0.50000000
   0.24980003  0.50000000  0.50000000
Direct configuration=     2
   0.07659129  0.78713845  0.17306745
   0.92340873  0.21286155  0.82693258
   0.92340873  0.71286155  0.67306742
   0.07659129  0.28713845  0.32693255
   0.92340873  0.28713845  0.32693255
   0.07659129  0.71286155  0.67306742
   0.07659129  0.21286155  0.82693258
   0.92340873  0.78713845  0.17306745
   0.57659127  0.28713845  0.17306745
   0.42340871  0.71286155  0.82693258
   0.42340871  0.21286155  0.67306742
   0.57659127  0.78713845  0.32693255
   0.42340871  0.78713845  0.32693255
   0.57659127  0.21286155  0.67306742
   0.57659127  0.71286155  0.82693258
   0.42340871  0.28713845  0.17306745
   0.80479563  0.58539198  0.92875957
   0.19520437  0.41460802  0.07124043
   0.19520437  0.91460802  0.42875957
   0.80479563  0.08539198  0.57124043
   0.19520437  0.08539198  0.57124043
   0.80479563  0.91460802  0.42875957
   0.80479563  0.41460802  0.07124043
   0.19520437  0.58539198  0.92875957
   0.30479563  0.08539198  0.92875957
   0.69520437  0.91460802  0.07124043
   0.69520437  0.41460802  0.42875957
   0.30479563  0.58539198  0.57124043
   0.69520437  0.58539198  0.57124043
   0.30479563  0.41460802  0.42875957
   0.30479563  0.91460802  0.07124043
   0.69520437  0.08539198  0.92875957
   0.69481482  0.57120429  0.08542531
   0.30518518  0.42879571  0.91457469
   0.30518518  0.92879571  0.58542531
   0.69481482  0.07120429  0.41457469
   0.30518518  0.07120429  0.41457469
   0.69481482  0.92879571  0.58542531
   0.69481482  0.42879571  0.91457469
   0.30518518  0.57120429  0.08542531
   0.19481482  0.07120429  0.08542531
   0.80518518  0.92879571  0.91457469
   0.80518518  0.42879571  0.58542531
   0.19481482  0.57120429  0.41457469
   0.80518518  0.57120429  0.41457469
   0.19481482  0.42879571  0.58542531
   0.19481482  0.92879571  0.91457469
   0.80518518  0.07120429  0.08542531
   0.00000000  0.60102147  0.20276465
   0.00000000  0.39897853  0.79723532
   0.00000000  0.89897853  0.70276468
   0.00000000  0.10102147  0.29723535
   0.50000000  0.10102147  0.20276465
   0.50000000  0.89897853  0.79723532
   0.50000000  0.39897853  0.70276468
   0.50000000  0.60102147  0.29723535
   0.00000000  0.34994687  0.58701621
   0.00000000  0.65005313 -0.58701621
   0.00000000  0.15005313  0.08701621
   0.00000000 -0.15005313 -0.08701621
   0.50000000 -0.15005313  0.58701621
   0.50000000  0.15005313 -0.58701621
   0.50000000  0.65005313  0.08701621
   0.50000000  0.34994687 -0.08701621
   0.00000000  0.33954784 -0.55632852
   0.00000000  0.66045216  0.55632851
   0.00000000  0.16045216 -0.05632851
   0.00000000 -0.16045216  0.05632851
   0.50000000 -0.16045216 -0.55632852
   0.50000000  0.16045216  0.55632851
   0.50000000  0.66045216 -0.05632851
   0.50000000  0.33954784  0.05632851
   0.74979099  0.50000000  0.00000000
   0.25020901  0.50000000  0.00000000
   0.25020901  0.00000000  0.50000000
   0.74979099  0.00000000  0.50000000
   0.24979099  0.00000000  0.00000000
   0.75020901 -0.00000000  0.00000000
   0.75020901  0.50000000  0.50000000
   0.24979099  0.50000000  0.50000000
Direct configuration=     3
   0.07699182  0.78731154  0.17209208
   0.92300820  0.21268846  0.82790795
   0.92300820  0.71268846  0.67209205
   0.07699182  0.28731154  0.32790792
   0.92300820  0.28731154  0.32790792
   0.07699182  0.71268846  0.67209205
   0.07699182  0.21268846  0.82790795
   0.92300820  0.78731154  0.17209208
   0.57699180  0.28731154  0.17209208
   0.42300817  0.71268846  0.82790795
   0.42300817  0.21268846  0.67209205
   0.57699180  0.78731154  0.32790792
   0.42300817  0.78731154  0.32790792
   0.57699180  0.21268846  0.67209205
   0.57699180  0.71268846  0.82790795
   0.42300817  0.28731154  0.17209208
   0.80519662  0.58601444  0.92824820
   0.19480338  0.41398556  0.07175180
   0.19480338  0.91398556  0.42824820
   0.80519662  0.08601444  0.57175180
   0.19480338  0.08601444  0.57175180
   0.80519662  0.91398556  0.42824820
   0.80519662  0.41398556  0.07175180
   0.19480338  0.58601444  0.92824820
   0.30519662  0.08601444  0.92824820
   0.69480338  0.91398556  0.07175180
   0.69480338  0.41398556  0.42824820
   0.30519662  0.58601444  0.57175180
   0.69480338  0.58601444  0.57175180
   0.30519662  0.41398556  0.42824820
   0.30519662  0.91398556  0.07175180
   0.69480338  0.08601444  0.92824820
   0.69441493  0.57172241  0.08604073
   0.30558507  0.42827759  0.91395927
   0.30558507  0.92827759  0.58604073
   0.69441493  0.07172241  0.41395927
   0.30558507  0.07172241  0.41395927
   0.69441493  0.92827759  0.58604073
   0.69441493  0.42827759  0.91395927
   0.30558507  0.57172241  0.08604073
   0.19441493  0.07172241  0.08604073
   0.80558507  0.92827759  0.91395927
   0.80558507  0.42827759  0.58604073
   0.19441493  0.57172241  0.41395927
   0.80558507  0.57172241  0.41395927
   0.19441493  0.42827759  0.58604073
   0.19441493  0.92827759  0.91395927
   0.80558507  0.07172241  0.08604073
   0.00000000  0.60050608  0.20314124
   0.00000000  0.39949392  0.79685873
   0.00000000  0.89949392  0.70314127
   0.00000000  0.10050608  0.29685876
   0.50000000  0.10050608  0.20314124
   0.50000000  0.89949392  0.79685873
   0.50000000  0.39949392  0.70314127
   0.50000000  0.60050608  0.29685876
   0.00000000  0.30857060  0.67169255
   0.00000000  0.69142940 -0.67169255
   0.00000000  0.19142940  0.17169255
   0.00000000 -0.19142940 -0.17169255
   0.50000000 -0.19142940  0.67169255
   0.50000000  0.19142940 -0.67169255
   0.50000000  0.69142940  0.17169255
   0.50000000  0.30857060 -0.17169255
   0.00000000  0.29834070 -0.63943205
   0.00000000  0.70165930  0.63943203
   0.00000000  0.20165930 -0.13943203
   0.00000000 -0.20165930  0.13943203
   0.50000000 -0.20165930 -0.63943205
   0.50000000  0.20165930  0.63943203
   0.50000000  0.70165930 -0.13943203
   0.50000000  0.29834070  0.13943203
   0.74979004  0.50000000  0.00000000
   0.25020996  0.50000000  0.00000000
   0.25020996  0.00000000  0.50000000
   0.74979004  0.00000000  0.50000000
   0.24979004  0.00000000  0.00000000
   0.75020996 -0.00000000  0.00000000
   0.75020996  0.50000000  0.50000000
   0.24979004  0.50000000  0.50000000
Direct configuration=     4
   0.07701142  0.78732001  0.17204433
   0.92298860  0.21267999  0.82795570
   0.92298860  0.71267999  0.67204430
   0.07701142  0.28732001  0.32795567
   0.92298860  0.28732001  0.32795567
   0.07701142  0.71267999  0.67204430
   0.07701142  0.21267999  0.82795570
   0.92298860  0.78732001  0.17204433
   0.57701140  0.28732001  0.17204433
   0.42298857  0.71267999  0.82795570
   0.42298857  0.21267999  0.67204430
   0.57701140  0.78732001  0.32795567
   0.42298857  0.78732001  0.32795567
   0.57701140  0.21267999  0.67204430
   0.57701140  0.71267999  0.82795570
   0.42298857  0.28732001  0.17204433
   0.80521625  0.58604490  0.92822317
   0.19478375  0.41395510  0.07177683
   0.19478375  0.91395510  0.42822317
   0.80521625  0.08604490  0.57177683
   0.19478375  0.08604490  0.57177683
   0.80521625  0.91395510  0.42822317
   0.80521625  0.41395510  0.07177683
   0.19478375  0.58604490  0.92822317
   0.30521625  0.08604490  0.92822317
   0.69478375  0.91395510  0.07177683
   0.69478375  0.41395510  0.42822317
   0.30521625  0.58604490  0.57177683
   0.69478375  0.58604490  0.57177683
   0.30521625  0.41395510  0.42822317
   0.30521625  0.91395510  0.07177683
   0.69478375  0.08604490  0.92822317
   0.69439536  0.57174777  0.08607086
   0.30560464  0.42825223  0.91392914
   0.30560464  0.92825223  0.58607086
   0.69439536  0.07174777  0.41392914
   0.30560464  0.07174777  0.41392914
   0.69439536  0.92825223  0.58607086
   0.69439536  0.42825223  0.91392914
   0.30560464  0.57174777  0.08607086
   0.19439536  0.07174777  0.08607086
   0.80560464  0.92825223  0.91392914
   0.80560464  0.42825223  0.58607086
   0.19439536  0.57174777  0.41392914
   0.80560464  0.57174777  0.41392914
   0.19439536  0.42825223  0.58607086
   0.19439536  0.92825223  0.91392914
   0.80560464  0.07174777  0.08607086
   0.00000000  0.60048085  0.20315967
   0.00000000  0.39951915  0.79684030
   0.00000000  0.89951915  0.70315970
   0.00000000  0.10048085  0.29684033
   0.50000000  0.10048085  0.20315967
   0.50000000  0.89951915  0.79684030
   0.50000000  0.39951915  0.70315970
   0.50000000  0.60048085  0.29684033
   0.00000000  0.30654531  0.67583730
   0.00000000  0.69345469 -0.67583730
   0.00000000  0.19345469  0.17583730
   0.00000000 -0.19345469 -0.17583730
   0.50000000 -0.19345469  0.67583730
   0.50000000  0.19345469 -0.67583730
   0.50000000  0.69345469  0.17583730
   0.50000000  0.30654531 -0.17583730
   0.00000000  0.29632368 -0.64349981
   0.00000000  0.70367632  0.64349980
   0.00000000  0.20367632 -0.14349980
   0.00000000 -0.20367632  0.14349980
   0.50000000 -0.20367632 -0.64349981
   0.50000000  0.20367632  0.64349980
   0.50000000  0.70367632 -0.14349980
   0.50000000  0.29632368  0.14349980
   0.74978999  0.50000000  0.00000000
   0.25021001  0.50000000  0.00000000
   0.25021001  0.00000000  0.50000000
   0.74978999  0.00000000  0.50000000
   0.24978999  0.00000000  0.00000000
   0.75021001 -0.00000000  0.00000000
   0.75021001  0.50000000  0.50000000
   0.24978999  0.50000000  0.50000000
Direct configuration=     5
   0.07705063  0.78733696  0.17194885
   0.92294939  0.21266304  0.82805118
   0.92294939  0.71266304  0.67194882
   0.07705063  0.28733696  0.32805115
   0.92294939  0.28733696  0.32805115
   0.07705063  0.71266304  0.67194882
   0.07705063  0.21266304  0.82805118
   0.92294939  0.78733696  0.17194885
   0.57705061  0.28733696  0.17194885
   0.42294936  0.71266304  0.82805118
   0.42294936  0.21266304  0.67194882
   0.57705061  0.78733696  0.32805115
   0.42294936  0.78733696  0.32805115
   0.57705061  0.21266304  0.67194882
   0.57705061  0.71266304  0.82805118
   0.42294936  0.28733696  0.17194885
   0.80525550  0.58610584  0.92817311
   0.19474450  0.41389416  0.07182689
   0.19474450  0.91389416  0.42817311
   0.80525550  0.08610584  0.57182689
   0.19474450  0.08610584  0.57182689
   0.80525550  0.91389416  0.42817311
   0.80525550  0.41389416  0.07182689
   0.19474450  0.58610584  0.92817311
   0.30525550  0.08610584  0.92817311
   0.69474450  0.91389416  0.07182689
   0.69474450  0.41389416  0.42817311
   0.30525550  0.58610584  0.57182689
   0.69474450  0.58610584  0.57182689
   0.30525550  0.41389416  0.42817311
   0.30525550  0.91389416  0.07182689
   0.69474450  0.08610584  0.92817311
   0.69435621  0.57179849  0.08613110
   0.30564379  0.42820151  0.91386890
   0.30564379  0.92820151  0.58613110
   0.69435621  0.07179849  0.41386890
   0.30564379  0.07179849  0.41386890
   0.69435621  0.92820151  0.58613110
   0.69435621  0.42820151  0.91386890
   0.30564379  0.57179849  0.08613110
   0.19435621  0.07179849  0.08613110
   0.80564379  0.92820151  0.91386890
   0.80564379  0.42820151  0.58613110
   0.19435621  0.57179849  0.41386890
   0.80564379  0.57179849  0.41386890
   0.19435621  0.42820151  0.58613110
   0.19435621  0.92820151  0.91386890
   0.80564379  0.07179849  0.08613110
   0.00000000  0.60043039  0.20319654
   0.00000000  0.39956961  0.79680343
   0.00000000  0.89956961  0.70319657
   0.00000000  0.10043039  0.29680346
   0.50000000  0.10043039  0.20319654
   0.50000000  0.89956961  0.79680343
   0.50000000  0.39956961  0.70319657
   0.50000000  0.60043039  0.29680346
   0.00000000  0.30249472  0.68412680
   0.00000000  0.69750528 -0.68412680
   0.00000000  0.19750528  0.18412680
   0.00000000 -0.19750528 -0.18412680
   0.50000000 -0.19750528  0.68412680
   0.50000000  0.19750528 -0.68412680
   0.50000000  0.69750528  0.18412680
   0.50000000  0.30249472 -0.18412680
   0.00000000  0.29228966 -0.65163534
   0.00000000  0.70771034  0.65163533
   0.00000000  0.20771034 -0.15163533
   0.00000000 -0.20771034  0.15163533
   0.50000000 -0.20771034 -0.65163534
   0.50000000  0.20771034  0.65163533
   0.50000000  0.70771034 -0.15163533
   0.50000000  0.29228966  0.15163533
   0.74978990  0.50000000  0.00000000
   0.25021010  0.50000000  0.00000000
   0.25021010  0.00000000  0.50000000
   0.74978990  0.00000000  0.50000000
   0.24978990  0.00000000  0.00000000
   0.75021010 -0.00000000  0.00000000
   0.75021010  0.50000000  0.50000000
   0.24978990  0.50000000  0.50000000
Direct configuration=     6
   0.07712906  0.78737085  0.17175788
   0.92287097  0.21262915  0.82824215
   0.92287097  0.71262915  0.67175785
   0.07712906  0.28737085  0.32824212
   0.92287097  0.28737085  0.32824212
   0.07712906  0.71262915  0.67175785
   0.07712906  0.21262915  0.82824215
   0.92287097  0.78737085  0.17175788
   0.57712903  0.28737085  0.17175788
   0.42287094  0.71262915  0.82824215
   0.42287094  0.21262915  0.67175785
   0.57712903  0.78737085  0.32824212
   0.42287094  0.78737085  0.32824212
   0.57712903  0.21262915  0.67175785
   0.57712903  0.71262915  0.82824215
   0.42287094  0.28737085  0.17175788
   0.80533401  0.58622771  0.92807299
   0.19466599  0.41377229  0.07192701
   0.19466599  0.91377229  0.42807299
   0.80533401  0.08622771  0.57192701
   0.19466599  0.08622771  0.57192701
   0.80533401  0.91377229  0.42807299
   0.80533401  0.41377229  0.07192701
   0.19466599  0.58622771  0.92807299
   0.30533401  0.08622771  0.92807299
   0.69466599  0.91377229  0.07192701
   0.69466599  0.41377229  0.42807299
   0.30533401  0.58622771  0.57192701
   0.69466599  0.58622771  0.57192701
   0.30533401  0.41377229  0.42807299
   0.30533401  0.91377229  0.07192701
   0.69466599  0.08622771  0.92807299
   0.69427791  0.57189993  0.08625160
   0.30572209  0.42810007  0.91374840
   0.30572209  0.92810007  0.58625160
   0.69427791  0.07189993  0.41374840
   0.30572209  0.07189993  0.41374840
   0.69427791  0.92810007  0.58625160
   0.69427791  0.42810007  0.91374840
   0.30572209  0.57189993  0.08625160
   0.19427791  0.07189993  0.08625160
   0.80572209  0.92810007  0.91374840
   0.80572209  0.42810007  0.58625160
   0.19427791  0.57189993  0.41374840
   0.80572209  0.57189993  0.41374840
   0.19427791  0.42810007  0.58625160
   0.19427791  0.92810007  0.91374840
   0.80572209  0.07189993  0.08625160
   0.00000000  0.60032948  0.20327027
   0.00000000  0.39967052  0.79672970
   0.00000000  0.89967052  0.70327030
   0.00000000  0.10032948  0.29672973
   0.50000000  0.10032948  0.20327027
   0.50000000  0.89967052  0.79672970
   0.50000000  0.39967052  0.70327030
   0.50000000  0.60032948  0.29672973
   0.00000000  0.29439355  0.70070581
   0.00000000  0.70560645 -0.70070581
   0.00000000  0.20560645  0.20070581
   0.00000000 -0.20560645 -0.20070581
   0.50000000 -0.20560645  0.70070581
   0.50000000  0.20560645 -0.70070581
   0.50000000  0.70560645  0.20070581
   0.50000000  0.29439355 -0.20070581
   0.00000000  0.28422160 -0.66790640
   0.00000000  0.71577840  0.66790638
   0.00000000  0.21577840 -0.16790638
   0.00000000 -0.21577840  0.16790638
   0.50000000 -0.21577840 -0.66790640
   0.50000000  0.21577840  0.66790638
   0.50000000  0.71577840 -0.16790638
   0.50000000  0.28422160  0.16790638
   0.74978971  0.50000000  0.00000000
   0.25021029  0.50000000  0.00000000
   0.25021029  0.00000000  0.50000000
   0.74978971  0.00000000  0.50000000
   0.24978971  0.00000000  0.00000000
   0.75021029 -0.00000000  0.00000000
   0.75021029  0.50000000  0.50000000
   0.24978971  0.50000000  0.50000000
Direct configuration=     7
   0.07728590  0.78743863  0.17137593
   0.92271412  0.21256137  0.82862409
   0.92271412  0.71256137  0.67137591
   0.07728590  0.28743863  0.32862407
   0.92271412  0.28743863  0.32862407
   0.07728590  0.71256137  0.67137591
   0.07728590  0.21256137  0.82862409
   0.92271412  0.78743863  0.17137593
   0.57728588  0.28743863  0.17137593
   0.42271410  0.71256137  0.82862409
   0.42271410  0.21256137  0.67137591
   0.57728588  0.78743863  0.32862407
   0.42271410  0.78743863  0.32862407
   0.57728588  0.21256137  0.67137591
   0.57728588  0.71256137  0.82862409
   0.42271410  0.28743863  0.17137593
   0.80549104  0.58647146  0.92787274
   0.19450896  0.41352854  0.07212726
   0.19450896  0.91352854  0.42787274
   0.80549104  0.08647146  0.57212726
   0.19450896  0.08647146  0.57212726
   0.80549104  0.91352854  0.42787274
   0.80549104  0.41352854  0.07212726
   0.19450896  0.58647146  0.92787274
   0.30549104  0.08647146  0.92787274
   0.69450896  0.91352854  0.07212726
   0.69450896  0.41352854  0.42787274
   0.30549104  0.58647146  0.57212726
   0.69450896  0.58647146  0.57212726
   0.30549104  0.41352854  0.42787274
   0.30549104  0.91352854  0.07212726
   0.69450896  0.08647146  0.92787274
   0.69412133  0.57210282  0.08649259
   0.30587867  0.42789718  0.91350741
   0.30587867  0.92789718  0.58649259
   0.69412133  0.07210282  0.41350741
   0.30587867  0.07210282  0.41350741
   0.69412133  0.92789718  0.58649259
   0.69412133  0.42789718  0.91350741
   0.30587867  0.57210282  0.08649259
   0.19412133  0.07210282  0.08649259
   0.80587867  0.92789718  0.91350741
   0.80587867  0.42789718  0.58649259
   0.19412133  0.57210282  0.41350741
   0.80587867  0.57210282  0.41350741
   0.19412133  0.42789718  0.58649259
   0.19412133  0.92789718  0.91350741
   0.80587867  0.07210282  0.08649259
   0.00000000  0.60012766  0.20341774
   0.00000000  0.39987234  0.79658223
   0.00000000  0.89987234  0.70341777
   0.00000000  0.10012766  0.29658226
   0.50000000  0.10012766  0.20341774
   0.50000000  0.89987234  0.79658223
   0.50000000  0.39987234  0.70341777
   0.50000000  0.60012766  0.29658226
   0.00000000  0.27819122  0.73386381
   0.00000000  0.72180878 -0.73386381
   0.00000000  0.22180878  0.23386381
   0.00000000 -0.22180878 -0.23386381
   0.50000000 -0.22180878  0.73386381
   0.50000000  0.22180878 -0.73386381
   0.50000000  0.72180878  0.23386381
   0.50000000  0.27819122 -0.23386381
   0.00000000  0.26808550 -0.70044851
   0.00000000  0.73191450  0.70044850
   0.00000000  0.23191450 -0.20044850
   0.00000000 -0.23191450  0.20044850
   0.50000000 -0.23191450 -0.70044851
   0.50000000  0.23191450  0.70044850
   0.50000000  0.73191450 -0.20044850
   0.50000000  0.26808550  0.20044850
   0.74978934  0.50000000  0.00000000
   0.25021066  0.50000000  0.00000000
   0.25021066  0.00000000  0.50000000
   0.74978934  0.00000000  0.50000000
   0.24978934  0.00000000  0.00000000
   0.75021066 -0.00000000  0.00000000
   0.75021066  0.50000000  0.50000000
   0.24978934  0.50000000  0.50000000
Direct configuration=     8
   0.07713896  0.78737513  0.17173375
   0.92286106  0.21262487  0.82826628
   0.92286106  0.71262487  0.67173372
   0.07713896  0.28737513  0.32826625
   0.92286106  0.28737513  0.32826625
   0.07713896  0.71262487  0.67173372
   0.07713896  0.21262487  0.82826628
   0.92286106  0.78737513  0.17173375
   0.57713894  0.28737513  0.17173375
   0.42286103  0.71262487  0.82826628
   0.42286103  0.21262487  0.67173372
   0.57713894  0.78737513  0.32826625
   0.42286103  0.78737513  0.32826625
   0.57713894  0.21262487  0.67173372
   0.57713894  0.71262487  0.82826628
   0.42286103  0.28737513  0.17173375
   0.80534393  0.58624311  0.92806034
   0.19465607  0.41375689  0.07193966
   0.19465607  0.91375689  0.42806034
   0.80534393  0.08624311  0.57193966
   0.19465607  0.08624311  0.57193966
   0.80534393  0.91375689  0.42806034
   0.80534393  0.41375689  0.07193966
   0.19465607  0.58624311  0.92806034
   0.30534393  0.08624311  0.92806034
   0.69465607  0.91375689  0.07193966
   0.69465607  0.41375689  0.42806034
   0.30534393  0.58624311  0.57193966
   0.69465607  0.58624311  0.57193966
   0.30534393  0.41375689  0.42806034
   0.30534393  0.91375689  0.07193966
   0.69465607  0.08624311  0.92806034
   0.69426802  0.57191275  0.08626682
   0.30573198  0.42808725  0.91373318
   0.30573198  0.92808725  0.58626682
   0.69426802  0.07191275  0.41373318
   0.30573198  0.07191275  0.41373318
   0.69426802  0.92808725  0.58626682
   0.69426802  0.42808725  0.91373318
   0.30573198  0.57191275  0.08626682
   0.19426802  0.07191275  0.08626682
   0.80573198  0.92808725  0.91373318
   0.80573198  0.42808725  0.58626682
   0.19426802  0.57191275  0.41373318
   0.80573198  0.57191275  0.41373318
   0.19426802  0.42808725  0.58626682
   0.19426802  0.92808725  0.91373318
   0.80573198  0.07191275  0.08626682
   0.00000000  0.60031674  0.20327958
   0.00000000  0.39968326  0.79672039
   0.00000000  0.89968326  0.70327961
   0.00000000  0.10031674  0.29672042
   0.50000000  0.10031674  0.20327958
   0.50000000  0.89968326  0.79672039
   0.50000000  0.39968326  0.70327961
   0.50000000  0.60031674  0.29672042
   0.00000000  0.29337023  0.70280003
   0.00000000  0.70662977 -0.70280003
   0.00000000  0.20662977  0.20280003
   0.00000000 -0.20662977 -0.20280003
   0.50000000 -0.20662977  0.70280003
   0.50000000  0.20662977 -0.70280003
   0.50000000  0.70662977  0.20280003
   0.50000000  0.29337023 -0.20280003
   0.00000000  0.28320246 -0.66996173
   0.00000000  0.71679754  0.66996171
   0.00000000  0.21679754 -0.16996171
   0.00000000 -0.21679754  0.16996171
   0.50000000 -0.21679754 -0.66996173
   0.50000000  0.21679754  0.66996171
   0.50000000  0.71679754 -0.16996171
   0.50000000  0.28320246  0.16996171
   0.74978969  0.50000000  0.00000000
   0.25021031  0.50000000  0.00000000
   0.25021031  0.00000000  0.50000000
   0.74978969  0.00000000  0.50000000
   0.24978969  0.00000000  0.00000000
   0.75021031 -0.00000000  0.00000000
   0.75021031  0.50000000  0.50000000
   0.24978969  0.50000000  0.50000000
Direct configuration=     9
   0.07721243  0.78740688  0.17155484
   0.92278759  0.21259312  0.82844519
   0.92278759  0.71259312  0.67155481
   0.07721243  0.28740688  0.32844516
   0.92278759  0.28740688  0.32844516
   0.07721243  0.71259312  0.67155481
   0.07721243  0.21259312  0.82844519
   0.92278759  0.78740688  0.17155484
   0.57721241  0.28740688  0.17155484
   0.42278756  0.71259312  0.82844519
   0.42278756  0.21259312  0.67155481
   0.57721241  0.78740688  0.32844516
   0.42278756  0.78740688  0.32844516
   0.57721241  0.21259312  0.67155481
   0.57721241  0.71259312  0.82844519
   0.42278756  0.28740688  0.17155484
   0.80541748  0.58635728  0.92796654
   0.19458252  0.41364272  0.07203346
   0.19458252  0.91364272  0.42796654
   0.80541748  0.08635728  0.57203346
   0.19458252  0.08635728  0.57203346
   0.80541748  0.91364272  0.42796654
   0.80541748  0.41364272  0.07203346
   0.19458252  0.58635728  0.92796654
   0.30541748  0.08635728  0.92796654
   0.69458252  0.91364272  0.07203346
   0.69458252  0.41364272  0.42796654
   0.30541748  0.58635728  0.57203346
   0.69458252  0.58635728  0.57203346
   0.30541748  0.41364272  0.42796654
   0.30541748  0.91364272  0.07203346
   0.69458252  0.08635728  0.92796654
   0.69419467  0.57200778  0.08637970
   0.30580533  0.42799222  0.91362030
   0.30580533  0.92799222  0.58637970
   0.69419467  0.07200778  0.41362030
   0.30580533  0.07200778  0.41362030
   0.69419467  0.92799222  0.58637970
   0.69419467  0.42799222  0.91362030
   0.30580533  0.57200778  0.08637970
   0.19419467  0.07200778  0.08637970
   0.80580533  0.92799222  0.91362030
   0.80580533  0.42799222  0.58637970
   0.19419467  0.57200778  0.41362030
   0.80580533  0.57200778  0.41362030
   0.19419467  0.42799222  0.58637970
   0.19419467  0.92799222  0.91362030
   0.80580533  0.07200778  0.08637970
   0.00000000  0.60022220  0.20334866
   0.00000000  0.39977780  0.79665131
   0.00000000  0.89977780  0.70334869
   0.00000000  0.10022220  0.29665134
   0.50000000  0.10022220  0.20334866
   0.50000000  0.89977780  0.79665131
   0.50000000  0.39977780  0.70334869
   0.50000000  0.60022220  0.29665134
   0.00000000  0.28578072  0.71833192
   0.00000000  0.71421928 -0.71833192
   0.00000000  0.21421928  0.21833192
   0.00000000 -0.21421928 -0.21833192
   0.50000000 -0.21421928  0.71833192
   0.50000000  0.21421928 -0.71833192
   0.50000000  0.71421928  0.21833192
   0.50000000  0.28578072 -0.21833192
   0.00000000  0.27564398 -0.68520512
   0.00000000  0.72435602  0.68520511
   0.00000000  0.22435602 -0.18520511
   0.00000000 -0.22435602  0.18520511
   0.50000000 -0.22435602 -0.68520512
   0.50000000  0.22435602  0.68520511
   0.50000000  0.72435602 -0.18520511
   0.50000000  0.27564398  0.18520511
   0.74978951  0.50000000  0.00000000
   0.25021049  0.50000000  0.00000000
   0.25021049  0.00000000  0.50000000
   0.74978951  0.00000000  0.50000000
   0.24978951  0.00000000  0.00000000
   0.75021049 -0.00000000  0.00000000
   0.75021049  0.50000000  0.50000000
   0.24978951  0.50000000  0.50000000
Direct configuration=    10
   0.07717190  0.78738936  0.17165355
   0.92282812  0.21261064  0.82834648
   0.92282812  0.71261064  0.67165352
   0.07717190  0.28738936  0.32834645
   0.92282812  0.28738936  0.32834645
   0.07717190  0.71261064  0.67165352
   0.07717190  0.21261064  0.82834648
   0.92282812  0.78738936  0.17165355
   0.57717188  0.28738936  0.17165355
   0.42282810  0.71261064  0.82834648
   0.42282810  0.21261064  0.67165352
   0.57717188  0.78738936  0.32834645
   0.42282810  0.78738936  0.32834645
   0.57717188  0.21261064  0.67165352
   0.57717188  0.71261064  0.82834648
   0.42282810  0.28738936  0.17165355
   0.80537690  0.58629429  0.92801829
   0.19462310  0.41370571  0.07198171
   0.19462310  0.91370571  0.42801829
   0.80537690  0.08629429  0.57198171
   0.19462310  0.08629429  0.57198171
   0.80537690  0.91370571  0.42801829
   0.80537690  0.41370571  0.07198171
   0.19462310  0.58629429  0.92801829
   0.30537690  0.08629429  0.92801829
   0.69462310  0.91370571  0.07198171
   0.69462310  0.41370571  0.42801829
   0.30537690  0.58629429  0.57198171
   0.69462310  0.58629429  0.57198171
   0.30537690  0.41370571  0.42801829
   0.30537690  0.91370571  0.07198171
   0.69462310  0.08629429  0.92801829
   0.69423514  0.57195535  0.08631743
   0.30576486  0.42804465  0.91368257
   0.30576486  0.92804465  0.58631743
   0.69423514  0.07195535  0.41368257
   0.30576486  0.07195535  0.41368257
   0.69423514  0.92804465  0.58631743
   0.69423514  0.42804465  0.91368257
   0.30576486  0.57195535  0.08631743
   0.19423514  0.07195535  0.08631743
   0.80576486  0.92804465  0.91368257
   0.80576486  0.42804465  0.58631743
   0.19423514  0.57195535  0.41368257
   0.80576486  0.57195535  0.41368257
   0.19423514  0.42804465  0.58631743
   0.19423514  0.92804465  0.91368257
   0.80576486  0.07195535  0.08631743
   0.00000000  0.60027436  0.20331055
   0.00000000  0.39972564  0.79668942
   0.00000000  0.89972564  0.70331058
   0.00000000  0.10027436  0.29668945
   0.50000000  0.10027436  0.20331055
   0.50000000  0.89972564  0.79668942
   0.50000000  0.39972564  0.70331058
   0.50000000  0.60027436  0.29668945
   0.00000000  0.28996788  0.70976293