  32  32   0   0
  0.6647258E+01  0.4934311E-09  0.4934311E-09  0.1008861E-08  0.5000000E-15
  1.000000000000000E-004
  CAR 
 graphite                                
     19.06156503    -14.37040001  301      7.60473165      1.00000000
    -14.370  0.0000E+00  0.0000E+00
    -14.259  0.0000E+00  0.0000E+00
    -14.148  0.0000E+00  0.0000E+00
    -14.036  0.0000E+00  0.0000E+00
    -13.925  0.0000E+00  0.0000E+00
    -13.813  0.0000E+00  0.0000E+00
    -13.702  0.0000E+00  0.0000E+00
    -13.590  0.0000E+00  0.0000E+00
    -13.479  0.0000E+00  0.0000E+00
    -13.367  0.7607E-14  0.8477E-15
    -13.256  0.2827E-09  0.3151E-10
    -13.145  0.9762E-06  0.1088E-06
    -13.033  0.3645E-03  0.4073E-04
    -12.922  0.2035E-01  0.2309E-02
    -12.810  0.2382E+00  0.2885E-01
    -12.699  0.7066E+00  0.1076E+00
    -12.587  0.1144E+01  0.2351E+00
    -12.476  0.1507E+01  0.4030E+00
    -12.364  0.1476E+01  0.5674E+00
    -12.253  0.2144E+01  0.8063E+00
    -12.142  0.2121E+01  0.1043E+01
    -12.030  0.2235E+01  0.1292E+01
    -11.919  0.2163E+01  0.1533E+01
    -11.807  0.3207E+01  0.1890E+01
    -11.696  0.2996E+01  0.2224E+01
    -11.584  0.2673E+01  0.2522E+01
    -11.473  0.2919E+01  0.2847E+01
    -11.362  0.3915E+01  0.3284E+01
    -11.250  0.3457E+01  0.3669E+01
    -11.139  0.4280E+01  0.4146E+01
    -11.027  0.4220E+01  0.4616E+01
    -10.916  0.3743E+01  0.5033E+01
    -10.804  0.4503E+01  0.5535E+01
    -10.693  0.5853E+01  0.6187E+01
    -10.581  0.4849E+01  0.6728E+01
    -10.470  0.5345E+01  0.7323E+01
    -10.359  0.4956E+01  0.7876E+01
    -10.247  0.4284E+01  0.8353E+01
    -10.136  0.4333E+01  0.8836E+01
    -10.024  0.5736E+01  0.9475E+01
     -9.913  0.5427E+01  0.1008E+02
     -9.801  0.4958E+01  0.1063E+02
     -9.690  0.5133E+01  0.1120E+02
     -9.578  0.5286E+01  0.1179E+02
     -9.467  0.4697E+01  0.1232E+02
     -9.356  0.4343E+01  0.1280E+02
     -9.244  0.4452E+01  0.1330E+02
     -9.133  0.5765E+01  0.1394E+02
     -9.021  0.6063E+01  0.1462E+02
     -8.910  0.5601E+01  0.1524E+02
     -8.798  0.5146E+01  0.1581E+02
     -8.687  0.3978E+01  0.1626E+02
     -8.576  0.4699E+01  0.1678E+02
     -8.464  0.5505E+01  0.1739E+02
     -8.353  0.4536E+01  0.1790E+02
     -8.241  0.6101E+01  0.1858E+02
     -8.130  0.5940E+01  0.1924E+02
     -8.018  0.4748E+01  0.1977E+02
     -7.907  0.6172E+01  0.2046E+02
     -7.795  0.4725E+01  0.2098E+02
     -7.684  0.4767E+01  0.2152E+02
     -7.573  0.5836E+01  0.2217E+02
     -7.461  0.5127E+01  0.2274E+02
     -7.350  0.5349E+01  0.2333E+02
     -7.238  0.5986E+01  0.2400E+02
     -7.127  0.6303E+01  0.2470E+02
     -7.015  0.6253E+01  0.2540E+02
     -6.904  0.6207E+01  0.2609E+02
     -6.792  0.5068E+01  0.2666E+02
     -6.681  0.6117E+01  0.2734E+02
     -6.570  0.5005E+01  0.2790E+02
     -6.458  0.6347E+01  0.2860E+02
     -6.347  0.5721E+01  0.2924E+02
     -6.235  0.3683E+01  0.2965E+02
     -6.124  0.3949E+01  0.3009E+02
     -6.012  0.4162E+01  0.3055E+02
     -5.901  0.3448E+01  0.3094E+02
     -5.790  0.2467E+01  0.3121E+02
     -5.678  0.1871E+01  0.3142E+02
     -5.567  0.3897E+01  0.3186E+02
     -5.455  0.4626E+01  0.3237E+02
     -5.344  0.4467E+01  0.3287E+02
     -5.232  0.5494E+01  0.3348E+02
     -5.121  0.5827E+01  0.3413E+02
     -5.009  0.6193E+01  0.3482E+02
     -4.898  0.5152E+01  0.3540E+02
     -4.787  0.5494E+01  0.3601E+02
     -4.675  0.7247E+01  0.3682E+02
     -4.564  0.7740E+01  0.3768E+02
     -4.452  0.5913E+01  0.3834E+02
     -4.341  0.5879E+01  0.3899E+02
     -4.229  0.5967E+01  0.3966E+02
     -4.118  0.5932E+01  0.4032E+02
     -4.006  0.5276E+01  0.4091E+02
     -3.895  0.4800E+01  0.4144E+02
     -3.784  0.5101E+01  0.4201E+02
     -3.672  0.4864E+01  0.4255E+02
     -3.561  0.4918E+01  0.4310E+02
     -3.449  0.5394E+01  0.4370E+02
     -3.338  0.4474E+01  0.4420E+02
     -3.226  0.4237E+01  0.4467E+02
     -3.115  0.4164E+01  0.4514E+02
     -3.004  0.4015E+01  0.4558E+02
     -2.892  0.5310E+01  0.4617E+02
     -2.781  0.5846E+01  0.4683E+02
     -2.669  0.6642E+01  0.4757E+02
     -2.558  0.5444E+01  0.4817E+02
     -2.446  0.4833E+01  0.4871E+02
     -2.335  0.6101E+01  0.4939E+02
     -2.223  0.6390E+01  0.5010E+02
     -2.112  0.7998E+01  0.5099E+02
     -2.001  0.7570E+01  0.5184E+02
     -1.889  0.5865E+01  0.5249E+02
     -1.778  0.6686E+01  0.5324E+02
     -1.666  0.6968E+01  0.5401E+02
     -1.555  0.7325E+01  0.5483E+02
     -1.443  0.7467E+01  0.5566E+02
     -1.332  0.8045E+01  0.5656E+02
     -1.220  0.7514E+01  0.5740E+02
     -1.109  0.6343E+01  0.5810E+02
     -0.998  0.7229E+01  0.5891E+02
     -0.886  0.8618E+01  0.5987E+02
     -0.775  0.9415E+01  0.6092E+02
     -0.663  0.8918E+01  0.6191E+02
     -0.552  0.7521E+01  0.6275E+02
     -0.440  0.6561E+01  0.6348E+02
     -0.329  0.7792E+01  0.6435E+02
     -0.218  0.1040E+02  0.6551E+02
     -0.106  0.1140E+02  0.6678E+02
      0.005  0.9371E+01  0.6782E+02
      0.117  0.8420E+01  0.6876E+02
      0.228  0.7334E+01  0.6958E+02
      0.340  0.9962E+01  0.7069E+02
      0.451  0.9275E+01  0.7172E+02
      0.563  0.1012E+02  0.7285E+02
      0.674  0.1257E+02  0.7425E+02
      0.785  0.1376E+02  0.7578E+02
      0.897  0.1263E+02  0.7719E+02
      1.008  0.1244E+02  0.7858E+02
      1.120  0.1077E+02  0.7978E+02
      1.231  0.1229E+02  0.8115E+02
      1.343  0.1720E+02  0.8307E+02
      1.454  0.1442E+02  0.8467E+02
      1.566  0.1152E+02  0.8596E+02
      1.677  0.1198E+02  0.8729E+02
      1.788  0.1336E+02  0.8878E+02
      1.900  0.1163E+02  0.9008E+02
      2.011  0.9326E+01  0.9112E+02
      2.123  0.1219E+02  0.9247E+02
      2.234  0.1080E+02  0.9368E+02
      2.346  0.8933E+01  0.9467E+02
      2.457  0.8088E+01  0.9557E+02
      2.568  0.7867E+01  0.9645E+02
      2.680  0.9996E+01  0.9756E+02
      2.791  0.9504E+01  0.9862E+02
      2.903  0.1094E+02  0.9984E+02
      3.014  0.9981E+01  0.1010E+03
      3.126  0.8927E+01  0.1019E+03
      3.237  0.8542E+01  0.1029E+03
      3.349  0.8219E+01  0.1038E+03
      3.460  0.7881E+01  0.1047E+03
      3.571  0.7674E+01  0.1056E+03
      3.683  0.1062E+02  0.1067E+03
      3.794  0.1186E+02  0.1081E+03
      3.906  0.9344E+01  0.1091E+03
      4.017  0.5869E+01  0.1098E+03
      4.129  0.6946E+01  0.1105E+03
      4.240  0.1004E+02  0.1116E+03
      4.352  0.1049E+02  0.1128E+03
      4.463  0.8757E+01  0.1138E+03
      4.574  0.7472E+01  0.1146E+03
      4.686  0.6024E+01  0.1153E+03
      4.797  0.4342E+01  0.1158E+03
      4.909  0.3307E+01  0.1161E+03
      5.020  0.5047E+01  0.1167E+03
      5.132  0.6505E+01  0.1174E+03
      5.243  0.5095E+01  0.1180E+03
      5.354  0.4962E+01  0.1186E+03
      5.466  0.4305E+01  0.1190E+03
      5.577  0.4316E+01  0.1195E+03
      5.689  0.5375E+01  0.1201E+03
      5.800  0.5452E+01  0.1207E+03
      5.912  0.7258E+01  0.1215E+03
      6.023  0.7720E+01  0.1224E+03
      6.135  0.7258E+01  0.1232E+03
      6.246  0.7034E+01  0.1240E+03
      6.357  0.5573E+01  0.1246E+03
      6.469  0.3382E+01  0.1250E+03
      6.580  0.3445E+01  0.1254E+03
      6.692  0.4359E+01  0.1259E+03
      6.803  0.4770E+01  0.1264E+03
      6.915  0.3930E+01  0.1268E+03
      7.026  0.2689E+01  0.1271E+03
      7.137  0.1516E+01  0.1273E+03
      7.249  0.2788E+01  0.1276E+03
      7.360  0.1941E+01  0.1278E+03
      7.472  0.7033E+00  0.1279E+03
      7.583  0.7572E+00  0.1280E+03
      7.695  0.8957E+00  0.1281E+03
      7.806  0.3092E+00  0.1281E+03
      7.918  0.5830E+00  0.1282E+03
      8.029  0.1839E+01  0.1284E+03
      8.140  0.1883E+01  0.1286E+03
      8.252  0.1117E+01  0.1287E+03
      8.363  0.4314E+00  0.1288E+03
      8.475  0.9775E+00  0.1289E+03
      8.586  0.8043E+00  0.1290E+03
      8.698  0.7505E+00  0.1290E+03
      8.809  0.2732E+01  0.1294E+03
      8.921  0.3352E+01  0.1297E+03
      9.032  0.3277E+01  0.1301E+03
      9.143  0.3743E+01  0.1305E+03
      9.255  0.4667E+01  0.1310E+03
      9.366  0.6493E+01  0.1318E+03
      9.478  0.6085E+01  0.1324E+03
      9.589  0.4715E+01  0.1330E+03
      9.701  0.6880E+01  0.1337E+03
      9.812  0.8161E+01  0.1346E+03
      9.923  0.6217E+01  0.1353E+03
     10.035  0.5305E+01  0.1359E+03
     10.146  0.4927E+01  0.1365E+03
     10.258  0.4845E+01  0.1370E+03
     10.369  0.7238E+01  0.1378E+03
     10.481  0.5667E+01  0.1384E+03
     10.592  0.4759E+01  0.1390E+03
     10.704  0.4100E+01  0.1394E+03
     10.815  0.4744E+01  0.1400E+03
     10.926  0.4980E+01  0.1405E+03
     11.038  0.5203E+01  0.1411E+03
     11.149  0.4428E+01  0.1416E+03
     11.261  0.3998E+01  0.1420E+03
     11.372  0.3887E+01  0.1425E+03
     11.484  0.3973E+01  0.1429E+03
     11.595  0.4819E+01  0.1434E+03
     11.707  0.5075E+01  0.1440E+03
     11.818  0.3258E+01  0.1444E+03
     11.929  0.2164E+01  0.1446E+03
     12.041  0.2505E+01  0.1449E+03
     12.152  0.4077E+01  0.1453E+03
     12.264  0.3598E+01  0.1457E+03
     12.375  0.2653E+01  0.1460E+03
     12.487  0.4275E+01  0.1465E+03
     12.598  0.3824E+01  0.1469E+03
     12.709  0.3505E+01  0.1473E+03
     12.821  0.3215E+01  0.1477E+03
     12.932  0.3304E+01  0.1481E+03
     13.044  0.2684E+01  0.1484E+03
     13.155  0.1707E+01  0.1486E+03
     13.267  0.2325E+01  0.1488E+03
     13.378  0.2649E+01  0.1491E+03
     13.490  0.3912E+01  0.1495E+03
     13.601  0.4406E+01  0.1500E+03
     13.712  0.2925E+01  0.1504E+03
     13.824  0.1633E+01  0.1505E+03
     13.935  0.3450E+01  0.1509E+03
     14.047  0.4151E+01  0.1514E+03
     14.158  0.3573E+01  0.1518E+03
     14.270  0.4585E+01  0.1523E+03
     14.381  0.5956E+01  0.1530E+03
     14.493  0.5291E+01  0.1536E+03
     14.604  0.5437E+01  0.1542E+03
     14.715  0.6188E+01  0.1548E+03
     14.827  0.4716E+01  0.1554E+03
     14.938  0.5547E+01  0.1560E+03
     15.050  0.6963E+01  0.1568E+03
     15.161  0.7158E+01  0.1576E+03
     15.273  0.8034E+01  0.1585E+03
     15.384  0.8155E+01  0.1594E+03
     15.495  0.7619E+01  0.1602E+03
     15.607  0.7667E+01  0.1611E+03
     15.718  0.1038E+02  0.1622E+03
     15.830  0.1140E+02  0.1635E+03
     15.941  0.9400E+01  0.1645E+03
     16.053  0.6191E+01  0.1652E+03
     16.164  0.4263E+01  0.1657E+03
     16.276  0.5799E+01  0.1664E+03
     16.387  0.4591E+01  0.1669E+03
     16.498  0.2665E+01  0.1672E+03
     16.610  0.2333E+01  0.1674E+03
     16.721  0.7973E+00  0.1675E+03
     16.833  0.8946E+00  0.1676E+03
     16.944  0.1230E+01  0.1678E+03
     17.056  0.8006E+00  0.1678E+03
     17.167  0.5926E+00  0.1679E+03
     17.279  0.3450E+00  0.1679E+03
     17.390  0.1571E+00  0.1680E+03
     17.501  0.1328E+00  0.1680E+03
     17.613  0.1610E+00  0.1680E+03
     17.724  0.3286E-01  0.1680E+03
     17.836  0.8796E-03  0.1680E+03
     17.947  0.2557E-05  0.1680E+03
     18.059  0.7183E-09  0.1680E+03
     18.170  0.1840E-13  0.1680E+03
     18.281  0.0000E+00  0.1680E+03
     18.393  0.0000E+00  0.1680E+03
     18.504  0.0000E+00  0.1680E+03
     18.616  0.0000E+00  0.1680E+03
     18.727  0.0000E+00  0.1680E+03
     18.839  0.0000E+00  0.1680E+03
     18.950  0.0000E+00  0.1680E+03
     19.062  0.0000E+00  0.1680E+03
