   32   32    1    1
  0.6647258E+01  0.4934311E-09  0.4934311E-09  0.1008861E-08  0.5000000E-15
  1.000000000000000E-004
  CAR 
 graphite                                
    128    163     84
 
  0.0000000E+00  0.0000000E+00  0.0000000E+00  0.3086420E-02
    1      -12.850765
    2      -12.043128
    3      -12.040763
    4      -10.913702
    5       -7.278152
    6       -7.275012
    7       -7.271779
    8       -6.733312
    9       -6.728427
   10       -6.727808
   11       -6.727438
   12       -6.726826
   13       -6.722261
   14       -6.696230
   15       -6.695150
   16       -6.694203
   17       -5.691263
   18       -5.687526
   19       -5.686454
   20       -5.686016
   21       -5.685900
   22       -5.681790
   23       -5.423377
   24       -5.421772
   25       -5.419491
   26       -5.086910
   27       -5.084619
   28       -5.081952
   29       -2.698324
   30        0.292877
   31        0.296863
   32        0.959046
   33        0.961789
   34        0.962976
   35        1.242889
   36        1.246086
   37        1.246261
   38        1.247536
   39        1.249388
   40        1.251450
   41        1.550683
   42        1.553505
   43        1.554878
   44        3.342718
   45        3.345145
   46        3.347570
   47        3.972377
   48        4.516710
   49        4.521453
   50        4.632659
   51        4.636361
   52        4.641182
   53        4.645055
   54        4.755384
   55        4.760053
   56        5.320014
   57        5.320286
   58        5.321682
   59        5.349097
   60        5.352579
   61        5.353360
   62        5.353552
   63        5.354468
   64        5.358519
   65        9.246499
   66        9.255637
   67        9.257272
   68        9.257692
   69        9.258491
   70        9.267715
   71       10.498743
   72       10.499200
   73       10.500007
   74       11.046541
   75       11.049310
   76       11.051797
   77       13.828850
   78       13.833337
   79       13.836544
   80       14.901247
   81       14.905811
   82       14.907406
   83       14.909897
   84       14.912313
 
  0.1111111E+00  0.6938894E-17  0.0000000E+00  0.6172840E-02
    1      -12.774938
    2      -11.969130
    3      -11.966771
    4      -10.843800
    5       -8.159689
    6       -7.575073
    7       -7.572040
    8       -7.495408
    9       -7.493465
   10       -6.957869
   11       -6.954657
   12       -6.953878
   13       -6.951456
   14       -6.688466
   15       -6.456670
   16       -6.454652
   17       -5.564981
   18       -5.564447
   19       -5.340156
   20       -5.339075
   21       -5.338041
   22       -5.334934
   23       -5.312757
   24       -4.812160
   25       -4.809288
   26       -4.643800
   27       -4.641778
   28       -4.098682
   29       -2.607367
   30        0.376448
   31        0.380424
   32        0.713105
   33        0.716024
   34        1.013568
   35        1.016398
   36        1.018705
   37        1.019523
   38        1.035653
   39        1.318627
   40        1.321879
   41        1.345388
   42        1.348348
   43        1.624636
   44        2.677811
   45        3.201725
   46        3.204605
   47        4.046242
   48        4.182787
   49        4.331031
   50        4.338524
   51        4.340988
   52        4.480177
   53        4.484864
   54        4.490493
   55        4.628138
   56        4.947717
   57        4.950942
   58        5.300828
   59        5.305033
   60        5.305881
   61        5.307396
   62        5.566137
   63        5.567691
   64        5.890439
   65        9.376423
   66        9.380139
   67        9.381782
   68        9.389861
   69        9.760043
   70        9.767691
   71        9.998817
   72       10.255432
   73       10.257188
   74       11.245472
   75       11.248558
   76       11.852856
   77       13.884396
   78       14.187994
   79       14.193895
   80       14.960953
   81       14.962827
   82       15.238015
   83       15.238951
   84       15.243711
 
  0.2222222E+00  0.0000000E+00  0.0000000E+00  0.6172840E-02
    1      -12.547572
    2      -11.747517
    3      -11.745175
    4      -10.634445
    5       -9.214229
    6       -8.507592
    7       -8.505525
    8       -7.954695
    9       -7.952238
   10       -7.581144
   11       -7.298669
   12       -7.296123
   13       -7.295350
   14       -7.293099
   15       -6.504071
   16       -6.501550
   17       -5.130990
   18       -5.129350
   19       -4.641500
   20       -4.640248
   21       -4.639156
   22       -4.636399
   23       -4.005481
   24       -3.950201
   25       -3.948053
   26       -3.477659
   27       -3.474949
   28       -2.814632
   29       -2.334957
   30        0.063410
   31        0.066058
   32        0.398776
   33        0.401528
   34        0.403534
   35        0.404492
   36        0.625856
   37        0.629811
   38        0.786715
   39        0.789516
   40        1.254146
   41        1.533603
   42        1.537138
   43        1.566018
   44        1.835066
   45        2.928579
   46        2.931278
   47        3.286077
   48        3.505767
   49        3.511507
   50        3.736915
   51        3.879526
   52        4.062159
   53        4.068388
   54        4.097397
   55        4.100405
   56        4.256504
   57        4.265967
   58        5.188125
   59        5.192623
   60        5.193982
   61        5.195286
   62        6.136433
   63        6.138130
   64        6.417532
   65        9.689765
   66        9.692971
   67        9.694365
   68        9.701563
   69        9.844336
   70        9.846253
   71       10.042396
   72       10.907971
   73       10.913929
   74       11.499630
   75       11.502703
   76       13.001622
   77       14.038560
   78       15.123299
   79       15.125816
   80       15.170641
   81       15.176220
   82       15.623506
   83       15.821865
   84       15.829648
 
  0.3333333E+00  0.0000000E+00  0.0000000E+00  0.6172840E-02
    1      -12.169825
    2      -11.379467
    3      -11.377154
    4      -10.286659
    5      -10.159213
    6       -9.423477
    7       -9.421321
    8       -8.439664
    9       -8.226429
   10       -8.224200
   11       -7.554595
   12       -7.552285
   13       -7.551524
   14       -7.549348
   15       -6.697667
   16       -6.695332
   17       -4.327908
   18       -4.325851
   19       -3.827557
   20       -3.826276
   21       -3.825162
   22       -3.822153
   23       -3.206447
   24       -3.204070
   25       -2.524774
   26       -2.039954
   27       -2.036985
   28       -1.883066
   29       -1.449495
   30       -0.775005
   31       -0.772774
   32       -0.428949
   33       -0.425999
   34       -0.424735
   35       -0.423376
   36        0.014619
   37        0.017150
   38        0.489835
   39        1.033907
   40        1.037892
   41        1.609989
   42        1.882369
   43        1.886081
   44        2.021640
   45        2.175910
   46        2.324740
   47        2.329416
   48        2.638722
   49        2.694375
   50        2.696871
   51        3.182501
   52        3.185699
   53        3.281994
   54        3.500216
   55        3.505703
   56        3.733993
   57        4.623683
   58        5.072532
   59        5.077253
   60        5.078888
   61        5.080293
   62        6.206111
   63        6.797903
   64        6.799736
   65        9.414483
   66        9.416626
   67       10.051127
   68       10.053309
   69       10.054370
   70       10.060863
   71       11.092124
   72       11.645470
   73       11.648325
   74       12.273271
   75       12.277903
   76       14.217437
   77       14.286420
   78       15.346630
   79       15.398437
   80       15.401217
   81       15.479448
   82       15.485008
   83       15.836469
   84       16.320696
 
  0.4444444E+00  0.0000000E+00  0.0000000E+00  0.6172840E-02
    1      -11.643560
    2      -10.971760
    3      -10.866896
    4      -10.864622
    5      -10.213142
    6      -10.210920
    7       -9.802379
    8       -9.184817
    9       -8.365480
   10       -8.363345
   11       -7.687109
   12       -7.684888
   13       -7.684131
   14       -7.681980
   15       -6.812281
   16       -6.810040
   17       -3.502197
   18       -3.499759
   19       -3.084271
   20       -3.083205
   21       -3.082535
   22       -3.078169
   23       -2.723768
   24       -2.721278
   25       -1.364222
   26       -1.362579
   27       -1.256036
   28       -1.204382
   29       -1.201004
   30       -1.200227
   31       -1.198805
   32       -0.983520
   33       -0.774719
   34       -0.772547
   35       -0.557391
   36       -0.554179
   37       -0.460499
   38       -0.046844
   39        0.558515
   40        0.902428
   41        0.906235
   42        1.340853
   43        1.639758
   44        1.642908
   45        2.087413
   46        2.342272
   47        2.345641
   48        2.348585
   49        2.352495
   50        2.566167
   51        2.568393
   52        2.629206
   53        2.660492
   54        2.903618
   55        2.908613
   56        3.165543
   57        5.002788
   58        5.007663
   59        5.009405
   60        5.010908
   61        5.102604
   62        5.664396
   63        7.317862
   64        7.320296
   65        9.057785
   66        9.061203
   67       10.294318
   68       10.295266
   69       10.295779
   70       10.301692
   71       11.691316
   72       11.693930
   73       12.643691
   74       13.630997
   75       13.634732
   76       14.298569
   77       14.611070
   78       14.763673
   79       14.767956
   80       14.982270
   81       15.448303
   82       15.802304
   83       15.805394
   84       16.386821
 
 -0.8470329E-21  0.1111111E+00  0.0000000E+00  0.6172840E-02
    1      -12.774936
    2      -11.969128
    3      -11.966768
    4      -10.843798
    5       -8.159776
    6       -7.575163
    7       -7.571757
    8       -7.495500
    9       -7.493578
   10       -6.957557
   11       -6.954598
   12       -6.953898
   13       -6.950873
   14       -6.688830
   15       -6.456452
   16       -6.454334
   17       -5.566654
   18       -5.564521
   19       -5.342814
   20       -5.339549
   21       -5.338036
   22       -5.334965
   23       -5.311137
   24       -4.810348
   25       -4.808724
   26       -4.645345
   27       -4.641492
   28       -4.097558
   29       -2.607372
   30        0.376442
   31        0.380418
   32        0.714742
   33        0.715912
   34        1.015564
   35        1.016393
   36        1.019263
   37        1.019867
   38        1.034343
   39        1.318186
   40        1.319094
   41        1.347118
   42        1.348298
   43        1.622985
   44        2.676833
   45        3.202163
   46        3.205597
   47        4.046232
   48        4.186172
   49        4.331901
   50        4.338511
   51        4.343282
   52        4.478214
   53        4.480199
   54        4.493841
   55        4.624692
   56        4.947267
   57        4.949016
   58        5.301899
   59        5.305061
   60        5.305950
   61        5.309279
   62        5.565860
   63        5.567835
   64        5.889929
   65        9.373263
   66        9.379737
   67        9.381855
   68        9.388084
   69        9.763094
   70        9.769191
   71       10.000671
   72       10.253784
   73       10.257692
   74       11.243173
   75       11.248784
   76       11.854322
   77       13.883579
   78       14.189717
   79       14.193058
   80       14.960104
   81       14.961931
   82       15.238200
   83       15.241275
   84       15.243304
 
  0.1111111E+00  0.1111111E+00  0.0000000E+00  0.6172840E-02
    1      -12.623322
    2      -11.821307
    3      -11.818959
    4      -10.704137
    5       -8.646912
    6       -8.643254
    7       -7.961301
    8       -7.957381
    9       -7.957127
   10       -7.953274
   11       -7.080922
   12       -7.076957
   13       -7.073633
   14       -6.540042
   15       -6.537825
   16       -6.500249
   17       -5.501702
   18       -5.497547
   19       -5.240650
   20       -4.919588
   21       -4.656133
   22       -4.652294
   23       -4.125600
   24       -4.120418
   25       -4.120311
   26       -4.117204
   27       -3.436642
   28       -3.432502
   29       -2.425554
   30       -0.013490
   31        0.326000
   32        0.329108
   33        0.542990
   34        0.546949
   35        0.716277
   36        0.862001
   37        0.865213
   38        1.160046
   39        1.161753
   40        1.161934
   41        1.166836
   42        1.486882
   43        1.490325
   44        2.191358
   45        2.194312
   46        3.599193
   47        3.627736
   48        3.796396
   49        3.803023
   50        3.854893
   51        4.135583
   52        4.163297
   53        4.170542
   54        4.193025
   55        4.323040
   56        4.604867
   57        4.606746
   58        4.607537
   59        4.612056
   60        5.558817
   61        5.607141
   62        5.610673
   63        6.302486
   64        6.304120
   65        9.183035
   66        9.191230
   67        9.858470
   68        9.861459
   69       10.269941
   70       10.277218
   71       10.278417
   72       10.281041
   73       10.516497
   74       10.561277
   75       12.309931
   76       12.313272
   77       14.290910
   78       14.295814
   79       15.122754
   80       15.342722
   81       15.346950
   82       15.349042
   83       15.352858
   84       15.817946
 
  0.2222222E+00  0.1111111E+00  0.0000000E+00  0.6172840E-02
    1      -12.320772
    2      -11.526456
    3      -11.524131
    4      -10.425595
    5       -9.648297
    6       -9.000402
    7       -8.927729
    8       -8.925625
    9       -8.300377
   10       -8.298331
   11       -7.973684
   12       -7.386610
   13       -7.172525
   14       -6.568960
   15       -6.567045
   16       -6.080947
   17       -5.208038
   18       -4.991404
   19       -4.987748
   20       -4.341575
   21       -3.847199
   22       -3.334648
   23       -3.333079
   24       -3.240358
   25       -2.735779
   26       -2.732872
   27       -2.701773
   28       -2.115475
   29       -2.063400
   30       -0.960502
   31       -0.591570
   32       -0.588512
   33       -0.135847
   34        0.301289
   35        0.625485
   36        0.626611
   37        0.872658
   38        0.876603
   39        1.002472
   40        1.080098
   41        1.158405
   42        1.447949
   43        1.451371
   44        1.767817
   45        1.821661
   46        2.609563
   47        2.844735
   48        2.851085
   49        3.023119
   50        3.501335
   51        3.618432
   52        3.625059
   53        3.695450
   54        3.698640
   55        3.705087
   56        3.823226
   57        4.333525
   58        4.335944
   59        4.482172
   60        5.804457
   61        5.807918
   62        6.043126
   63        6.443163
   64        6.657910
   65        9.179803
   66        9.186989
   67        9.706958
   68        9.890421
   69       10.434949
   70       10.810077
   71       10.812965
   72       10.817305
   73       11.555921
   74       11.560855
   75       12.569041
   76       13.478930
   77       14.495805
   78       15.325125
   79       15.561419
   80       15.563863
   81       15.757362
   82       15.810253
   83       15.819040
   84       16.339195
 
  0.3333333E+00  0.1111111E+00  0.0000000E+00  0.6172840E-02
    1      -11.868754
    2      -11.086170
    3      -11.083880
    4      -10.527429
    5      -10.009592
    6       -9.781190
    7       -9.779003
    8       -9.216216
    9       -8.777076
   10       -8.509004
   11       -8.506935
   12       -7.579792
   13       -7.341179
   14       -6.707097
   15       -6.705242
   16       -5.949857
   17       -4.653395
   18       -4.211476
   19       -4.208028
   20       -3.655874
   21       -2.989706
   22       -2.535630
   23       -2.533779
   24       -2.033991
   25       -1.856744
   26       -1.733941
   27       -1.544832
   28       -1.541541
   29       -1.523860
   30       -1.282930
   31       -1.280119
   32       -1.056934
   33       -0.744206
   34       -0.373793
   35       -0.089265
   36       -0.087420
   37        0.062226
   38        0.322157
   39        1.279225
   40        1.317771
   41        1.321944
   42        1.586607
   43        1.593231
   44        1.647855
   45        1.651989
   46        1.863661
   47        1.867298
   48        1.919305
   49        2.170972
   50        2.790467
   51        2.809500
   52        2.812687
   53        2.995238
   54        3.001125
   55        3.247677
   56        3.660903
   57        4.159437
   58        4.162068
   59        4.902126
   60        5.895487
   61        5.898414
   62        6.001330
   63        6.857282
   64        6.872328
   65        8.804732
   66        9.277157
   67        9.282372
   68       10.042574
   69       10.981790
   70       11.236431
   71       11.239634
   72       11.796317
   73       12.628609
   74       12.935736
   75       12.939461
   76       14.682028
   77       14.782309
   78       14.981903
   79       15.250771
   80       15.256211
   81       15.481365
   82       15.878705
   83       15.881525
   84       16.585117
 
  0.4444444E+00  0.1111111E+00  0.0000000E+00  0.6172840E-02
    1      -11.271405
    2      -11.268002
    3      -10.505795
    4      -10.502149
    5      -10.501828
    6      -10.498057
    7       -9.460401
    8       -9.456840
    9       -9.288568
   10       -8.578877
   11       -8.576799
   12       -7.645115
   13       -7.403082
   14       -6.762150
   15       -6.760291
   16       -5.966725
   17       -4.095374
   18       -3.716417
   19       -3.713324
   20       -3.493317
   21       -2.410295
   22       -2.096684
   23       -2.093397
   24       -2.079432
   25       -2.072427
   26       -2.068522
   27       -1.880878
   28       -1.696767
   29       -0.813646
   30       -0.810590
   31       -0.562887
   32       -0.537180
   33       -0.533397
   34       -0.205624
   35       -0.201634
   36       -0.187498
   37        0.173611
   38        0.180607
   39        0.180826
   40        0.181220
   41        0.624093
   42        0.627887
   43        1.513471
   44        2.024453
   45        2.028114
   46        2.029861
   47        2.034476
   48        2.137643
   49        2.143309
   50        2.391634
   51        2.393283
   52        2.393390
   53        2.403596
   54        2.673597
   55        2.679892
   56        3.631743
   57        4.099698
   58        4.102463
   59        5.426802
   60        5.429919
   61        5.919223
   62        5.921471
   63        6.939255
   64        7.650206
   65        7.998136
   66        9.333363
   67        9.336542
   68       10.135825
   69       11.040223
   70       11.400560
   71       11.403496
   72       12.614498
   73       13.403640
   74       13.407648
   75       14.228705
   76       14.234780
   77       14.237746
   78       14.238949
   79       15.125089
   80       15.128689
   81       15.886899
   82       15.891024
   83       16.301864
   84       16.306836
 
 -0.4444444E+00  0.1111111E+00  0.0000000E+00  0.6172840E-02
    1      -11.868839
    2      -11.086254
    3      -11.083964
    4      -10.527292
    5      -10.009676
    6       -9.781052
    7       -9.778864
    8       -9.216415
    9       -8.776937
   10       -8.509222
   11       -8.507151
   12       -7.580010
   13       -7.340836
   14       -6.706676
   15       -6.704853
   16       -5.949157
   17       -4.653274
   18       -4.210016
   19       -4.208357
   20       -3.655474
   21       -2.990625
   22       -2.537301
   23       -2.533795
   24       -2.034565
   25       -1.857508
   26       -1.734305
   27       -1.544848
   28       -1.543379
   29       -1.523966
   30       -1.283499
   31       -1.280279
   32       -1.057885
   33       -0.744599
   34       -0.372816
   35       -0.089180
   36       -0.085182
   37        0.062393
   38        0.323320
   39        1.279668
   40        1.317759
   41        1.321868
   42        1.586892
   43        1.593068
   44        1.648932
   45        1.651599
   46        1.863771
   47        1.867910
   48        1.919797
   49        2.171325
   50        2.789974
   51        2.809566
   52        2.812868
   53        2.995712
   54        2.999630
   55        3.247205
   56        3.661377
   57        4.159018
   58        4.161856
   59        4.902027
   60        5.896714
   61        5.898390
   62        6.001483
   63        6.858705
   64        6.871618
   65        8.803140
   66        9.277717
   67        9.281240
   68       10.042885
   69       10.981900
   70       11.235846
   71       11.240036
   72       11.796135
   73       12.628788
   74       12.935270
   75       12.939525
   76       14.681967
   77       14.782059
   78       14.981994
   79       15.251350
   80       15.255645
   81       15.481424
   82       15.878192
   83       15.881544
   84       16.583413
 
 -0.3333333E+00  0.1111111E+00  0.0000000E+00  0.6172840E-02
    1      -12.320833
    2      -11.526516
    3      -11.524190
    4      -10.425654
    5       -9.648132
    6       -9.000722
    7       -8.927612
    8       -8.925503
    9       -8.300792
   10       -8.298746
   11       -7.973560
   12       -7.387066
   13       -7.171746
   14       -6.567870
   15       -6.566218
   16       -6.079452
   17       -5.208523
   18       -4.990139
   19       -4.988737
   20       -4.341261
   21       -3.848005
   22       -3.336159
   23       -3.333126
   24       -3.240743
   25       -2.735980
   26       -2.733087
   27       -2.702779
   28       -2.115824
   29       -2.063479
   30       -0.961700
   31       -0.591851
   32       -0.590667
   33       -0.137032
   34        0.302753
   35        0.625736
   36        0.629270
   37        0.872580
   38        0.876524
   39        1.003883
   40        1.080290
   41        1.158690
   42        1.448085
   43        1.451768
   44        1.768041
   45        1.821102
   46        2.609984
   47        2.846866
   48        2.849655
   49        3.023223
   50        3.501176
   51        3.619897
   52        3.622724
   53        3.695662
   54        3.698480
   55        3.706317
   56        3.822732
   57        4.332649
   58        4.335540
   59        4.482120
   60        5.806682
   61        5.807982
   62        6.044362
   63        6.443225
   64        6.656579
   65        9.180281
   66        9.185507
   67        9.705450
   68        9.890985
   69       10.434854
   70       10.810479
   71       10.812101
   72       10.817765
   73       11.555511
   74       11.560836
   75       12.569307
   76       13.478786
   77       14.495609
   78       15.328794
   79       15.560953
   80       15.563855
   81       15.757342
   82       15.811233
   83       15.815831
   84       16.363280
 
 -0.2222222E+00  0.1111111E+00  0.0000000E+00  0.6172840E-02
    1      -12.623358
    2      -11.821343
    3      -11.818994
    4      -10.704171
    5       -8.645695
    6       -8.644896
    7       -7.959281
    8       -7.957741
    9       -7.957274
   10       -7.955745
   11       -7.079812
   12       -7.076251
   13       -7.074574
   14       -6.537854
   15       -6.536670
   16       -6.499338
   17       -5.500515
   18       -5.499670
   19       -5.240357
   20       -4.920033
   21       -4.655098
   22       -4.654088
   23       -4.123459
   24       -4.122055
   25       -4.120676
   26       -4.119154
   27       -3.435445
   28       -3.434615
   29       -2.425601
   30       -0.014871
   31        0.325647
   32        0.326716
   33        0.542944
   34        0.546904
   35        0.714935
   36        0.864400
   37        0.864608
   38        1.161549
   39        1.162004
   40        1.164947
   41        1.165461
   42        1.489217
   43        1.489571
   44        2.191622
   45        2.193402
   46        3.600558
   47        3.627926
   48        3.799607
   49        3.799917
   50        3.854700
   51        4.135878
   52        4.166479
   53        4.167059
   54        4.192965
   55        4.322736
   56        4.604284
   57        4.607220
   58        4.607554
   59        4.610607
   60        5.559872
   61        5.609694
   62        5.610901
   63        6.301291
   64        6.303696
   65        9.183363
   66        9.189681
   67        9.858853
   68        9.861714
   69       10.270911
   70       10.275571
   71       10.277673
   72       10.282268
   73       10.515300
   74       10.561299
   75       12.310779
   76       12.312611
   77       14.293698
   78       14.296545
   79       15.118798
   80       15.346198
   81       15.348938
   82       15.349794
   83       15.351980
   84       15.830341
 
 -0.1111111E+00  0.1111111E+00  0.0000000E+00  0.6172840E-02
    1      -12.774948
    2      -11.969140
    3      -11.966780
    4      -10.843809
    5       -8.160640
    6       -7.574168
    7       -7.571281
    8       -7.496477
    9       -7.494545
   10       -6.956415
   11       -6.953954
   12       -6.953442
   13       -6.950145
   14       -6.690035
   15       -6.455403
   16       -6.453919
   17       -5.566636
   18       -5.564809
   19       -5.342297
   20       -5.338479
   21       -5.338037
   22       -5.336999
   23       -5.311309
   24       -4.811359
   25       -4.808371
   26       -4.644717
   27       -4.642371
   28       -4.097928
   29       -2.607388
   30        0.376425
   31        0.380402
   32        0.713195
   33        0.716029
   34        1.014747
   35        1.016256
   36        1.016452
   37        1.021058
   38        1.035681
   39        1.318468
   40        1.321917
   41        1.345457
   42        1.348508
   43        1.624447
   44        2.675710
   45        3.203163
   46        3.206092
   47        4.046213
   48        4.185899
   49        4.335003
   50        4.335505
   51        4.343097
   52        4.476562
   53        4.483723
   54        4.492093
   55        4.624863
   56        4.945416
   57        4.948472
   58        5.303794
   59        5.305114
   60        5.305969
   61        5.310262
   62        5.566889
   63        5.567813
   64        5.888536
   65        9.372215
   66        9.381146
   67        9.382269
   68        9.386137
   69        9.762636
   70        9.770159
   71       10.001150
   72       10.254590
   73       10.256876
   74       11.243756
   75       11.247130
   76       11.854910
   77       13.887312
   78       14.187142
   79       14.191764
   80       14.964725
   81       14.969797
   82       15.235883
   83       15.238588
   84       15.245040
 
  0.1694066E-20  0.2222222E+00  0.0000000E+00  0.6172840E-02
    1      -12.547564
    2      -11.747508
    3      -11.745166
    4      -10.634433
    5       -9.214204
    6       -8.507581
    7       -8.505516
    8       -7.955199
    9       -7.951671
   10       -7.581169
   11       -7.299364
   12       -7.296078
   13       -7.295452
   14       -7.292014
   15       -6.504179
   16       -6.501012
   17       -5.132655
   18       -5.129381
   19       -4.644268
   20       -4.640848
   21       -4.639201
   22       -4.635717
   23       -4.004340
   24       -3.951838
   25       -3.947686
   26       -3.475954
   27       -3.474374
   28       -2.813477
   29       -2.334978
   30        0.064588
   31        0.066540
   32        0.400268
   33        0.401528
   34        0.404239
   35        0.405536
   36        0.625827
   37        0.629781
   38        0.787936
   39        0.789917
   40        1.252563
   41        1.533265
   42        1.534161
   43        1.565489
   44        1.833326
   45        2.928633
   46        2.932406
   47        3.288956
   48        3.511163
   49        3.511733
   50        3.739618
   51        3.876782
   52        4.062021
   53        4.062585
   54        4.096985
   55        4.099498
   56        4.253348
   57        4.265881
   58        5.188963
   59        5.192557
   60        5.193789
   61        5.197496
   62        6.136152
   63        6.138741
   64        6.416326
   65        9.686425
   66        9.692593
   67        9.694347
   68        9.700128
   69        9.842548
   70        9.846399
   71       10.044913
   72       10.910156
   73       10.915069
   74       11.497322
   75       11.503246
   76       13.002651
   77       14.037693
   78       15.122568
   79       15.124839
   80       15.172274
   81       15.176092
   82       15.622519
   83       15.825268
   84       15.886364
 
  0.1111111E+00  0.2222222E+00  0.0000000E+00  0.6172840E-02
    1      -12.320766
    2      -11.526449
    3      -11.524124
    4      -10.425585
    5       -9.648254
    6       -9.000441
    7       -8.927687
    8       -8.925581
    9       -8.300404
   10       -8.298358
   11       -7.973653
   12       -7.386606
   13       -7.172507
   14       -6.568931
   15       -6.567033
   16       -6.080955
   17       -5.208046
   18       -4.991412
   19       -4.987963
   20       -4.341786
   21       -3.848494
   22       -3.336465
   23       -3.333764
   24       -3.239097
   25       -2.733855
   26       -2.732337
   27       -2.703061
   28       -2.114157
   29       -2.063414
   30       -0.960340
   31       -0.591375
   32       -0.588504
   33       -0.135779
   34        0.302968
   35        0.626187
   36        0.629247
   37        0.872639
   38        0.876587
   39        1.004168
   40        1.079654
   41        1.156678
   42        1.447427
   43        1.448377
   44        1.766011
   45        1.822231
   46        2.611317
   47        2.847467
   48        2.851095
   49        3.023146