  32  32   0   0
  0.9217531E+01  0.4934311E-09  0.4934311E-09  0.1398954E-08  0.5000000E-15
  1.000000000000000E-004
  CAR 
 graphite                                
     15.12730501    -17.27253647  301      4.31346077      1.00000000
    -17.273  0.0000E+00  0.0000E+00
    -17.165  0.0000E+00  0.0000E+00
    -17.057  0.0000E+00  0.0000E+00
    -16.949  0.0000E+00  0.0000E+00
    -16.841  0.0000E+00  0.0000E+00
    -16.733  0.0000E+00  0.0000E+00
    -16.625  0.0000E+00  0.0000E+00
    -16.517  0.0000E+00  0.0000E+00
    -16.409  0.0000E+00  0.0000E+00
    -16.301  0.0000E+00  0.0000E+00
    -16.193  0.0000E+00  0.0000E+00
    -16.085  0.0000E+00  0.0000E+00
    -15.977  0.0000E+00  0.0000E+00
    -15.869  0.0000E+00  0.0000E+00
    -15.761  0.0000E+00  0.0000E+00
    -15.653  0.0000E+00  0.0000E+00
    -15.545  0.0000E+00  0.0000E+00
    -15.437  0.0000E+00  0.0000E+00
    -15.329  0.0000E+00  0.0000E+00
    -15.221  0.1211E+01  0.2442E-01
    -15.113  0.2924E+01  0.2602E+00
    -15.005  0.5199E+01  0.7049E+00
    -14.897  0.4927E+01  0.1231E+01
    -14.789  0.4907E+01  0.1765E+01
    -14.681  0.4967E+01  0.2299E+01
    -14.573  0.4934E+01  0.2835E+01
    -14.465  0.4913E+01  0.3364E+01
    -14.357  0.5023E+01  0.3901E+01
    -14.249  0.4997E+01  0.4442E+01
    -14.141  0.4964E+01  0.4979E+01
    -14.033  0.5720E+01  0.5554E+01
    -13.925  0.6066E+01  0.6190E+01
    -13.817  0.6538E+01  0.6892E+01
    -13.709  0.4966E+01  0.7483E+01
    -13.601  0.1771E+01  0.7764E+01
    -13.493  0.3895E+01  0.8050E+01
    -13.385  0.4508E+01  0.8531E+01
    -13.277  0.4523E+01  0.9019E+01
    -13.169  0.6649E+01  0.9790E+01
    -13.061  0.5335E+01  0.1053E+02
    -12.953  0.4368E+01  0.1100E+02
    -12.845  0.4513E+01  0.1148E+02
    -12.737  0.4622E+01  0.1197E+02
    -12.629  0.4732E+01  0.1248E+02
    -12.521  0.5329E+01  0.1302E+02
    -12.413  0.6193E+01  0.1363E+02
    -12.305  0.5408E+01  0.1425E+02
    -12.197  0.5613E+01  0.1484E+02
    -12.089  0.5136E+01  0.1542E+02
    -11.981  0.4811E+01  0.1596E+02
    -11.873  0.4913E+01  0.1648E+02
    -11.765  0.4996E+01  0.1702E+02
    -11.657  0.5054E+01  0.1756E+02
    -11.549  0.5184E+01  0.1811E+02
    -11.441  0.5551E+01  0.1869E+02
    -11.333  0.5842E+01  0.1931E+02
    -11.225  0.5718E+01  0.1994E+02
    -11.117  0.5667E+01  0.2055E+02
    -11.009  0.5770E+01  0.2117E+02
    -10.901  0.5203E+01  0.2178E+02
    -10.793  0.4928E+01  0.2230E+02
    -10.685  0.5361E+01  0.2286E+02
    -10.577  0.5368E+01  0.2344E+02
    -10.469  0.5490E+01  0.2403E+02
    -10.361  0.5706E+01  0.2463E+02
    -10.253  0.5944E+01  0.2526E+02
    -10.145  0.7738E+01  0.2598E+02
    -10.037  0.9634E+01  0.2702E+02
     -9.929  0.6325E+01  0.2788E+02
     -9.821  0.7236E+01  0.2849E+02
     -9.713  0.7701E+01  0.2924E+02
     -9.605  0.3561E+01  0.2969E+02
     -9.497  0.3192E+01  0.3006E+02
     -9.389  0.2823E+01  0.3038E+02
     -9.281  0.2453E+01  0.3067E+02
     -9.173  0.2443E+01  0.3092E+02
     -9.065  0.3103E+01  0.3125E+02
     -8.957  0.1430E+01  0.3151E+02
     -8.849  0.1641E+01  0.3166E+02
     -8.741  0.2563E+01  0.3189E+02
     -8.633  0.7047E+01  0.3234E+02
     -8.525  0.4389E+01  0.3308E+02
     -8.417  0.3937E+01  0.3350E+02
     -8.309  0.4267E+01  0.3395E+02
     -8.201  0.7685E+01  0.3461E+02
     -8.093  0.6377E+01  0.3537E+02
     -7.985  0.7464E+01  0.3612E+02
     -7.877  0.8530E+01  0.3699E+02
     -7.769  0.7979E+01  0.3794E+02
     -7.661  0.6282E+01  0.3866E+02
     -7.553  0.6023E+01  0.3933E+02
     -7.445  0.5768E+01  0.3996E+02
     -7.337  0.5535E+01  0.4057E+02
     -7.229  0.5346E+01  0.4116E+02
     -7.121  0.5165E+01  0.4173E+02
     -7.013  0.4968E+01  0.4228E+02
     -6.905  0.4854E+01  0.4280E+02
     -6.797  0.4825E+01  0.4333E+02
     -6.689  0.4794E+01  0.4385E+02
     -6.581  0.4628E+01  0.4436E+02
     -6.473  0.4416E+01  0.4485E+02
     -6.365  0.4362E+01  0.4532E+02
     -6.257  0.4034E+01  0.4573E+02
     -6.149  0.4292E+01  0.4617E+02
     -6.041  0.4922E+01  0.4667E+02
     -5.933  0.5779E+01  0.4725E+02
     -5.825  0.6522E+01  0.4792E+02
     -5.717  0.1074E+02  0.4885E+02
     -5.609  0.8496E+01  0.4989E+02
     -5.501  0.6250E+01  0.5069E+02
     -5.393  0.4003E+01  0.5124E+02
     -5.285  0.2690E+01  0.5158E+02
     -5.177  0.3096E+01  0.5188E+02
     -5.069  0.4350E+01  0.5228E+02
     -4.961  0.5649E+01  0.5282E+02
     -4.853  0.7245E+01  0.5351E+02
     -4.745  0.7986E+01  0.5436E+02
     -4.637  0.6775E+01  0.5516E+02
     -4.529  0.5612E+01  0.5583E+02
     -4.421  0.7642E+01  0.5649E+02
     -4.313  0.7235E+01  0.5730E+02
     -4.205  0.6724E+01  0.5805E+02
     -4.097  0.6212E+01  0.5875E+02
     -3.989  0.5768E+01  0.5939E+02
     -3.881  0.6507E+01  0.6004E+02
     -3.773  0.1487E+02  0.6116E+02
     -3.665  0.9757E+01  0.6225E+02
     -3.557  0.7894E+01  0.6319E+02
     -3.449  0.6726E+01  0.6398E+02
     -3.341  0.6793E+01  0.6469E+02
     -3.233  0.7569E+01  0.6546E+02
     -3.125  0.8621E+01  0.6633E+02
     -3.017  0.1046E+02  0.6734E+02
     -2.909  0.1428E+02  0.6871E+02
     -2.801  0.1235E+02  0.7025E+02
     -2.693  0.1292E+02  0.7157E+02
     -2.585  0.1316E+02  0.7300E+02
     -2.477  0.1563E+02  0.7443E+02
     -2.369  0.1229E+02  0.7600E+02
     -2.261  0.2045E+02  0.7746E+02
     -2.153  0.1202E+02  0.7921E+02
     -2.045  0.1565E+02  0.8054E+02
     -1.937  0.1690E+02  0.8268E+02
     -1.829  0.1745E+02  0.8460E+02
     -1.721  0.1508E+02  0.8645E+02
     -1.613  0.1119E+02  0.8786E+02
     -1.505  0.9381E+01  0.8895E+02
     -1.397  0.1140E+02  0.8995E+02
     -1.289  0.8407E+01  0.9095E+02
     -1.181  0.1171E+02  0.9199E+02
     -1.073  0.1289E+02  0.9334E+02
     -0.965  0.1688E+02  0.9479E+02
     -0.857  0.9105E+01  0.9615E+02
     -0.749  0.1042E+02  0.9723E+02
     -0.641  0.1065E+02  0.9840E+02
     -0.533  0.1043E+02  0.9953E+02
     -0.425  0.1122E+02  0.1007E+03
     -0.317  0.9501E+01  0.1018E+03
     -0.209  0.1004E+02  0.1029E+03
     -0.101  0.9520E+01  0.1039E+03
      0.007  0.9419E+01  0.1049E+03
      0.115  0.9219E+01  0.1059E+03
      0.223  0.9121E+01  0.1069E+03
      0.331  0.9573E+01  0.1079E+03
      0.439  0.9391E+01  0.1089E+03
      0.547  0.9499E+01  0.1100E+03
      0.655  0.9178E+01  0.1110E+03
      0.763  0.9195E+01  0.1120E+03
      0.871  0.9439E+01  0.1130E+03
      0.979  0.9409E+01  0.1140E+03
      1.087  0.9787E+01  0.1150E+03
      1.195  0.1002E+02  0.1161E+03
      1.303  0.7203E+01  0.1171E+03
      1.411  0.6392E+01  0.1178E+03
      1.519  0.5789E+01  0.1184E+03
      1.627  0.4818E+01  0.1190E+03
      1.735  0.4075E+01  0.1195E+03
      1.843  0.3682E+01  0.1199E+03
      1.951  0.6554E+01  0.1204E+03
      2.059  0.1012E+02  0.1213E+03
      2.167  0.7340E+01  0.1222E+03
      2.275  0.8183E+01  0.1232E+03
      2.383  0.5921E+01  0.1240E+03
      2.491  0.4909E+01  0.1245E+03
      2.599  0.4206E+01  0.1250E+03
      2.707  0.3589E+01  0.1255E+03
      2.815  0.3222E+01  0.1258E+03
      2.923  0.3055E+01  0.1262E+03
      3.031  0.2837E+01  0.1265E+03
      3.139  0.2372E+01  0.1268E+03
      3.247  0.2055E+01  0.1270E+03
      3.355  0.1825E+01  0.1272E+03
      3.463  0.1587E+01  0.1274E+03
      3.571  0.1347E+01  0.1276E+03
      3.679  0.1110E+01  0.1277E+03
      3.787  0.8735E+00  0.1278E+03
      3.895  0.6500E+00  0.1279E+03
      4.003  0.4585E+00  0.1279E+03
      4.111  0.2844E+00  0.1280E+03
      4.219  0.1242E+00  0.1280E+03
      4.327  0.8883E-02  0.1280E+03
      4.435  0.1277E+00  0.1280E+03
      4.543  0.2601E+00  0.1280E+03
      4.651  0.4098E+00  0.1281E+03
      4.759  0.5806E+00  0.1281E+03
      4.867  0.7914E+00  0.1282E+03
      4.975  0.1046E+01  0.1283E+03
      5.083  0.1417E+01  0.1284E+03
      5.191  0.1802E+01  0.1286E+03
      5.299  0.2172E+01  0.1288E+03
      5.407  0.2602E+01  0.1291E+03
      5.515  0.2780E+01  0.1294E+03
      5.623  0.3401E+01  0.1297E+03
      5.731  0.4285E+01  0.1301E+03
      5.839  0.6869E+01  0.1308E+03
      5.947  0.8013E+01  0.1318E+03
      6.055  0.8559E+01  0.1327E+03
      6.163  0.8365E+01  0.1336E+03
      6.271  0.6893E+01  0.1345E+03
      6.379  0.6497E+01  0.1352E+03
      6.487  0.6214E+01  0.1359E+03
      6.595  0.5565E+01  0.1365E+03
      6.703  0.5090E+01  0.1371E+03
      6.811  0.4500E+01  0.1376E+03
      6.919  0.3793E+01  0.1380E+03
      7.027  0.3624E+01  0.1384E+03
      7.135  0.3932E+01  0.1388E+03
      7.243  0.4472E+01  0.1393E+03
      7.351  0.4780E+01  0.1398E+03
      7.459  0.4587E+01  0.1403E+03
      7.567  0.4441E+01  0.1408E+03
      7.675  0.4292E+01  0.1412E+03
      7.783  0.4142E+01  0.1417E+03
      7.891  0.3997E+01  0.1421E+03
      7.999  0.3836E+01  0.1426E+03
      8.107  0.3684E+01  0.1430E+03
      8.215  0.3573E+01  0.1434E+03
      8.323  0.3505E+01  0.1437E+03
      8.431  0.3740E+01  0.1441E+03
      8.539  0.3900E+01  0.1445E+03
      8.647  0.3988E+01  0.1450E+03
      8.755  0.4056E+01  0.1454E+03
      8.863  0.4210E+01  0.1458E+03
      8.971  0.4272E+01  0.1463E+03
      9.079  0.4316E+01  0.1468E+03
      9.187  0.4373E+01  0.1472E+03
      9.295  0.4144E+01  0.1477E+03
      9.403  0.4128E+01  0.1481E+03
      9.511  0.4106E+01  0.1486E+03
      9.619  0.4098E+01  0.1490E+03
      9.727  0.4192E+01  0.1495E+03
      9.835  0.4379E+01  0.1499E+03
      9.943  0.4482E+01  0.1504E+03
     10.051  0.4587E+01  0.1509E+03
     10.159  0.4810E+01  0.1514E+03
     10.267  0.5648E+01  0.1520E+03
     10.375  0.5009E+01  0.1525E+03
     10.483  0.5038E+01  0.1531E+03
     10.591  0.4942E+01  0.1536E+03
     10.699  0.7401E+01  0.1542E+03
     10.807  0.3893E+01  0.1547E+03
     10.915  0.4099E+01  0.1551E+03
     11.023  0.3586E+01  0.1555E+03
     11.131  0.3448E+01  0.1559E+03
     11.239  0.2929E+01  0.1563E+03
     11.347  0.3845E+01  0.1566E+03
     11.455  0.4285E+01  0.1571E+03
     11.563  0.4773E+01  0.1575E+03
     11.671  0.7448E+01  0.1582E+03
     11.779  0.1088E+02  0.1593E+03
     11.887  0.1220E+02  0.1605E+03
     11.995  0.1427E+02  0.1619E+03
     12.103  0.1330E+02  0.1634E+03
     12.211  0.1073E+02  0.1647E+03
     12.319  0.8251E+01  0.1657E+03
     12.427  0.5625E+01  0.1665E+03
     12.535  0.4639E+01  0.1670E+03
     12.643  0.3272E+01  0.1675E+03
     12.751  0.1942E+01  0.1677E+03
     12.859  0.1123E+01  0.1679E+03
     12.967  0.3104E+00  0.1680E+03
     13.075  0.1564E-01  0.1680E+03
     13.183  0.0000E+00  0.1680E+03
     13.291  0.0000E+00  0.1680E+03
     13.399  0.0000E+00  0.1680E+03
     13.507  0.0000E+00  0.1680E+03
     13.615  0.0000E+00  0.1680E+03
     13.723  0.0000E+00  0.1680E+03
     13.831  0.0000E+00  0.1680E+03
     13.939  0.0000E+00  0.1680E+03
     14.047  0.0000E+00  0.1680E+03
     14.155  0.0000E+00  0.1680E+03
     14.263  0.0000E+00  0.1680E+03
     14.371  0.0000E+00  0.1680E+03
     14.479  0.0000E+00  0.1680E+03
     14.587  0.0000E+00  0.1680E+03
     14.695  0.0000E+00  0.1680E+03
     14.803  0.0000E+00  0.1680E+03
     14.911  0.0000E+00  0.1680E+03
     15.019  0.0000E+00  0.1680E+03
     15.127  0.0000E+00  0.1680E+03
