   4   4   0   0
  0.9594616E+01  0.2466143E-09  0.2466143E-09  0.7276531E-09  0.5000000E-15
  1.000000000000000E-004
  CAR 
 graphite                                
     17.54897489    -17.57226563  301      3.98316708      1.00000000
    -17.572  0.0000E+00  0.0000E+00
    -17.455  0.0000E+00  0.0000E+00
    -17.338  0.0000E+00  0.0000E+00
    -17.221  0.0000E+00  0.0000E+00
    -17.104  0.0000E+00  0.0000E+00
    -16.987  0.0000E+00  0.0000E+00
    -16.870  0.0000E+00  0.0000E+00
    -16.753  0.0000E+00  0.0000E+00
    -16.636  0.0000E+00  0.0000E+00
    -16.519  0.0000E+00  0.0000E+00
    -16.402  0.0000E+00  0.0000E+00
    -16.284  0.0000E+00  0.0000E+00
    -16.167  0.0000E+00  0.0000E+00
    -16.050  0.0000E+00  0.0000E+00
    -15.933  0.0000E+00  0.0000E+00
    -15.816  0.0000E+00  0.0000E+00
    -15.699  0.0000E+00  0.0000E+00
    -15.582  0.0000E+00  0.0000E+00
    -15.465  0.1657E-02  0.9592E-04
    -15.348  0.3168E-02  0.3976E-03
    -15.231  0.3099E-02  0.7571E-03
    -15.114  0.3054E-02  0.1114E-02
    -14.997  0.3135E-02  0.1480E-02
    -14.880  0.3032E-02  0.1842E-02
    -14.763  0.3088E-02  0.2199E-02
    -14.645  0.3162E-02  0.2567E-02
    -14.528  0.3084E-02  0.2933E-02
    -14.411  0.3073E-02  0.3292E-02
    -14.294  0.3119E-02  0.3654E-02
    -14.177  0.3174E-02  0.4023E-02
    -14.060  0.3129E-02  0.4393E-02
    -13.943  0.3094E-02  0.4756E-02
    -13.826  0.3121E-02  0.5119E-02
    -13.709  0.3156E-02  0.5487E-02
    -13.592  0.3195E-02  0.5859E-02
    -13.475  0.3162E-02  0.6231E-02
    -13.358  0.3138E-02  0.6599E-02
    -13.241  0.3146E-02  0.6967E-02
    -13.124  0.3173E-02  0.7337E-02
    -13.007  0.3204E-02  0.7710E-02
    -12.889  0.3226E-02  0.8087E-02
    -12.772  0.3198E-02  0.8463E-02
    -12.655  0.3190E-02  0.8837E-02
    -12.538  0.3203E-02  0.9211E-02
    -12.421  0.3220E-02  0.9587E-02
    -12.304  0.3246E-02  0.9965E-02
    -12.187  0.3275E-02  0.1035E-01
    -12.070  0.3286E-02  0.1073E-01
    -11.953  0.3271E-02  0.1112E-01
    -11.836  0.3281E-02  0.1150E-01
    -11.719  0.3302E-02  0.1188E-01
    -11.602  0.3328E-02  0.1227E-01
    -11.485  0.3356E-02  0.1266E-01
    -11.368  0.3396E-02  0.1306E-01
    -11.250  0.3439E-02  0.1346E-01
    -11.133  0.3462E-02  0.1386E-01
    -11.016  0.3508E-02  0.1427E-01
    -10.899  0.3606E-02  0.1469E-01
    -10.782  0.3749E-02  0.1512E-01
    -10.665  0.3969E-02  0.1557E-01
    -10.548  0.4193E-02  0.1605E-01
    -10.431  0.5876E-02  0.1665E-01
    -10.314  0.4216E-02  0.1725E-01
    -10.197  0.3225E-02  0.1767E-01
    -10.080  0.4799E-02  0.1815E-01
     -9.963  0.2277E-02  0.1850E-01
     -9.846  0.2027E-02  0.1876E-01
     -9.729  0.1776E-02  0.1898E-01
     -9.611  0.1526E-02  0.1917E-01
     -9.494  0.1562E-02  0.1934E-01
     -9.377  0.1943E-02  0.1958E-01
     -9.260  0.8595E-03  0.1972E-01
     -9.143  0.1104E-02  0.1983E-01
     -9.026  0.1852E-02  0.1999E-01
     -8.909  0.4850E-02  0.2039E-01
     -8.792  0.2693E-02  0.2079E-01
     -8.675  0.2822E-02  0.2112E-01
     -8.558  0.6375E-02  0.2151E-01
     -8.441  0.3953E-02  0.2207E-01
     -8.324  0.4623E-02  0.2257E-01
     -8.207  0.5330E-02  0.2315E-01
     -8.090  0.4606E-02  0.2379E-01
     -7.972  0.3858E-02  0.2425E-01
     -7.855  0.3704E-02  0.2470E-01
     -7.738  0.3553E-02  0.2512E-01
     -7.621  0.3408E-02  0.2553E-01
     -7.504  0.3269E-02  0.2592E-01
     -7.387  0.3129E-02  0.2629E-01
     -7.270  0.3004E-02  0.2665E-01
     -7.153  0.2966E-02  0.2700E-01
     -7.036  0.2930E-02  0.2735E-01
     -6.919  0.2895E-02  0.2769E-01
     -6.802  0.2857E-02  0.2802E-01
     -6.685  0.2786E-02  0.2836E-01
     -6.568  0.2579E-02  0.2867E-01
     -6.451  0.2853E-02  0.2898E-01
     -6.333  0.3282E-02  0.2934E-01
     -6.216  0.3710E-02  0.2975E-01
     -6.099  0.4022E-02  0.3020E-01
     -5.982  0.3729E-02  0.3065E-01
     -5.865  0.3673E-02  0.3108E-01
     -5.748  0.3616E-02  0.3151E-01
     -5.631  0.3598E-02  0.3193E-01
     -5.514  0.3703E-02  0.3236E-01
     -5.397  0.3796E-02  0.3280E-01
     -5.280  0.3889E-02  0.3325E-01
     -5.163  0.3945E-02  0.3370E-01
     -5.046  0.3959E-02  0.3417E-01
     -4.929  0.3966E-02  0.3463E-01
     -4.812  0.3848E-02  0.3509E-01
     -4.694  0.4022E-02  0.3555E-01
     -4.577  0.4062E-02  0.3603E-01
     -4.460  0.4102E-02  0.3651E-01
     -4.343  0.4142E-02  0.3699E-01
     -4.226  0.4189E-02  0.3748E-01
     -4.109  0.4788E-02  0.3799E-01
     -3.992  0.5106E-02  0.3857E-01
     -3.875  0.5388E-02  0.3918E-01
     -3.758  0.5603E-02  0.3983E-01
     -3.641  0.5874E-02  0.4050E-01
     -3.524  0.6082E-02  0.4120E-01
     -3.407  0.6322E-02  0.4193E-01
     -3.290  0.6767E-02  0.4269E-01
     -3.173  0.7568E-02  0.4353E-01
     -3.055  0.8519E-02  0.4447E-01
     -2.938  0.9108E-02  0.4550E-01
     -2.821  0.8749E-02  0.4658E-01
     -2.704  0.7796E-02  0.4753E-01
     -2.587  0.9133E-02  0.4848E-01
     -2.470  0.1136E-01  0.4967E-01
     -2.353  0.1136E-01  0.5105E-01
     -2.236  0.1013E-01  0.5229E-01
     -2.119  0.8738E-02  0.5340E-01
     -2.002  0.7672E-02  0.5435E-01
     -1.885  0.7314E-02  0.5522E-01
     -1.768  0.7441E-02  0.5611E-01
     -1.651  0.6144E-02  0.5687E-01
     -1.534  0.6162E-02  0.5759E-01
     -1.416  0.6703E-02  0.5835E-01
     -1.299  0.7716E-02  0.5919E-01
     -1.182  0.7269E-02  0.6009E-01
     -1.065  0.7000E-02  0.6092E-01
     -0.948  0.6847E-02  0.6174E-01
     -0.831  0.6508E-02  0.6252E-01
     -0.714  0.6216E-02  0.6326E-01
     -0.597  0.6173E-02  0.6399E-01
     -0.480  0.6046E-02  0.6470E-01
     -0.363  0.5932E-02  0.6540E-01
     -0.246  0.5820E-02  0.6609E-01
     -0.129  0.5742E-02  0.6677E-01
     -0.012  0.5918E-02  0.6744E-01
      0.105  0.5812E-02  0.6813E-01
      0.222  0.5688E-02  0.6880E-01
      0.340  0.5555E-02  0.6946E-01
      0.457  0.5637E-02  0.7011E-01
      0.574  0.5669E-02  0.7078E-01
      0.691  0.5990E-02  0.7144E-01
      0.808  0.5452E-02  0.7211E-01
      0.925  0.4531E-02  0.7274E-01
      1.042  0.3716E-02  0.7319E-01
      1.159  0.3938E-02  0.7364E-01
      1.276  0.4266E-02  0.7412E-01
      1.393  0.4942E-02  0.7468E-01
      1.510  0.4782E-02  0.7525E-01
      1.627  0.4747E-02  0.7581E-01
      1.744  0.4835E-02  0.7637E-01
      1.861  0.4107E-02  0.7694E-01
      1.979  0.3363E-02  0.7737E-01
      2.096  0.2863E-02  0.7773E-01
      2.213  0.2608E-02  0.7805E-01
      2.330  0.2293E-02  0.7834E-01
      2.447  0.2044E-02  0.7859E-01
      2.564  0.1879E-02  0.7882E-01
      2.681  0.1695E-02  0.7903E-01
      2.798  0.1528E-02  0.7922E-01
      2.915  0.1297E-02  0.7938E-01
      3.032  0.1134E-02  0.7953E-01
      3.149  0.9665E-03  0.7965E-01
      3.266  0.7956E-03  0.7975E-01
      3.383  0.6176E-03  0.7984E-01
      3.500  0.4702E-03  0.7990E-01
      3.618  0.3241E-03  0.7995E-01
      3.735  0.2039E-03  0.7998E-01
      3.852  0.1004E-03  0.7999E-01
      3.969  0.9453E-05  0.8000E-01
      4.086  0.6379E-04  0.8000E-01
      4.203  0.1514E-03  0.8002E-01
      4.320  0.2557E-03  0.8004E-01
      4.437  0.3916E-03  0.8008E-01
      4.554  0.5478E-03  0.8013E-01
      4.671  0.7045E-03  0.8020E-01
      4.788  0.9771E-03  0.8030E-01
      4.905  0.1274E-02  0.8043E-01
      5.022  0.1585E-02  0.8060E-01
      5.139  0.1592E-02  0.8080E-01
      5.257  0.1933E-02  0.8099E-01
      5.374  0.2500E-02  0.8125E-01
      5.491  0.3907E-02  0.8164E-01
      5.608  0.5535E-02  0.8220E-01
      5.725  0.5050E-02  0.8280E-01
      5.842  0.4721E-02  0.8339E-01
      5.959  0.4671E-02  0.8394E-01
      6.076  0.4639E-02  0.8450E-01
      6.193  0.3838E-02  0.8497E-01
      6.310  0.3532E-02  0.8540E-01
      6.427  0.3290E-02  0.8580E-01
      6.544  0.3110E-02  0.8618E-01
      6.661  0.2955E-02  0.8653E-01
      6.778  0.2831E-02  0.8687E-01
      6.896  0.2724E-02  0.8720E-01
      7.013  0.2638E-02  0.8751E-01
      7.130  0.2574E-02  0.8781E-01
      7.247  0.2516E-02  0.8811E-01
      7.364  0.2460E-02  0.8840E-01
      7.481  0.2404E-02  0.8869E-01
      7.598  0.2347E-02  0.8897E-01
      7.715  0.2282E-02  0.8924E-01
      7.832  0.2400E-02  0.8951E-01
      7.949  0.2505E-02  0.8980E-01
      8.066  0.2556E-02  0.9009E-01
      8.183  0.2592E-02  0.9039E-01
      8.300  0.2657E-02  0.9070E-01
      8.417  0.2696E-02  0.9101E-01
      8.535  0.2711E-02  0.9133E-01
      8.652  0.2733E-02  0.9165E-01
      8.769  0.2766E-02  0.9197E-01
      8.886  0.2796E-02  0.9230E-01
      9.003  0.2794E-02  0.9262E-01
      9.120  0.2804E-02  0.9295E-01
      9.237  0.2831E-02  0.9328E-01
      9.354  0.2870E-02  0.9362E-01
      9.471  0.2997E-02  0.9396E-01
      9.588  0.3210E-02  0.9432E-01
      9.705  0.3454E-02  0.9471E-01
      9.822  0.3463E-02  0.9512E-01
      9.939  0.3277E-02  0.9551E-01
     10.056  0.3152E-02  0.9589E-01
     10.174  0.2596E-02  0.9623E-01
     10.291  0.2294E-02  0.9651E-01
     10.408  0.2246E-02  0.9677E-01
     10.525  0.2368E-02  0.9704E-01
     10.642  0.2580E-02  0.9733E-01
     10.759  0.3006E-02  0.9766E-01
     10.876  0.3119E-02  0.9802E-01
     10.993  0.3252E-02  0.9840E-01
     11.110  0.3362E-02  0.9878E-01
     11.227  0.3655E-02  0.9919E-01
     11.344  0.4975E-02  0.9967E-01
     11.461  0.7340E-02  0.1004E+00
     11.578  0.9167E-02  0.1014E+00
     11.695  0.9358E-02  0.1025E+00
     11.813  0.8502E-02  0.1035E+00
     11.930  0.7508E-02  0.1045E+00
     12.047  0.7424E-02  0.1053E+00
     12.164  0.7553E-02  0.1062E+00
     12.281  0.8131E-02  0.1071E+00
     12.398  0.1649E-01  0.1086E+00
     12.515  0.1269E-01  0.1103E+00
     12.632  0.8410E-02  0.1115E+00
     12.749  0.5365E-02  0.1123E+00
     12.866  0.4606E-02  0.1129E+00
     12.983  0.4339E-02  0.1134E+00
     13.100  0.3883E-02  0.1139E+00
     13.217  0.3187E-02  0.1143E+00
     13.334  0.2793E-02  0.1146E+00
     13.451  0.2688E-02  0.1150E+00
     13.569  0.2619E-02  0.1153E+00
     13.686  0.2581E-02  0.1156E+00
     13.803  0.2611E-02  0.1159E+00
     13.920  0.2745E-02  0.1162E+00
     14.037  0.2986E-02  0.1165E+00
     14.154  0.2730E-02  0.1169E+00
     14.271  0.2658E-02  0.1172E+00
     14.388  0.4857E-02  0.1176E+00
     14.505  0.4583E-02  0.1181E+00
     14.622  0.3754E-02  0.1186E+00
     14.739  0.2760E-02  0.1190E+00
     14.856  0.2496E-02  0.1193E+00
     14.973  0.2011E-02  0.1196E+00
     15.090  0.1614E-02  0.1198E+00
     15.208  0.8658E-03  0.1199E+00
     15.325  0.1640E-03  0.1200E+00
     15.442  0.1988E-04  0.1200E+00
     15.559  0.0000E+00  0.1200E+00
     15.676  0.0000E+00  0.1200E+00
     15.793  0.0000E+00  0.1200E+00
     15.910  0.0000E+00  0.1200E+00
     16.027  0.0000E+00  0.1200E+00
     16.144  0.0000E+00  0.1200E+00
     16.261  0.0000E+00  0.1200E+00
     16.378  0.0000E+00  0.1200E+00
     16.495  0.0000E+00  0.1200E+00
     16.612  0.0000E+00  0.1200E+00
     16.729  0.0000E+00  0.1200E+00
     16.847  0.0000E+00  0.1200E+00
     16.964  0.0000E+00  0.1200E+00
     17.081  0.0000E+00  0.1200E+00
     17.198  0.0000E+00  0.1200E+00
     17.315  0.0000E+00  0.1200E+00
     17.432  0.0000E+00  0.1200E+00
     17.549  0.0000E+00  0.1200E+00
