# Thermal properties / unit cell (natom)

unit:
  temperature:   K
  free_energy:   kJ/mol
  entropy:       J/K/mol
  heat_capacity: J/K/mol

natom:     4
num_modes: 3888
num_integrated_modes: 2188

zero_point_energy:      16.9523193
high_T_entropy:        174.2933842

thermal_properties:
- temperature:         0.0000000
  free_energy:        16.9523193
  entropy:             0.0000000
  heat_capacity:       0.0000000
  energy:             16.9523193

- temperature:        10.0000000
  free_energy:        16.9519181
  entropy:             0.1182118
  heat_capacity:       0.2293615
  energy:             16.9531002

- temperature:        20.0000000
  free_energy:        16.9489838
  entropy:             0.5324736
  heat_capacity:       1.2063485
  energy:             16.9596333

- temperature:        30.0000000
  free_energy:        16.9401473
  entropy:             1.2761628
  heat_capacity:       2.5549621
  energy:             16.9784322

- temperature:        40.0000000
  free_energy:        16.9229262
  entropy:             2.1832320
  heat_capacity:       3.7774137
  energy:             17.0102555

- temperature:        50.0000000
  free_energy:        16.8963178
  entropy:             3.1421405
  heat_capacity:       4.8364042
  energy:             17.0534248

- temperature:        60.0000000
  free_energy:        16.8600509
  entropy:             4.1118994
  heat_capacity:       5.8295659
  energy:             17.1067649

- temperature:        70.0000000
  free_energy:        16.8140644
  entropy:             5.0867028
  heat_capacity:       6.8570617
  energy:             17.1701336

- temperature:        80.0000000
  free_energy:        16.7582723
  entropy:             6.0749919
  heat_capacity:       7.9930746
  energy:             17.2442716

- temperature:        90.0000000
  free_energy:        16.6924784
  entropy:             7.0890994
  heat_capacity:       9.2786674
  energy:             17.3304973

- temperature:       100.0000000
  free_energy:        16.6163668
  entropy:             8.1401132
  heat_capacity:      10.7234083
  energy:             17.4303782

- temperature:       110.0000000
  free_energy:        16.5295272
  entropy:             9.2356517
  heat_capacity:      12.3126909
  energy:             17.5454489

- temperature:       120.0000000
  free_energy:        16.4314928
  entropy:            10.3793614
  heat_capacity:      14.0170344
  energy:             17.6770162

- temperature:       130.0000000
  free_energy:        16.3217788
  entropy:            11.5713416
  heat_capacity:      15.8004553
  energy:             17.8260532

- temperature:       140.0000000
  free_energy:        16.1999137
  entropy:            12.8089544
  heat_capacity:      17.6265966
  energy:             17.9931673

- temperature:       150.0000000
  free_energy:        16.0654625
  entropy:            14.0876971
  heat_capacity:      19.4624927
  energy:             18.1786171

- temperature:       160.0000000
  free_energy:        15.9180413
  entropy:            15.4019711
  heat_capacity:      21.2804261
  energy:             18.3823566

- temperature:       170.0000000
  free_energy:        15.7573249
  entropy:            16.7456886
  heat_capacity:      23.0584700
  energy:             18.6040920

- temperature:       180.0000000
  free_energy:        15.5830498
  entropy:            18.1127116
  heat_capacity:      24.7802408
  energy:             18.8433379

- temperature:       190.0000000
  free_energy:        15.3950127
  entropy:            19.4971461
  heat_capacity:      26.4342446
  energy:             19.0994705

- temperature:       200.0000000
  free_energy:        15.1930672
  entropy:            20.8935235
  heat_capacity:      28.0130700
  energy:             19.3717719

- temperature:       210.0000000
  free_energy:        14.9771190
  entropy:            22.2968962
  heat_capacity:      29.5125758
  energy:             19.6594672

- temperature:       220.0000000
  free_energy:        14.7471206
  entropy:            23.7028763
  heat_capacity:      30.9311524
  energy:             19.9617534

- temperature:       230.0000000
  free_energy:        14.5030656
  entropy:            25.1076334
  heat_capacity:      32.2690872
  energy:             20.2778213

- temperature:       240.0000000
  free_energy:        14.2449831
  entropy:            26.5078696
  heat_capacity:      33.5280433
  energy:             20.6068718

- temperature:       250.0000000
  free_energy:        13.9729327
  entropy:            27.9007796
  heat_capacity:      34.7106429
  energy:             20.9481276

- temperature:       260.0000000
  free_energy:        13.6869998
  entropy:            29.2840043
  heat_capacity:      35.8201424
  energy:             21.3008409

- temperature:       270.0000000
  free_energy:        13.3872914
  entropy:            30.6555830
  heat_capacity:      36.8601847
  energy:             21.6642989

- temperature:       280.0000000
  free_energy:        13.0739324
  entropy:            32.0139055
  heat_capacity:      37.8346136
  energy:             22.0378259

- temperature:       290.0000000
  free_energy:        12.7470619
  entropy:            33.3576674
  heat_capacity:      38.7473376
  energy:             22.4207855

- temperature:       300.0000000
  free_energy:        12.4068310
  entropy:            34.6858295
  heat_capacity:      39.6022326
  energy:             22.8125799

- temperature:       310.0000000
  free_energy:        12.0534000
  entropy:            35.9975804
  heat_capacity:      40.4030738
  energy:             23.2126499

- temperature:       320.0000000
  free_energy:        11.6869362
  entropy:            37.2923035
  heat_capacity:      41.1534907
  energy:             23.6204733

- temperature:       330.0000000
  free_energy:        11.3076122
  entropy:            38.5695484
  heat_capacity:      41.8569378
  energy:             24.0355632

- temperature:       340.0000000
  free_energy:        10.9156045
  entropy:            39.8290055
  heat_capacity:      42.5166789
  energy:             24.4574664

- temperature:       350.0000000
  free_energy:        10.5110921
  entropy:            41.0704836
  heat_capacity:      43.1357795
  energy:             24.8857613

- temperature:       360.0000000
  free_energy:        10.0942551
  entropy:            42.2938916
  heat_capacity:      43.7171061
  energy:             25.3200561

- temperature:       370.0000000
  free_energy:         9.6652745
  entropy:            43.4992215
  heat_capacity:      44.2633299
  energy:             25.7599865

- temperature:       380.0000000
  free_energy:         9.2243308
  entropy:            44.6865348
  heat_capacity:      44.7769333
  energy:             26.2052140

- temperature:       390.0000000
  free_energy:         8.7716035
  entropy:            45.8559503
  heat_capacity:      45.2602189
  energy:             26.6554241

- temperature:       400.0000000
  free_energy:         8.3072709
  entropy:            47.0076340
  heat_capacity:      45.7153190
  energy:             27.1103244

- temperature:       410.0000000
  free_energy:         7.8315092
  entropy:            48.1417900
  heat_capacity:      46.1442059
  energy:             27.5696431

- temperature:       420.0000000
  free_energy:         7.3444927
  entropy:            49.2586537
  heat_capacity:      46.5487028
  energy:             28.0331273

- temperature:       430.0000000
  free_energy:         6.8463929
  entropy:            50.3584851
  heat_capacity:      46.9304941
  energy:             28.5005415

- temperature:       440.0000000
  free_energy:         6.3373788
  entropy:            51.4415632
  heat_capacity:      47.2911354
  energy:             28.9716667

- temperature:       450.0000000
  free_energy:         5.8176165
  entropy:            52.5081822
  heat_capacity:      47.6320633
  energy:             29.4462985

- temperature:       460.0000000
  free_energy:         5.2872690
  entropy:            53.5586470
  heat_capacity:      47.9546048
  energy:             29.9242467

- temperature:       470.0000000
  free_energy:         4.7464964
  entropy:            54.5932703
  heat_capacity:      48.2599853
  energy:             30.4053334

- temperature:       480.0000000
  free_energy:         4.1954554
  entropy:            55.6123699
  heat_capacity:      48.5493375
  energy:             30.8893929

- temperature:       490.0000000
  free_energy:         3.6342997
  entropy:            56.6162665
  heat_capacity:      48.8237080
  energy:             31.3762702

- temperature:       500.0000000
  free_energy:         3.0631797
  entropy:            57.6052815
  heat_capacity:      49.0840649
  energy:             31.8658204

- temperature:       510.0000000
  free_energy:         2.4822426
  entropy:            58.5797358
  heat_capacity:      49.3313040
  energy:             32.3579078

- temperature:       520.0000000
  free_energy:         1.8916324
  entropy:            59.5399483
  heat_capacity:      49.5662543
  energy:             32.8524055

- temperature:       530.0000000
  free_energy:         1.2914900
  entropy:            60.4862349
  heat_capacity:      49.7896839
  energy:             33.3491945

- temperature:       540.0000000
  free_energy:         0.6819531
  entropy:            61.4189075
  heat_capacity:      50.0023048
  energy:             33.8481632

- temperature:       550.0000000
  free_energy:         0.0631562
  entropy:            62.3382737
  heat_capacity:      50.2047773
  energy:             34.3492068

- temperature:       560.0000000
  free_energy:        -0.5647690
  entropy:            63.2446357
  heat_capacity:      50.3977141
  energy:             34.8522269

- temperature:       570.0000000
  free_energy:        -1.2016941
  entropy:            64.1382900
  heat_capacity:      50.5816846
  energy:             35.3571312

- temperature:       580.0000000
  free_energy:        -1.8474934
  entropy:            65.0195275
  heat_capacity:      50.7572177
  energy:             35.8638325

- temperature:       590.0000000
  free_energy:        -2.5020442
  entropy:            65.8886327
  heat_capacity:      50.9248056
  energy:             36.3722491

- temperature:       600.0000000
  free_energy:        -3.1652266
  entropy:            66.7458837
  heat_capacity:      51.0849061
  energy:             36.8823037

- temperature:       610.0000000
  free_energy:        -3.8369233
  entropy:            67.5915524
  heat_capacity:      51.2379460
  energy:             37.3939236

- temperature:       620.0000000
  free_energy:        -4.5170199
  entropy:            68.4259037
  heat_capacity:      51.3843228
  energy:             37.9070404

- temperature:       630.0000000
  free_energy:        -5.2054045
  entropy:            69.2491963
  heat_capacity:      51.5244075
  energy:             38.4215891

- temperature:       640.0000000
  free_energy:        -5.9019678
  entropy:            70.0616821
  heat_capacity:      51.6585462
  energy:             38.9375087

- temperature:       650.0000000
  free_energy:        -6.6066029
  entropy:            70.8636066
  heat_capacity:      51.7870625
  energy:             39.4547413

- temperature:       660.0000000
  free_energy:        -7.3192055
  entropy:            71.6552087
  heat_capacity:      51.9102586
  energy:             39.9732322

- temperature:       670.0000000
  free_energy:        -8.0396735
  entropy:            72.4367212
  heat_capacity:      52.0284174
  energy:             40.4929297

- temperature:       680.0000000
  free_energy:        -8.7679071
  entropy:            73.2083702
  heat_capacity:      52.1418038
  energy:             41.0137847

- temperature:       690.0000000
  free_energy:        -9.5038088
  entropy:            73.9703760
  heat_capacity:      52.2506656
  energy:             41.5357507

- temperature:       700.0000000
  free_energy:       -10.2472832
  entropy:            74.7229526
  heat_capacity:      52.3552354
  energy:             42.0587837

- temperature:       710.0000000
  free_energy:       -10.9982371
  entropy:            75.4663083
  heat_capacity:      52.4557314
  energy:             42.5828418

- temperature:       720.0000000
  free_energy:       -11.7565793
  entropy:            76.2006454
  heat_capacity:      52.5523582
  energy:             43.1078854

- temperature:       730.0000000
  free_energy:       -12.5222206
  entropy:            76.9261607
  heat_capacity:      52.6453081
  energy:             43.6338767

- temperature:       740.0000000
  free_energy:       -13.2950737
  entropy:            77.6430455
  heat_capacity:      52.7347620
  energy:             44.1607799

- temperature:       750.0000000
  free_energy:       -14.0750533
  entropy:            78.3514856
  heat_capacity:      52.8208897
  energy:             44.6885609

- temperature:       760.0000000
  free_energy:       -14.8620759
  entropy:            79.0516619
  heat_capacity:      52.9038514
  energy:             45.2171872

- temperature:       770.0000000
  free_energy:       -15.6560596
  entropy:            79.7437500
  heat_capacity:      52.9837977
  energy:             45.7466279

- temperature:       780.0000000
  free_energy:       -16.4569245
  entropy:            80.4279206
  heat_capacity:      53.0608705
  energy:             46.2768535

- temperature:       790.0000000
  free_energy:       -17.2645922
  entropy:            81.1043396
  heat_capacity:      53.1352037
  energy:             46.8078361

- temperature:       800.0000000
  free_energy:       -18.0789860
  entropy:            81.7731686
  heat_capacity:      53.2069236
  energy:             47.3395489

- temperature:       810.0000000
  free_energy:       -18.9000308
  entropy:            82.4345643
  heat_capacity:      53.2761495
  energy:             47.8719663

- temperature:       820.0000000
  free_energy:       -19.7276530
  entropy:            83.0886792
  heat_capacity:      53.3429938
  energy:             48.4050640

- temperature:       830.0000000
  free_energy:       -20.5617806
  entropy:            83.7356617
  heat_capacity:      53.4075632
  energy:             48.9388186

- temperature:       840.0000000
  free_energy:       -21.4023429
  entropy:            84.3756558
  heat_capacity:      53.4699581
  energy:             49.4732080

- temperature:       850.0000000
  free_energy:       -22.2492709
  entropy:            85.0088020
  heat_capacity:      53.5302739
  energy:             50.0082108

- temperature:       860.0000000
  free_energy:       -23.1024966
  entropy:            85.6352365
  heat_capacity:      53.5886006
  energy:             50.5438068

- temperature:       870.0000000
  free_energy:       -23.9619537
  entropy:            86.2550922
  heat_capacity:      53.6450236
  energy:             51.0799765

- temperature:       880.0000000
  free_energy:       -24.8275770
  entropy:            86.8684979
  heat_capacity:      53.6996238
  energy:             51.6167012

- temperature:       890.0000000
  free_energy:       -25.6993026
  entropy:            87.4755794
  heat_capacity:      53.7524779
  energy:             52.1539631

- temperature:       900.0000000
  free_energy:       -26.5770679
  entropy:            88.0764590
  heat_capacity:      53.8036588
  energy:             52.6917452

- temperature:       910.0000000
  free_energy:       -27.4608115
  entropy:            88.6712554
  heat_capacity:      53.8532353
  energy:             53.2300310

- temperature:       920.0000000
  free_energy:       -28.3504731
  entropy:            89.2600846
  heat_capacity:      53.9012732
  energy:             53.7688048

- temperature:       930.0000000
  free_energy:       -29.2459936
  entropy:            89.8430593
  heat_capacity:      53.9478348
  energy:             54.3080515

- temperature:       940.0000000
  free_energy:       -30.1473151
  entropy:            90.4202892
  heat_capacity:      53.9929791
  energy:             54.8477567

- temperature:       950.0000000
  free_energy:       -31.0543806
  entropy:            90.9918813
  heat_capacity:      54.0367627
  energy:             55.3879066

- temperature:       960.0000000
  free_energy:       -31.9671343
  entropy:            91.5579395
  heat_capacity:      54.0792390
  energy:             55.9284876

- temperature:       970.0000000
  free_energy:       -32.8855213
  entropy:            92.1185654
  heat_capacity:      54.1204590
  energy:             56.4694872

- temperature:       980.0000000
  free_energy:       -33.8094878
  entropy:            92.6738578
  heat_capacity:      54.1604713
  energy:             57.0108928

- temperature:       990.0000000
  free_energy:       -34.7389810
  entropy:            93.2239129
  heat_capacity:      54.1993221
  energy:             57.5526927

- temperature:      1000.0000000
  free_energy:       -35.6739489
  entropy:            93.7688245
  heat_capacity:      54.2370556
  energy:             58.0948755
