graphite                                
           1
     2.466141    0.002940    0.000000
    -1.230525    2.137211    0.000000
     0.000000    0.000000    7.276531
   C 
   4
Direct configuration=     1
   0.99981862  0.00018142  0.25000000
   0.00018142  0.99981862  0.75000000
   0.33262049  0.66737949  0.25000000
   0.66737949  0.33262049  0.75000000
Direct configuration=     2
   0.99832604  0.00167401  0.25000000
   0.00167401  0.99832604  0.75000000
   0.33408625  0.66591373  0.25000000
   0.66591373  0.33408625  0.75000000
Direct configuration=     3
   0.99950270  0.00049735  0.25000000
   0.00049735  0.99950270  0.75000000
   0.33293074  0.66706924  0.25000000
   0.66706924  0.33293074  0.75000000
