       N       E                     dE             d eps       ncg     rms          rms(c)
DAV:   1     0.706219025861E+03    0.70622E+03   -0.84047E+04 12768   0.200E+03
DAV:   2    -0.254650686192E+03   -0.96087E+03   -0.92563E+03 15852   0.341E+02
DAV:   3    -0.312663391704E+03   -0.58013E+02   -0.57409E+02 15552   0.824E+01
DAV:   4    -0.313809538946E+03   -0.11461E+01   -0.11437E+01 15936   0.124E+01
DAV:   5    -0.313843298411E+03   -0.33759E-01   -0.33747E-01 16296   0.202E+00    0.221E+01
DAV:   6    -0.299393645760E+03    0.14450E+02   -0.14894E+01 14592   0.107E+01    0.116E+01
DAV:   7    -0.294808496021E+03    0.45851E+01   -0.15744E+01 14460   0.110E+01    0.197E+00
DAV:   8    -0.294879524071E+03   -0.71028E-01   -0.74699E-01 15120   0.217E+00    0.820E-01
DAV:   9    -0.294876239238E+03    0.32848E-02   -0.53232E-02 14808   0.798E-01    0.445E-01
DAV:  10    -0.294868480447E+03    0.77588E-02   -0.46980E-02 20304   0.523E-01    0.135E-01
DAV:  11    -0.294869442982E+03   -0.96254E-03   -0.11873E-02 14544   0.257E-01    0.101E-01
DAV:  12    -0.294869367055E+03    0.75927E-04   -0.91814E-04 15648   0.999E-02    0.809E-02
DAV:  13    -0.294869607667E+03   -0.24061E-03   -0.42265E-03 16332   0.942E-02    0.116E-01
DAV:  14    -0.294870158948E+03   -0.55128E-03   -0.41935E-03 19440   0.139E-01    0.106E-01
DAV:  15    -0.294870080232E+03    0.78716E-04   -0.19869E-04 14532   0.448E-02    0.105E-01
DAV:  16    -0.294869751712E+03    0.32852E-03   -0.20515E-04 22572   0.630E-02    0.902E-02
DAV:  17    -0.294869601146E+03    0.15057E-03   -0.37315E-03 23424   0.109E-01    0.685E-02
DAV:  18    -0.294869503932E+03    0.97214E-04   -0.29233E-04 14436   0.416E-02    0.265E-02
DAV:  19    -0.294869503341E+03    0.59076E-06   -0.42832E-05 15096   0.130E-02    0.189E-02
DAV:  20    -0.294869505302E+03   -0.19612E-05   -0.38156E-05 18744   0.779E-03    0.262E-02
DAV:  21    -0.294869519098E+03   -0.13796E-04   -0.34204E-04 19176   0.144E-02    0.461E-02
DAV:  22    -0.294869528432E+03   -0.93334E-05   -0.47685E-06 14640   0.437E-03    0.496E-02
DAV:  23    -0.294869506869E+03    0.21562E-04   -0.31302E-04 22824   0.194E-02    0.289E-02
DAV:  24    -0.294869505235E+03    0.16349E-05   -0.21079E-06 14340   0.389E-03    0.266E-02
DAV:  25    -0.294869501820E+03    0.34144E-05   -0.10034E-05 18876   0.308E-03    0.115E-02
DAV:  26    -0.294869501465E+03    0.35509E-06   -0.50128E-06 15072   0.197E-03    0.793E-03
DAV:  27    -0.294869501509E+03   -0.44151E-07   -0.25897E-06 14556   0.111E-03    0.765E-03
DAV:  28    -0.294869501708E+03   -0.19872E-06   -0.26099E-07  9012   0.522E-04    0.102E-02
DAV:  29    -0.294869501908E+03   -0.20006E-06   -0.95351E-08  9156   0.485E-04    0.110E-02
DAV:  30    -0.294869501647E+03    0.26137E-06   -0.19588E-06 13812   0.922E-04    0.715E-03
DAV:  31    -0.294869502370E+03   -0.72378E-06   -0.55973E-06 13080   0.148E-03    0.155E-02
DAV:  32    -0.294869501998E+03    0.37243E-06   -0.31078E-07 12972   0.845E-04    0.133E-02
DAV:  33    -0.294869501163E+03    0.83478E-06   -0.59203E-06 15552   0.241E-03    0.408E-03
DAV:  34    -0.294869501056E+03    0.10711E-06   -0.64199E-07 15804   0.158E-03    0.213E-03
DAV:  35    -0.294869501115E+03   -0.58679E-07   -0.11571E-06 10080   0.697E-04    0.550E-03
DAV:  36    -0.294869501049E+03    0.66242E-07   -0.25389E-07  9036   0.458E-04    0.241E-03
DAV:  37    -0.294869501046E+03    0.23238E-08   -0.35965E-09  8940   0.180E-04
   1 F= -.29984047E+03 E0= -.29984047E+03  d E =0.000000E+00
