natom:   16
displacements:
- atom:    1
  direction:
    [   1.0000000000000000,  0.0000000000000000,  0.0000000000000000 ]
  displacement:
    [   0.0100000000000000,  0.0000000000000000,  0.0000000000000000 ]
lattice:
- [     5.197471083431993,     0.000000000000000,     0.000000000000000 ] # a
- [     2.598735541616668,     4.501141993705948,     0.000000000000000 ] # b
- [     2.598735541616668,     1.500380664502430,     4.243717368941141 ] # c
points:
- symbol: C  # 1
  coordinates: [  0.000000000000000,  0.000000000000000,  0.000000000000000 ]
  mass: 12.010700
- symbol: C  # 2
  coordinates: [  0.500000000000000,  0.000000000000000,  0.000000000000000 ]
  mass: 12.010700
- symbol: C  # 3
  coordinates: [  0.000000000000000,  0.500000000000000,  0.000000000000000 ]
  mass: 12.010700
- symbol: C  # 4
  coordinates: [  0.500000000000000,  0.500000000000000,  0.000000000000000 ]
  mass: 12.010700
- symbol: C  # 5
  coordinates: [  0.000000000000000,  0.000000000000000,  0.500000000000000 ]
  mass: 12.010700
- symbol: C  # 6
  coordinates: [  0.500000000000000,  0.000000000000000,  0.500000000000000 ]
  mass: 12.010700
- symbol: C  # 7
  coordinates: [  0.000000000000000,  0.500000000000000,  0.500000000000000 ]
  mass: 12.010700
- symbol: C  # 8
  coordinates: [  0.500000000000000,  0.500000000000000,  0.500000000000000 ]
  mass: 12.010700
- symbol: C  # 9
  coordinates: [  0.125000000000000,  0.125000000000000,  0.124999992500000 ]
  mass: 12.010700
- symbol: C  # 10
  coordinates: [  0.625000000000000,  0.125000000000000,  0.124999992500000 ]
  mass: 12.010700
- symbol: C  # 11
  coordinates: [  0.125000000000000,  0.625000000000000,  0.124999992500000 ]
  mass: 12.010700
- symbol: C  # 12
  coordinates: [  0.625000000000000,  0.625000000000000,  0.124999992500000 ]
  mass: 12.010700
- symbol: C  # 13
  coordinates: [  0.125000000000000,  0.125000000000000,  0.624999992500000 ]
  mass: 12.010700
- symbol: C  # 14
  coordinates: [  0.625000000000000,  0.125000000000000,  0.624999992500000 ]
  mass: 12.010700
- symbol: C  # 15
  coordinates: [  0.125000000000000,  0.625000000000000,  0.624999992500000 ]
  mass: 12.010700
- symbol: C  # 16
  coordinates: [  0.625000000000000,  0.625000000000000,  0.624999992500000 ]
  mass: 12.010700