32   
4    

1    
  0.0034858585821386  -0.0000013562800853   0.0093727684333837
  -0.2246050200    0.0084596600   -0.1315510300
   0.0295185100    0.0074643500   -0.0019439700
  -0.0075481000   -0.0139552700   -0.0018733300
  -0.0076598000    0.0290057000   -0.0021010200
  -0.0142144400    0.0071962800    0.0049493200
  -0.0141780400    0.0071976200    0.0049874200
  -0.0141932500    0.0071879800    0.0049873700
  -0.0141918600    0.0072049600    0.0049876900
   0.0128001700   -0.0082156400   -0.0050467100
   0.0125672700   -0.0083117700   -0.0051296000
   0.0127653100   -0.0080585300   -0.0050855400
   0.0125869800   -0.0082093400   -0.0044313900
   0.0130539700   -0.0063474600   -0.0051735200
   0.0132531500   -0.0064253800   -0.0050973300
   0.0132175400   -0.0065683800   -0.0051370800
   0.0130447400   -0.0064586000   -0.0042892100
   0.0065867200   -0.0061791500    0.0117962500
   0.0342357000   -0.0068863200    0.0465140300
   0.0801523900    0.0202171800    0.0469269600
   0.0803591200   -0.0328459100    0.0460241600
   0.0119944300   -0.0059991800   -0.0007269200
   0.0119949800   -0.0059990600   -0.0007063800
   0.0119968100   -0.0059988000   -0.0007073300
   0.0119961200   -0.0060003600   -0.0007025800
  -0.0111762200    0.0071163100    0.0012554000
  -0.0104790800    0.0072297100    0.0012938000
  -0.0109268200    0.0065841500    0.0012831900
  -0.0107364800    0.0069717900    0.0004513500
  -0.0102715600    0.0049356600    0.0012988400
  -0.0108155400    0.0050577100    0.0012366900
  -0.0106525300    0.0054729100    0.0012464700
  -0.0104751800    0.0051571700    0.0004640000

1    
 -0.0034858585821386   0.0000013562800853  -0.0093727684333837
   0.1992461100    0.0081897000    0.1316670500
  -0.0548940700    0.0071980100    0.0020698100
  -0.0177166400    0.0286815500    0.0021386500
  -0.0178229700   -0.0142826300    0.0020880100
  -0.0118175400    0.0075842000   -0.0048313400
  -0.0118529500    0.0075841100   -0.0048712800
  -0.0118388900    0.0075916800   -0.0048714100
  -0.0118384900    0.0075749000   -0.0048715700
   0.0125687600   -0.0084998900    0.0049862400
   0.0127763400   -0.0084096900    0.0050628700
   0.0125977900   -0.0086363500    0.0050221500
   0.0127688000   -0.0084985900    0.0041758500
   0.0131642700   -0.0067302400    0.0049933100
   0.0129442500   -0.0066515200    0.0049102700
   0.0129873700   -0.0064868800    0.0049545700
   0.0131450300   -0.0066029900    0.0042907900
   0.0143815000   -0.0060161800   -0.0118101900
  -0.0132694300   -0.0065076400   -0.0465294400
  -0.0595772200   -0.0327228000   -0.0461035500
  -0.0590000600    0.0203373900   -0.0468749700
   0.0096036300   -0.0062402400    0.0007307000
   0.0096028800   -0.0062404700    0.0007103000
   0.0096018000   -0.0062404900    0.0007094700
   0.0096016600   -0.0062393700    0.0007078100
  -0.0105760400    0.0071578100   -0.0012267800
  -0.0111319300    0.0070461500   -0.0012700100
  -0.0107541300    0.0075671100   -0.0012608200
  -0.0109396500    0.0072623300   -0.0004485900
  -0.0108351200    0.0055664600   -0.0013192800
  -0.0101570300    0.0054476300   -0.0012340100
  -0.0103924800    0.0049100800   -0.0012443900
  -0.0105755300    0.0053068600   -0.0004502400

17   
  0.0034858585821386  -0.0000013562800853   0.0093727684333837
  -0.0172387700    0.0073618600    0.0077171000
   0.0104135500    0.0078704200    0.0424378600
   0.0567107200    0.0340481800    0.0420108400
   0.0561570200   -0.0190001200    0.0427802400
  -0.0118001400    0.0076223200   -0.0048152300
  -0.0117994100    0.0076232300   -0.0047947000
  -0.0117987900    0.0076232000   -0.0047983700
  -0.0117978500    0.0076213600   -0.0047878800
   0.0132005300   -0.0087595700    0.0052590900
   0.0133662400   -0.0086848200    0.0054641000
   0.0132245500   -0.0088031900    0.0053582000
   0.0133635300   -0.0087440000    0.0045450200
   0.0129021400   -0.0066062700    0.0054693700
   0.0127547800   -0.0064338400    0.0052097500
   0.0126849500   -0.0064541300    0.0053264500
   0.0129137300   -0.0065084500    0.0045297700
  -0.2007113800   -0.0069391200   -0.1355404300
   0.0531832400   -0.0059636800   -0.0067426000
   0.0167063400   -0.0270404600   -0.0068082400
   0.0168143300    0.0151378400   -0.0067777500
   0.0094089800   -0.0062604600    0.0008312400
   0.0094024400   -0.0062599900    0.0006222700
   0.0094057400   -0.0062588200    0.0006223100
   0.0094057300   -0.0062630700    0.0006238200
  -0.0116869000    0.0075298600   -0.0003972400
  -0.0113293800    0.0075073100   -0.0003264300
  -0.0114840600    0.0072227500   -0.0003956900
  -0.0115192900    0.0074036700   -0.0007388700
  -0.0100232400    0.0050090600   -0.0002671800
  -0.0103847000    0.0049799700   -0.0004613900
  -0.0101741000    0.0053026700   -0.0004024700
  -0.0102705300    0.0051162900   -0.0007529800

17   
 -0.0034858585821386   0.0000013562800853  -0.0093727684333837
  -0.0081930900    0.0074898900   -0.0076223400
  -0.0358437300    0.0081919600   -0.0423379800
  -0.0817696900   -0.0189026300   -0.0427524000
  -0.0819524100    0.0341468700   -0.0418516100
  -0.0148536400    0.0072756600    0.0049005400
  -0.0148544400    0.0072765400    0.0048801300
  -0.0148560600    0.0072746700    0.0048762900
  -0.0148555300    0.0072767100    0.0048809200
   0.0135527600   -0.0086111400   -0.0053335600
   0.0133963500   -0.0086732900   -0.0055474100
   0.0135233900   -0.0085565900   -0.0054297400
   0.0133852700   -0.0086184700   -0.0046351700
   0.0129356500   -0.0063021700   -0.0055622800
   0.0130833300   -0.0064959300   -0.0053389700
   0.0131720000   -0.0064687500   -0.0054444500
   0.0129441100   -0.0064148300   -0.0046280300
   0.2217364900   -0.0072253100    0.1355016800
  -0.0321430100   -0.0062226300    0.0067260200
   0.0042224200    0.0147945000    0.0066586700
   0.0043319400   -0.0273756300    0.0068975600
   0.0128091200   -0.0060939100   -0.0008370600
   0.0128147500   -0.0060934900   -0.0006269100
   0.0128117100   -0.0060959400   -0.0006270000
   0.0128114600   -0.0060919500   -0.0006281200
  -0.0114716000    0.0073349700    0.0004175800
  -0.0118243400    0.0073729900    0.0003504400
  -0.0116849800    0.0076554300    0.0004093400
  -0.0116415900    0.0074699900    0.0007463400
  -0.0105993200    0.0052790100    0.0002794800
  -0.0102325600    0.0052735500    0.0004831100
  -0.0104153500    0.0049723900    0.0004157300
  -0.0103394400    0.0051575300    0.0007792200
