# Thermal properties / unit cell (natom)

unit:
  temperature:   K
  free_energy:   kJ/mol
  entropy:       J/K/mol
  heat_capacity: J/K/mol

natom:     2
num_modes: 1944
num_integrated_modes: 1944

zero_point_energy:      31.7568846
high_T_entropy:        112.8416734

thermal_properties:
- temperature:         0.0000000
  free_energy:        31.7568846
  entropy:             0.0000000
  heat_capacity:       0.0000000
  energy:             31.7568846

- temperature:        10.0000000
  free_energy:        31.7568846
  entropy:             0.0000000
  heat_capacity:       0.0000000
  energy:             31.7568846

- temperature:        20.0000000
  free_energy:        31.7568846
  entropy:             0.0000092
  heat_capacity:       0.0001096
  energy:             31.7568848

- temperature:        30.0000000
  free_energy:        31.7568831
  entropy:             0.0004922
  heat_capacity:       0.0039327
  energy:             31.7568979

- temperature:        40.0000000
  free_energy:        31.7568659
  entropy:             0.0036858
  heat_capacity:       0.0225547
  energy:             31.7570133

- temperature:        50.0000000
  free_energy:        31.7567896
  entropy:             0.0127983
  heat_capacity:       0.0651923
  energy:             31.7574295

- temperature:        60.0000000
  free_energy:        31.7565810
  entropy:             0.0305636
  heat_capacity:       0.1371389
  energy:             31.7584148

- temperature:        70.0000000
  free_energy:        31.7561421
  entropy:             0.0592109
  heat_capacity:       0.2434854
  energy:             31.7602868

- temperature:        80.0000000
  free_energy:        31.7553535
  entropy:             0.1008284
  heat_capacity:       0.3904328
  energy:             31.7634198

- temperature:        90.0000000
  free_energy:        31.7540752
  entropy:             0.1575261
  heat_capacity:       0.5844726
  energy:             31.7682526

- temperature:       100.0000000
  free_energy:        31.7521458
  entropy:             0.2313909
  heat_capacity:       0.8311341
  energy:             31.7752849

- temperature:       110.0000000
  free_energy:        31.7493837
  entropy:             0.3243633
  heat_capacity:       1.1342527
  energy:             31.7850636

- temperature:       120.0000000
  free_energy:        31.7455892
  entropy:             0.4381327
  heat_capacity:       1.4958685
  energy:             31.7981651

- temperature:       130.0000000
  free_energy:        31.7405471
  entropy:             0.5740827
  heat_capacity:       1.9164819
  energy:             31.8151778

- temperature:       140.0000000
  free_energy:        31.7340300
  entropy:             0.7332798
  heat_capacity:       2.3953911
  energy:             31.8366891

- temperature:       150.0000000
  free_energy:        31.7258014
  entropy:             0.9164880
  heat_capacity:       2.9309632
  energy:             31.8632746

- temperature:       160.0000000
  free_energy:        31.7156185
  entropy:             1.1241929
  heat_capacity:       3.5208106
  energy:             31.8954894

- temperature:       170.0000000
  free_energy:        31.7032351
  entropy:             1.3566270
  heat_capacity:       4.1619000
  energy:             31.9338617

- temperature:       180.0000000
  free_energy:        31.6884035
  entropy:             1.6137929
  heat_capacity:       4.8506309
  energy:             31.9788863

- temperature:       190.0000000
  free_energy:        31.6708774
  entropy:             1.8954845
  heat_capacity:       5.5829153
  energy:             32.0310195

- temperature:       200.0000000
  free_energy:        31.6504134
  entropy:             2.2013072
  heat_capacity:       6.3542698
  energy:             32.0906748

- temperature:       210.0000000
  free_energy:        31.6267727
  entropy:             2.5306977
  heat_capacity:       7.1599224
  energy:             32.1582192

- temperature:       220.0000000
  free_energy:        31.5997232
  entropy:             2.8829450
  heat_capacity:       7.9949280
  energy:             32.2339711

- temperature:       230.0000000
  free_energy:        31.5690404
  entropy:             3.2572111
  heat_capacity:       8.8542842
  energy:             32.3181990

- temperature:       240.0000000
  free_energy:        31.5345087
  entropy:             3.6525530
  heat_capacity:       9.7330397
  energy:             32.4111215

- temperature:       250.0000000
  free_energy:        31.4959225
  entropy:             4.0679435
  heat_capacity:      10.6263893
  energy:             32.5129084

- temperature:       260.0000000
  free_energy:        31.4530867
  entropy:             4.5022920
  heat_capacity:      11.5297531
  energy:             32.6236826

- temperature:       270.0000000
  free_energy:        31.4058173
  entropy:             4.9544637
  heat_capacity:      12.4388369
  energy:             32.7435225

- temperature:       280.0000000
  free_energy:        31.3539419
  entropy:             5.4232974
  heat_capacity:      13.3496753
  energy:             32.8724651

- temperature:       290.0000000
  free_energy:        31.2972997
  entropy:             5.9076209
  heat_capacity:      14.2586582
  energy:             33.0105098

- temperature:       300.0000000
  free_energy:        31.2357417
  entropy:             6.4062652
  heat_capacity:      15.1625444
  energy:             33.1576213

- temperature:       310.0000000
  free_energy:        31.1691305
  entropy:             6.9180760
  heat_capacity:      16.0584618
  energy:             33.3137340

- temperature:       320.0000000
  free_energy:        31.0973401
  entropy:             7.4419233
  heat_capacity:      16.9439001
  energy:             33.4787555

- temperature:       330.0000000
  free_energy:        31.0202556
  entropy:             7.9767100
  heat_capacity:      17.8166953
  energy:             33.6525699

- temperature:       340.0000000
  free_energy:        30.9377729
  entropy:             8.5213771
  heat_capacity:      18.6750100
  energy:             33.8350411

- temperature:       350.0000000
  free_energy:        30.8497985
  entropy:             9.0749090
  heat_capacity:      19.5173100
  energy:             34.0260167

- temperature:       360.0000000
  free_energy:        30.7562484
  entropy:             9.6363370
  heat_capacity:      20.3423395
  energy:             34.2253297

- temperature:       370.0000000
  free_energy:        30.6570485
  entropy:            10.2047405
  heat_capacity:      21.1490948
  energy:             34.4328025

- temperature:       380.0000000
  free_energy:        30.5521333
  entropy:            10.7792496
  heat_capacity:      21.9367994
  energy:             34.6482481

- temperature:       390.0000000
  free_energy:        30.4414459
  entropy:            11.3590440
  heat_capacity:      22.7048784
  energy:             34.8714731

- temperature:       400.0000000
  free_energy:        30.3249374
  entropy:            11.9433539
  heat_capacity:      23.4529353
  energy:             35.1022789

- temperature:       410.0000000
  free_energy:        30.2025662
  entropy:            12.5314586
  heat_capacity:      24.1807293
  energy:             35.3404642

- temperature:       420.0000000
  free_energy:        30.0742978
  entropy:            13.1226853
  heat_capacity:      24.8881554
  energy:             35.5858256

- temperature:       430.0000000
  free_energy:        29.9401042
  entropy:            13.7164076
  heat_capacity:      25.5752248
  energy:             35.8381594

- temperature:       440.0000000
  free_energy:        29.7999633
  entropy:            14.3120440
  heat_capacity:      26.2420485
  energy:             36.0972626

- temperature:       450.0000000
  free_energy:        29.6538587
  entropy:            14.9090553
  heat_capacity:      26.8888215
  energy:             36.3629336

- temperature:       460.0000000
  free_energy:        29.5017792
  entropy:            15.5069431
  heat_capacity:      27.5158092
  energy:             36.6349731

- temperature:       470.0000000
  free_energy:        29.3437184
  entropy:            16.1052477
  heat_capacity:      28.1233354
  energy:             36.9131849

- temperature:       480.0000000
  free_energy:        29.1796743
  entropy:            16.7035455
  heat_capacity:      28.7117712
  energy:             37.1973762

- temperature:       490.0000000
  free_energy:        29.0096489
  entropy:            17.3014473
  heat_capacity:      29.2815258
  energy:             37.4873580

- temperature:       500.0000000
  free_energy:        28.8336479
  entropy:            17.8985960
  heat_capacity:      29.8330384
  energy:             37.7829459

- temperature:       510.0000000
  free_energy:        28.6516805
  entropy:            18.4946647
  heat_capacity:      30.3667706
  energy:             38.0839595

- temperature:       520.0000000
  free_energy:        28.4637592
  entropy:            19.0893546
  heat_capacity:      30.8832009
  energy:             38.3902236

- temperature:       530.0000000
  free_energy:        28.2698990
  entropy:            19.6823935
  heat_capacity:      31.3828185
  energy:             38.7015675

- temperature:       540.0000000
  free_energy:        28.0701176
  entropy:            20.2735332
  heat_capacity:      31.8661197
  energy:             39.0178256

- temperature:       550.0000000
  free_energy:        27.8644354
  entropy:            20.8625487
  heat_capacity:      32.3336036
  energy:             39.3388372

- temperature:       560.0000000
  free_energy:        27.6528744
  entropy:            21.4492360
  heat_capacity:      32.7857686
  energy:             39.6644466

- temperature:       570.0000000
  free_energy:        27.4354590
  entropy:            22.0334107
  heat_capacity:      33.2231101
  energy:             39.9945031

- temperature:       580.0000000
  free_energy:        27.2122152
  entropy:            22.6149067
  heat_capacity:      33.6461184
  energy:             40.3288610

- temperature:       590.0000000
  free_energy:        26.9831703
  entropy:            23.1935746
  heat_capacity:      34.0552761
  energy:             40.6673793

- temperature:       600.0000000
  free_energy:        26.7483535
  entropy:            23.7692807
  heat_capacity:      34.4510573
  energy:             41.0099219

- temperature:       610.0000000
  free_energy:        26.5077950
  entropy:            24.3419056
  heat_capacity:      34.8339261
  energy:             41.3563574

- temperature:       620.0000000
  free_energy:        26.2615260
  entropy:            24.9113434
  heat_capacity:      35.2043357
  energy:             41.7065589

- temperature:       630.0000000
  free_energy:        26.0095791
  entropy:            25.4775000
  heat_capacity:      35.5627275
  energy:             42.0604041

- temperature:       640.0000000
  free_energy:        25.7519873
  entropy:            26.0402931
  heat_capacity:      35.9095311
  energy:             42.4177749

- temperature:       650.0000000
  free_energy:        25.4887846
  entropy:            26.5996505
  heat_capacity:      36.2451631
  energy:             42.7785575

- temperature:       660.0000000
  free_energy:        25.2200059
  entropy:            27.1555096
  heat_capacity:      36.5700277
  energy:             43.1426422

- temperature:       670.0000000
  free_energy:        24.9456863
  entropy:            27.7078166
  heat_capacity:      36.8845158
  energy:             43.5099234

- temperature:       680.0000000
  free_energy:        24.6658616
  entropy:            28.2565260
  heat_capacity:      37.1890057
  energy:             43.8802992

- temperature:       690.0000000
  free_energy:        24.3805679
  entropy:            28.8015993
  heat_capacity:      37.4838628
  energy:             44.2536714

- temperature:       700.0000000
  free_energy:        24.0898418
  entropy:            29.3430053
  heat_capacity:      37.7694395
  energy:             44.6299455

- temperature:       710.0000000
  free_energy:        23.7937201
  entropy:            29.8807188
  heat_capacity:      38.0460760
  energy:             45.0090304

- temperature:       720.0000000
  free_energy:        23.4922398
  entropy:            30.4147202
  heat_capacity:      38.3140997
  energy:             45.3908384

- temperature:       730.0000000
  free_energy:        23.1854381
  entropy:            30.9449954
  heat_capacity:      38.5738264
  energy:             45.7752848

- temperature:       740.0000000
  free_energy:        22.8733524
  entropy:            31.4715350
  heat_capacity:      38.8255598
  energy:             46.1622882

- temperature:       750.0000000
  free_energy:        22.5560199
  entropy:            31.9943339
  heat_capacity:      39.0695921
  energy:             46.5517703

- temperature:       760.0000000
  free_energy:        22.2334781
  entropy:            32.5133911
  heat_capacity:      39.3062046
  energy:             46.9436554

- temperature:       770.0000000
  free_energy:        21.9057645
  entropy:            33.0287091
  heat_capacity:      39.5356675
  energy:             47.3378706

- temperature:       780.0000000
  free_energy:        21.5729164
  entropy:            33.5402940
  heat_capacity:      39.7582406
  energy:             47.7343457

- temperature:       790.0000000
  free_energy:        21.2349711
  entropy:            34.0481547
  heat_capacity:      39.9741737
  energy:             48.1330132

- temperature:       800.0000000
  free_energy:        20.8919657
  entropy:            34.5523027
  heat_capacity:      40.1837067
  energy:             48.5338079

- temperature:       810.0000000
  free_energy:        20.5439373
  entropy:            35.0527524
  heat_capacity:      40.3870699
  energy:             48.9366668

- temperature:       820.0000000
  free_energy:        20.1909229
  entropy:            35.5495202
  heat_capacity:      40.5844849
  energy:             49.3415295

- temperature:       830.0000000
  free_energy:        19.8329591
  entropy:            36.0426244
  heat_capacity:      40.7761642
  energy:             49.7483374

- temperature:       840.0000000
  free_energy:        19.4700826
  entropy:            36.5320854
  heat_capacity:      40.9623120
  energy:             50.1570343

- temperature:       850.0000000
  free_energy:        19.1023295
  entropy:            37.0179251
  heat_capacity:      41.1431244
  energy:             50.5675659

- temperature:       860.0000000
  free_energy:        18.7297361
  entropy:            37.5001669
  heat_capacity:      41.3187898
  energy:             50.9798796

- temperature:       870.0000000
  free_energy:        18.3523381
  entropy:            37.9788356
  heat_capacity:      41.4894889
  energy:             51.3939251

- temperature:       880.0000000
  free_energy:        17.9701712
  entropy:            38.4539571
  heat_capacity:      41.6553954
  energy:             51.8096534

- temperature:       890.0000000
  free_energy:        17.5832707
  entropy:            38.9255583
  heat_capacity:      41.8166762
  energy:             52.2270176

- temperature:       900.0000000
  free_energy:        17.1916716
  entropy:            39.3936671
  heat_capacity:      41.9734914
  energy:             52.6459721

- temperature:       910.0000000
  free_energy:        16.7954089
  entropy:            39.8583123
  heat_capacity:      42.1259949
  energy:             53.0664730

- temperature:       920.0000000
  free_energy:        16.3945169
  entropy:            40.3195231
  heat_capacity:      42.2743345
  energy:             53.4884781

- temperature:       930.0000000
  free_energy:        15.9890298
  entropy:            40.7773296
  heat_capacity:      42.4186521
  energy:             53.9119463

- temperature:       940.0000000
  free_energy:        15.5789815
  entropy:            41.2317624
  heat_capacity:      42.5590841
  energy:             54.3368382

- temperature:       950.0000000
  free_energy:        15.1644057
  entropy:            41.6828525
  heat_capacity:      42.6957616
  energy:             54.7631155

- temperature:       960.0000000
  free_energy:        14.7453355
  entropy:            42.1306311
  heat_capacity:      42.8288106
  energy:             55.1907413

- temperature:       970.0000000
  free_energy:        14.3218040
  entropy:            42.5751299
  heat_capacity:      42.9583521
  energy:             55.6196800

- temperature:       980.0000000
  free_energy:        13.8938437
  entropy:            43.0163810
  heat_capacity:      43.0845025
  energy:             56.0498971

- temperature:       990.0000000
  free_energy:        13.4614871
  entropy:            43.4544162
  heat_capacity:      43.2073735
  energy:             56.4813591

- temperature:      1000.0000000
  free_energy:        13.0247660
  entropy:            43.8892680
  heat_capacity:      43.3270728
  energy:             56.9140340
