<?xml version="1.0" encoding="ISO-8859-1"?>
<modeling>
 <generator>
  <i name="program" type="string">vasp </i>
  <i name="version" type="string">5.3.5  </i>
  <i name="subversion" type="string">31Mar14 (build Nov 02 2014 15:17:37) complex                          parallel </i>
  <i name="platform" type="string">ion-Intel-MKL </i>
  <i name="date" type="string">2017 02 12 </i>
  <i name="time" type="string">19:10:04 </i>
 </generator>
 <incar>
  <i type="string" name="SYSTEM">graphite</i>
  <i type="string" name="PREC">accurate</i>
  <i type="int" name="NELM">   200</i>
  <i type="int" name="IBRION">     2</i>
  <i name="EDIFF">      0.00000001</i>
  <i name="EDIFFG">      0.00100000</i>
  <i type="int" name="NSW">   200</i>
  <i type="int" name="ISIF">     2</i>
  <i name="ENCUT">    800.00000000</i>
  <i type="int" name="ISMEAR">    -5</i>
  <i type="logical" name="LWAVE"> F  </i>
  <i type="logical" name="LCHARG"> F  </i>
  <i type="int" name="NELM">   200</i>
  <i type="string" name="GGA">PE</i>
 </incar>
 <kpoints>
  <generation param="Gamma">
   <v type="int" name="divisions">      12       12        8 </v>
   <v name="usershift">      0.00000000       0.00000000       0.00000000 </v>
   <v name="genvec1">      0.08333333       0.00000000       0.00000000 </v>
   <v name="genvec2">      0.00000000       0.08333333      -0.00000000 </v>
   <v name="genvec3">      0.00000000       0.00000000       0.12500000 </v>
   <v name="shift">      0.00000000       0.00000000       0.00000000 </v>
  </generation>
  <varray name="kpointlist" >
   <v>       0.00000000       0.00000000       0.00000000 </v>
   <v>       0.08333333       0.00000000       0.00000000 </v>
   <v>       0.16666667      -0.00000000      -0.00000000 </v>
   <v>       0.25000000       0.00000000      -0.00000000 </v>
   <v>       0.33333333       0.00000000       0.00000000 </v>
   <v>       0.41666667       0.00000000      -0.00000000 </v>
   <v>       0.50000000       0.00000000      -0.00000000 </v>
   <v>       0.08333333       0.08333333      -0.00000000 </v>
   <v>       0.16666667       0.08333333      -0.00000000 </v>
   <v>       0.25000000       0.08333333      -0.00000000 </v>
   <v>       0.33333333       0.08333333       0.00000000 </v>
   <v>       0.41666667       0.08333333      -0.00000000 </v>
   <v>       0.50000000       0.08333333      -0.00000000 </v>
   <v>      -0.41666667       0.08333333      -0.00000000 </v>
   <v>      -0.33333333       0.08333333      -0.00000000 </v>
   <v>      -0.25000000       0.08333333       0.00000000 </v>
   <v>      -0.16666667       0.08333333       0.00000000 </v>
   <v>      -0.08333333       0.08333333      -0.00000000 </v>
   <v>       0.16666667       0.16666667       0.00000000 </v>
   <v>       0.25000000       0.16666667      -0.00000000 </v>
   <v>       0.33333333       0.16666667      -0.00000000 </v>
   <v>       0.41666667       0.16666667       0.00000000 </v>
   <v>       0.50000000       0.16666667      -0.00000000 </v>
   <v>      -0.41666667       0.16666667       0.00000000 </v>
   <v>      -0.33333333       0.16666667       0.00000000 </v>
   <v>      -0.25000000       0.16666667       0.00000000 </v>
   <v>      -0.16666667       0.16666667       0.00000000 </v>
   <v>       0.25000000       0.25000000      -0.00000000 </v>
   <v>       0.33333333       0.25000000       0.00000000 </v>
   <v>       0.41666667       0.25000000      -0.00000000 </v>
   <v>       0.50000000       0.25000000      -0.00000000 </v>
   <v>      -0.41666667       0.25000000       0.00000000 </v>
   <v>      -0.33333333       0.25000000       0.00000000 </v>
   <v>      -0.25000000       0.25000000       0.00000000 </v>
   <v>       0.33333333       0.33333333       0.00000000 </v>
   <v>       0.41666667       0.33333333      -0.00000000 </v>
   <v>       0.50000000       0.33333333       0.00000000 </v>
   <v>      -0.41666667       0.33333333       0.00000000 </v>
   <v>      -0.33333333       0.33333333       0.00000000 </v>
   <v>       0.41666667       0.41666667      -0.00000000 </v>
   <v>       0.50000000       0.41666667      -0.00000000 </v>
   <v>      -0.41666667       0.41666667      -0.00000000 </v>
   <v>       0.50000000       0.50000000      -0.00000000 </v>
   <v>       0.00000000       0.00000000       0.12500000 </v>
   <v>       0.08333333       0.00000000       0.12500000 </v>
   <v>       0.16666667      -0.00000000       0.12500000 </v>
   <v>       0.25000000       0.00000000       0.12500000 </v>
   <v>       0.33333333       0.00000000       0.12500000 </v>
   <v>       0.41666667       0.00000000       0.12500000 </v>
   <v>       0.50000000       0.00000000       0.12500000 </v>
   <v>      -0.41666667       0.00000000       0.12500000 </v>
   <v>      -0.33333333      -0.00000000       0.12500000 </v>
   <v>      -0.25000000       0.00000000       0.12500000 </v>
   <v>      -0.16666667       0.00000000       0.12500000 </v>
   <v>      -0.08333333       0.00000000       0.12500000 </v>
   <v>       0.08333333       0.08333333       0.12500000 </v>
   <v>       0.16666667       0.08333333       0.12500000 </v>
   <v>       0.25000000       0.08333333       0.12500000 </v>
   <v>       0.33333333       0.08333333       0.12500000 </v>
   <v>       0.41666667       0.08333333       0.12500000 </v>
   <v>       0.50000000       0.08333333       0.12500000 </v>
   <v>      -0.41666667       0.08333333       0.12500000 </v>
   <v>      -0.33333333       0.08333333       0.12500000 </v>
   <v>      -0.25000000       0.08333333       0.12500000 </v>
   <v>      -0.16666667       0.08333333       0.12500000 </v>
   <v>      -0.08333333       0.08333333       0.12500000 </v>
   <v>       0.16666667       0.16666667       0.12500000 </v>
   <v>       0.33333333       0.16666667       0.12500000 </v>
   <v>       0.41666667       0.16666667       0.12500000 </v>
   <v>       0.50000000       0.16666667       0.12500000 </v>
   <v>      -0.41666667       0.16666667       0.12500000 </v>
   <v>      -0.33333333       0.16666667       0.12500000 </v>
   <v>      -0.25000000       0.16666667       0.12500000 </v>
   <v>      -0.16666667       0.16666667       0.12500000 </v>
   <v>      -0.08333333       0.16666667       0.12500000 </v>
   <v>       0.33333333       0.25000000       0.12500000 </v>
   <v>       0.41666667       0.25000000       0.12500000 </v>
   <v>       0.50000000       0.25000000       0.12500000 </v>
   <v>      -0.41666667       0.25000000       0.12500000 </v>
   <v>       0.33333333       0.33333333       0.12500000 </v>
   <v>       0.41666667       0.33333333       0.12500000 </v>
   <v>       0.50000000       0.33333333       0.12500000 </v>
   <v>      -0.41666667       0.33333333       0.12500000 </v>
   <v>      -0.33333333       0.33333333       0.12500000 </v>
   <v>      -0.25000000       0.33333333       0.12500000 </v>
   <v>      -0.16666667       0.33333333       0.12500000 </v>
   <v>      -0.08333333       0.33333333       0.12500000 </v>
   <v>       0.41666667       0.41666667       0.12500000 </v>
   <v>       0.50000000       0.41666667       0.12500000 </v>
   <v>      -0.41666667       0.41666667       0.12500000 </v>
   <v>      -0.33333333       0.41666667       0.12500000 </v>
   <v>      -0.25000000       0.41666667       0.12500000 </v>
   <v>      -0.16666667       0.41666667       0.12500000 </v>
   <v>      -0.08333333       0.41666667       0.12500000 </v>
   <v>       0.50000000       0.50000000       0.12500000 </v>
   <v>      -0.41666667       0.50000000       0.12500000 </v>
   <v>      -0.33333333       0.50000000       0.12500000 </v>
   <v>      -0.25000000       0.50000000       0.12500000 </v>
   <v>      -0.16666667       0.50000000       0.12500000 </v>
   <v>      -0.08333333       0.50000000       0.12500000 </v>
   <v>      -0.41666667      -0.41666667       0.12500000 </v>
   <v>      -0.33333333      -0.41666667       0.12500000 </v>
   <v>      -0.25000000      -0.41666667       0.12500000 </v>
   <v>      -0.16666667      -0.41666667       0.12500000 </v>
   <v>      -0.08333333      -0.41666667       0.12500000 </v>
   <v>      -0.33333333      -0.33333333       0.12500000 </v>
   <v>      -0.25000000      -0.33333333       0.12500000 </v>
   <v>      -0.16666667      -0.33333333       0.12500000 </v>
   <v>      -0.08333333      -0.33333333       0.12500000 </v>
   <v>      -0.25000000      -0.25000000       0.12500000 </v>
   <v>      -0.16666667      -0.25000000       0.12500000 </v>
   <v>      -0.08333333      -0.25000000       0.12500000 </v>
   <v>      -0.16666667      -0.16666667       0.12500000 </v>
   <v>      -0.08333333      -0.16666667       0.12500000 </v>
   <v>      -0.08333333      -0.08333333       0.12500000 </v>
   <v>       0.16666667       0.08333333       0.25000000 </v>
   <v>       0.33333333       0.08333333       0.25000000 </v>
   <v>       0.41666667       0.08333333       0.25000000 </v>
   <v>       0.50000000       0.08333333       0.25000000 </v>
   <v>      -0.41666667       0.08333333       0.25000000 </v>
   <v>      -0.33333333       0.08333333       0.25000000 </v>
   <v>      -0.25000000       0.08333333       0.25000000 </v>
   <v>      -0.16666667       0.08333333       0.25000000 </v>
   <v>      -0.08333333       0.08333333       0.25000000 </v>
   <v>       0.41666667       0.33333333       0.25000000 </v>
   <v>      -0.41666667       0.33333333       0.25000000 </v>
   <v>      -0.33333333       0.33333333       0.25000000 </v>
   <v>      -0.25000000       0.33333333       0.25000000 </v>
   <v>      -0.16666667       0.33333333       0.25000000 </v>
   <v>      -0.08333333       0.33333333       0.25000000 </v>
   <v>      -0.41666667       0.41666667       0.25000000 </v>
   <v>      -0.33333333       0.41666667       0.25000000 </v>
   <v>      -0.25000000       0.41666667       0.25000000 </v>
   <v>      -0.16666667       0.41666667       0.25000000 </v>
   <v>      -0.25000000       0.50000000       0.25000000 </v>
   <v>      -0.33333333      -0.41666667       0.25000000 </v>
   <v>       0.00000000       0.00000000       0.37500000 </v>
   <v>       0.08333333       0.00000000       0.37500000 </v>
   <v>       0.16666667      -0.00000000       0.37500000 </v>
   <v>       0.33333333       0.00000000       0.37500000 </v>
   <v>       0.41666667       0.00000000       0.37500000 </v>
   <v>      -0.41666667       0.00000000       0.37500000 </v>
   <v>      -0.33333333      -0.00000000       0.37500000 </v>
   <v>      -0.25000000       0.00000000       0.37500000 </v>
   <v>      -0.16666667       0.00000000       0.37500000 </v>
   <v>      -0.08333333       0.00000000       0.37500000 </v>
   <v>       0.08333333       0.08333333       0.37500000 </v>
   <v>       0.16666667       0.08333333       0.37500000 </v>
   <v>       0.33333333       0.08333333       0.37500000 </v>
   <v>       0.41666667       0.08333333       0.37500000 </v>
   <v>      -0.41666667       0.08333333       0.37500000 </v>
   <v>      -0.33333333       0.08333333       0.37500000 </v>
   <v>      -0.25000000       0.08333333       0.37500000 </v>
   <v>      -0.16666667       0.08333333       0.37500000 </v>
   <v>      -0.08333333       0.08333333       0.37500000 </v>
   <v>       0.16666667       0.16666667       0.37500000 </v>
   <v>       0.33333333       0.16666667       0.37500000 </v>
   <v>       0.41666667       0.16666667       0.37500000 </v>
   <v>      -0.41666667       0.16666667       0.37500000 </v>
   <v>      -0.33333333       0.16666667       0.37500000 </v>
   <v>      -0.25000000       0.16666667       0.37500000 </v>
   <v>      -0.16666667       0.16666667       0.37500000 </v>
   <v>      -0.08333333       0.16666667       0.37500000 </v>
   <v>       0.33333333       0.33333333       0.37500000 </v>
   <v>       0.41666667       0.33333333       0.37500000 </v>
   <v>      -0.41666667       0.33333333       0.37500000 </v>
   <v>      -0.33333333       0.33333333       0.37500000 </v>
   <v>      -0.25000000       0.33333333       0.37500000 </v>
   <v>      -0.16666667       0.33333333       0.37500000 </v>
   <v>      -0.08333333       0.33333333       0.37500000 </v>
   <v>       0.41666667       0.41666667       0.37500000 </v>
   <v>      -0.41666667       0.41666667       0.37500000 </v>
   <v>      -0.33333333       0.41666667       0.37500000 </v>
   <v>      -0.16666667       0.41666667       0.37500000 </v>
   <v>      -0.08333333       0.41666667       0.37500000 </v>
   <v>      -0.41666667      -0.41666667       0.37500000 </v>
   <v>      -0.33333333      -0.41666667       0.37500000 </v>
   <v>      -0.16666667      -0.41666667       0.37500000 </v>
   <v>      -0.08333333      -0.41666667       0.37500000 </v>
   <v>      -0.33333333      -0.33333333       0.37500000 </v>
   <v>      -0.16666667      -0.33333333       0.37500000 </v>
   <v>      -0.08333333      -0.33333333       0.37500000 </v>
   <v>      -0.16666667      -0.25000000       0.37500000 </v>
   <v>      -0.16666667      -0.16666667       0.37500000 </v>
   <v>      -0.08333333      -0.16666667       0.37500000 </v>
   <v>      -0.08333333      -0.08333333       0.37500000 </v>
   <v>       0.16666667       0.08333333       0.50000000 </v>
   <v>       0.41666667       0.08333333       0.50000000 </v>
   <v>      -0.41666667       0.08333333       0.50000000 </v>
   <v>      -0.33333333       0.08333333       0.50000000 </v>
   <v>      -0.08333333       0.08333333       0.50000000 </v>
   <v>       0.33333333       0.16666667       0.50000000 </v>
   <v>      -0.33333333       0.16666667       0.50000000 </v>
   <v>      -0.16666667       0.16666667       0.50000000 </v>
  </varray>
  <varray name="weights" >
   <v>       0.00086806 </v>
   <v>       0.00347222 </v>
   <v>       0.00347222 </v>
   <v>       0.00694444 </v>
   <v>       0.00347222 </v>
   <v>       0.00347222 </v>
   <v>       0.00347222 </v>
   <v>       0.00173611 </v>
   <v>       0.00347222 </v>
   <v>       0.01041667 </v>
   <v>       0.00694444 </v>
   <v>       0.00347222 </v>
   <v>       0.01041667 </v>
   <v>       0.00694444 </v>
   <v>       0.00347222 </v>
   <v>       0.01041667 </v>
   <v>       0.00694444 </v>
   <v>       0.00173611 </v>
   <v>       0.00173611 </v>
   <v>       0.01041667 </v>
   <v>       0.00347222 </v>
   <v>       0.00694444 </v>
   <v>       0.01041667 </v>
   <v>       0.00347222 </v>
   <v>       0.00694444 </v>
   <v>       0.01041667 </v>
   <v>       0.00173611 </v>
   <v>       0.00520833 </v>
   <v>       0.01041667 </v>
   <v>       0.01041667 </v>
   <v>       0.02083333 </v>
   <v>       0.01041667 </v>
   <v>       0.01041667 </v>
   <v>       0.01041667 </v>
   <v>       0.00173611 </v>
   <v>       0.00347222 </v>
   <v>       0.01041667 </v>
   <v>       0.00694444 </v>
   <v>       0.00173611 </v>
   <v>       0.00173611 </v>
   <v>       0.01041667 </v>
   <v>       0.00173611 </v>
   <v>       0.00260417 </v>
   <v>       0.00173611 </v>
   <v>       0.00347222 </v>
   <v>       0.00347222 </v>
   <v>       0.00520833 </v>
   <v>       0.00347222 </v>
   <v>       0.00347222 </v>
   <v>       0.00520833 </v>
   <v>       0.00347222 </v>
   <v>       0.00347222 </v>
   <v>       0.00520833 </v>
   <v>       0.00347222 </v>
   <v>       0.00347222 </v>
   <v>       0.00173611 </v>
   <v>       0.00347222 </v>
   <v>       0.00694444 </v>
   <v>       0.00347222 </v>
   <v>       0.00347222 </v>
   <v>       0.00694444 </v>
   <v>       0.00347222 </v>
   <v>       0.00347222 </v>
   <v>       0.00694444 </v>
   <v>       0.00347222 </v>
   <v>       0.00347222 </v>
   <v>       0.00173611 </v>
   <v>       0.00347222 </v>
   <v>       0.00347222 </v>
   <v>       0.00694444 </v>
   <v>       0.00347222 </v>
   <v>       0.00347222 </v>
   <v>       0.00694444 </v>
   <v>       0.00347222 </v>
   <v>       0.00347222 </v>
   <v>       0.00694444 </v>
   <v>       0.00694444 </v>
   <v>       0.01041667 </v>
   <v>       0.00694444 </v>
   <v>       0.00173611 </v>
   <v>       0.00347222 </v>
   <v>       0.00694444 </v>
   <v>       0.00347222 </v>
   <v>       0.00347222 </v>
   <v>       0.00694444 </v>
   <v>       0.00347222 </v>
   <v>       0.00347222 </v>
   <v>       0.00173611 </v>
   <v>       0.00694444 </v>
   <v>       0.00347222 </v>
   <v>       0.00347222 </v>
   <v>       0.00694444 </v>
   <v>       0.00347222 </v>
   <v>       0.00347222 </v>
   <v>       0.00520833 </v>
   <v>       0.00694444 </v>
   <v>       0.00694444 </v>
   <v>       0.01041667 </v>
   <v>       0.00694444 </v>
   <v>       0.00694444 </v>
   <v>       0.00173611 </v>
   <v>       0.00347222 </v>
   <v>       0.00694444 </v>
   <v>       0.00347222 </v>
   <v>       0.00347222 </v>
   <v>       0.00173611 </v>
   <v>       0.00694444 </v>
   <v>       0.00347222 </v>
   <v>       0.00347222 </v>
   <v>       0.00520833 </v>
   <v>       0.00694444 </v>
   <v>       0.00694444 </v>
   <v>       0.00173611 </v>
   <v>       0.00347222 </v>
   <v>       0.00173611 </v>
   <v>       0.00347222 </v>
   <v>       0.00694444 </v>
   <v>       0.00694444 </v>
   <v>       0.02083333 </v>
   <v>       0.01388889 </v>
   <v>       0.00694444 </v>
   <v>       0.02083333 </v>
   <v>       0.00694444 </v>
   <v>       0.00694444 </v>
   <v>       0.00694444 </v>
   <v>       0.00694444 </v>
   <v>       0.00694444 </v>
   <v>       0.02083333 </v>
   <v>       0.01388889 </v>
   <v>       0.00347222 </v>
   <v>       0.00694444 </v>
   <v>       0.00694444 </v>
   <v>       0.02083333 </v>
   <v>       0.00347222 </v>
   <v>       0.00520833 </v>
   <v>       0.00347222 </v>
   <v>       0.00173611 </v>
   <v>       0.00347222 </v>
   <v>       0.00347222 </v>
   <v>       0.00347222 </v>
   <v>       0.00347222 </v>
   <v>       0.00347222 </v>
   <v>       0.00347222 </v>
   <v>       0.00520833 </v>
   <v>       0.00347222 </v>
   <v>       0.00347222 </v>
   <v>       0.00173611 </v>
   <v>       0.00347222 </v>
   <v>       0.00347222 </v>
   <v>       0.00347222 </v>
   <v>       0.00347222 </v>
   <v>       0.00347222 </v>
   <v>       0.00694444 </v>
   <v>       0.00347222 </v>
   <v>       0.00347222 </v>
   <v>       0.00173611 </v>
   <v>       0.00347222 </v>
   <v>       0.00347222 </v>
   <v>       0.00347222 </v>
   <v>       0.00347222 </v>
   <v>       0.00694444 </v>
   <v>       0.00347222 </v>
   <v>       0.00347222 </v>
   <v>       0.00173611 </v>
   <v>       0.00347222 </v>
   <v>       0.00347222 </v>
   <v>       0.00347222 </v>
   <v>       0.00694444 </v>
   <v>       0.00347222 </v>
   <v>       0.00347222 </v>
   <v>       0.00173611 </v>
   <v>       0.00347222 </v>
   <v>       0.00347222 </v>
   <v>       0.00347222 </v>
   <v>       0.00347222 </v>
   <v>       0.00173611 </v>
   <v>       0.00347222 </v>
   <v>       0.00347222 </v>
   <v>       0.00347222 </v>
   <v>       0.00173611 </v>
   <v>       0.00347222 </v>
   <v>       0.00347222 </v>
   <v>       0.00694444 </v>
   <v>       0.00173611 </v>
   <v>       0.00347222 </v>
   <v>       0.00173611 </v>
   <v>       0.00694444 </v>
   <v>       0.00347222 </v>
   <v>       0.00347222 </v>
   <v>       0.00694444 </v>
   <v>       0.00347222 </v>
   <v>       0.00347222 </v>
   <v>       0.00347222 </v>
   <v>       0.00347222 </v>
  </varray>
  <varray name="tetrahedronlist"  type="int" >
   <v type="int" >        4        1        2        8       56 </v>
   <v type="int" >        4        1        2       45       56 </v>
   <v type="int" >        4        1       44       45       56 </v>
   <v type="int" >        4        2        8        9       57 </v>
   <v type="int" >        4        2        3        9       57 </v>
   <v type="int" >        4        2        3       46       57 </v>
   <v type="int" >        4        2        8       56       57 </v>
   <v type="int" >        4        2       45       56       57 </v>
   <v type="int" >        4        2       45       46       57 </v>
   <v type="int" >        4        3        9       10       58 </v>
   <v type="int" >        4        3        4       10       58 </v>
   <v type="int" >        4        3        4       47       58 </v>
   <v type="int" >        4        3        9       57       58 </v>
   <v type="int" >        4        3       46       57       58 </v>
   <v type="int" >        4        3       46       47       58 </v>
   <v type="int" >        4        4       10       11       59 </v>
   <v type="int" >        4        4        5       11       59 </v>
   <v type="int" >        4        4        5       48       59 </v>
   <v type="int" >        4        4       10       58       59 </v>
   <v type="int" >        4        4       47       58       59 </v>
   <v type="int" >        4        4       47       48       59 </v>
   <v type="int" >        4        5       11       12       60 </v>
   <v type="int" >        4        5        6       12       60 </v>
   <v type="int" >        4        5        6       49       60 </v>
   <v type="int" >        4        5       11       59       60 </v>
   <v type="int" >        4        5       48       59       60 </v>
   <v type="int" >        4        5       48       49       60 </v>
   <v type="int" >        4        6       12       13       61 </v>
   <v type="int" >        4        6        7       13       61 </v>
   <v type="int" >        4        6        7       50       61 </v>
   <v type="int" >        4        6       12       60       61 </v>
   <v type="int" >        4        6       49       60       61 </v>
   <v type="int" >        4        6       49       50       61 </v>
   <v type="int" >        4        7       13       14       62 </v>
   <v type="int" >        4        6        7       14       62 </v>
   <v type="int" >        4        6        7       51       62 </v>
   <v type="int" >        4        7       13       61       62 </v>
   <v type="int" >        4        7       50       61       62 </v>
   <v type="int" >        4        7       50       51       62 </v>
   <v type="int" >        4        6       14       15       63 </v>
   <v type="int" >        4        5        6       15       63 </v>
   <v type="int" >        4        5        6       52       63 </v>
   <v type="int" >        4        6       14       62       63 </v>
   <v type="int" >        4        6       51       62       63 </v>
   <v type="int" >        4        6       51       52       63 </v>
   <v type="int" >        4        5       15       16       64 </v>
   <v type="int" >        4        4        5       16       64 </v>
   <v type="int" >        4        4        5       53       64 </v>
   <v type="int" >        4        5       15       63       64 </v>
   <v type="int" >        4        5       52       63       64 </v>
   <v type="int" >        4        5       52       53       64 </v>
   <v type="int" >        4        4       16       17       65 </v>
   <v type="int" >        4        3        4       17       65 </v>
   <v type="int" >        4        3        4       54       65 </v>
   <v type="int" >        4        4       16       64       65 </v>
   <v type="int" >        4        4       53       64       65 </v>
   <v type="int" >        4        4       53       54       65 </v>
   <v type="int" >        4        3       17       18       66 </v>
   <v type="int" >        4        2        3       18       66 </v>
   <v type="int" >        4        2        3       55       66 </v>
   <v type="int" >        4        3       17       65       66 </v>
   <v type="int" >        4        3       54       65       66 </v>
   <v type="int" >        4        3       54       55       66 </v>
   <v type="int" >        4        2        2       18       45 </v>
   <v type="int" >        4        1        2        2       45 </v>
   <v type="int" >        4        1        2       44       45 </v>
   <v type="int" >        4        2       18       45       66 </v>
   <v type="int" >        4        2       45       55       66 </v>
   <v type="int" >        4        2       44       45       55 </v>
   <v type="int" >        4        8        9       19       67 </v>
   <v type="int" >        4        8        9       57       67 </v>
   <v type="int" >        4        8       56       57       67 </v>
   <v type="int" >        4        9       19       20       58 </v>
   <v type="int" >        4        9       10       20       58 </v>
   <v type="int" >        4        9       10       58       58 </v>
   <v type="int" >        4        9       19       58       67 </v>
   <v type="int" >        4        9       57       58       67 </v>
   <v type="int" >        4        9       57       58       58 </v>
   <v type="int" >        4       10       20       21       68 </v>
   <v type="int" >        4       10       11       21       68 </v>
   <v type="int" >        4       10       11       59       68 </v>
   <v type="int" >        4       10       20       58       68 </v>
   <v type="int" >        4       10       58       58       68 </v>
   <v type="int" >        4       10       58       59       68 </v>
   <v type="int" >        4       11       21       22       69 </v>
   <v type="int" >        4       11       12       22       69 </v>
   <v type="int" >        4       11       12       60       69 </v>
   <v type="int" >        4       11       21       68       69 </v>
   <v type="int" >        4       11       59       68       69 </v>
   <v type="int" >        4       11       59       60       69 </v>
   <v type="int" >        4       12       22       23       70 </v>
   <v type="int" >        4       12       13       23       70 </v>
   <v type="int" >        4       12       13       61       70 </v>
   <v type="int" >        4       12       22       69       70 </v>
   <v type="int" >        4       12       60       69       70 </v>
   <v type="int" >        4       12       60       61       70 </v>
   <v type="int" >        4       13       23       24       71 </v>
   <v type="int" >        4       13       14       24       71 </v>
   <v type="int" >        4       13       14       62       71 </v>
   <v type="int" >        4       13       23       70       71 </v>
   <v type="int" >        4       13       61       70       71 </v>
   <v type="int" >        4       13       61       62       71 </v>
   <v type="int" >        4       14       24       25       72 </v>
   <v type="int" >        4       14       15       25       72 </v>
   <v type="int" >        4       14       15       63       72 </v>
   <v type="int" >        4       14       24       71       72 </v>
   <v type="int" >        4       14       62       71       72 </v>
   <v type="int" >        4       14       62       63       72 </v>
   <v type="int" >        4       15       25       26       73 </v>
   <v type="int" >        4       15       16       26       73 </v>
   <v type="int" >        4       15       16       64       73 </v>
   <v type="int" >        4       15       25       72       73 </v>
   <v type="int" >        4       15       63       72       73 </v>
   <v type="int" >        4       15       63       64       73 </v>
   <v type="int" >        4       16       26       27       74 </v>
   <v type="int" >        4       16       17       27       74 </v>
   <v type="int" >        4       16       17       65       74 </v>
   <v type="int" >        4       16       26       73       74 </v>
   <v type="int" >        4       16       64       73       74 </v>
   <v type="int" >        4       16       64       65       74 </v>
   <v type="int" >        4       17       17       27       75 </v>
   <v type="int" >        4       17       17       18       75 </v>
   <v type="int" >        4       17       18       66       75 </v>
   <v type="int" >        4       17       27       74       75 </v>
   <v type="int" >        4       17       65       74       75 </v>
   <v type="int" >        4       17       65       66       75 </v>
   <v type="int" >        4        3       17       18       46 </v>
   <v type="int" >        4        2        3       18       46 </v>
   <v type="int" >        4        2       18       45       46 </v>
   <v type="int" >        4       17       18       46       75 </v>
   <v type="int" >        4       18       46       66       75 </v>
   <v type="int" >        4       18       45       46       66 </v>
   <v type="int" >        4       19       20       28       47 </v>
   <v type="int" >        4       19       20       47       58 </v>
   <v type="int" >        4       19       47       58       67 </v>
   <v type="int" >        4       20       28       29       76 </v>
   <v type="int" >        4       20       21       29       76 </v>
   <v type="int" >        4       20       21       68       76 </v>
   <v type="int" >        4       20       28       47       76 </v>
   <v type="int" >        4       20       47       58       76 </v>
   <v type="int" >        4       20       58       68       76 </v>
   <v type="int" >        4       21       29       30       77 </v>
   <v type="int" >        4       21       22       30       77 </v>
   <v type="int" >        4       21       22       69       77 </v>
   <v type="int" >        4       21       29       76       77 </v>
   <v type="int" >        4       21       68       76       77 </v>
   <v type="int" >        4       21       68       69       77 </v>
   <v type="int" >        4       22       30       31       78 </v>
   <v type="int" >        4       22       23       31       78 </v>
   <v type="int" >        4       22       23       70       78 </v>
   <v type="int" >        4       22       30       77       78 </v>
   <v type="int" >        4       22       69       77       78 </v>
   <v type="int" >        4       22       69       70       78 </v>
   <v type="int" >        4       23       31       32       79 </v>
   <v type="int" >        4       23       24       32       79 </v>
   <v type="int" >        4       23       24       71       79 </v>
   <v type="int" >        4       23       31       78       79 </v>
   <v type="int" >        4       23       70       78       79 </v>
   <v type="int" >        4       23       70       71       79 </v>
   <v type="int" >        4       24       32       33       79 </v>
   <v type="int" >        4       24       25       33       79 </v>
   <v type="int" >        4       24       25       72       79 </v>
   <v type="int" >        4       24       32       79       79 </v>
   <v type="int" >        4       24       71       79       79 </v>
   <v type="int" >        4       24       71       72       79 </v>
   <v type="int" >        4       25       33       34       78 </v>
   <v type="int" >        4       25       26       34       78 </v>
   <v type="int" >        4       25       26       73       78 </v>
   <v type="int" >        4       25       33       78       79 </v>
   <v type="int" >        4       25       72       78       79 </v>
   <v type="int" >        4       25       72       73       78 </v>
   <v type="int" >        4       26       26       34       77 </v>
   <v type="int" >        4       26       26       27       77 </v>
   <v type="int" >        4       26       27       74       77 </v>
   <v type="int" >        4       26       34       77       78 </v>
   <v type="int" >        4       26       73       77       78 </v>
   <v type="int" >        4       26       73       74       77 </v>
   <v type="int" >        4       16       26       27       76 </v>
   <v type="int" >        4       16       17       27       76 </v>
   <v type="int" >        4       17       27       75       76 </v>
   <v type="int" >        4       26       27       76       77 </v>
   <v type="int" >        4       27       74       76       77 </v>
   <v type="int" >        4       27       74       75       76 </v>
   <v type="int" >        4        4       16       17       47 </v>
   <v type="int" >        4        3        4       17       47 </v>
   <v type="int" >        4        3       17       46       47 </v>
   <v type="int" >        4       16       17       47       76 </v>
   <v type="int" >        4       17       47       75       76 </v>
   <v type="int" >        4       17       46       47       75 </v>
   <v type="int" >        4       28       29       35       80 </v>
   <v type="int" >        4       28       29       76       80 </v>
   <v type="int" >        4       28       47       76       80 </v>
   <v type="int" >        4       29       35       36       81 </v>
   <v type="int" >        4       29       30       36       81 </v>
   <v type="int" >        4       29       30       77       81 </v>
   <v type="int" >        4       29       35       80       81 </v>
   <v type="int" >        4       29       76       80       81 </v>
   <v type="int" >        4       29       76       77       81 </v>
   <v type="int" >        4       30       36       37       82 </v>
   <v type="int" >        4       30       31       37       82 </v>
   <v type="int" >        4       30       31       78       82 </v>
   <v type="int" >        4       30       36       81       82 </v>
   <v type="int" >        4       30       77       81       82 </v>
   <v type="int" >        4       30       77       78       82 </v>
   <v type="int" >        4       31       37       38       83 </v>
   <v type="int" >        4       31       32       38       83 </v>
   <v type="int" >        4       31       32       79       83 </v>
   <v type="int" >        4       31       37       82       83 </v>
   <v type="int" >        4       31       78       82       83 </v>
   <v type="int" >        4       31       78       79       83 </v>
   <v type="int" >        4       32       38       39       84 </v>
   <v type="int" >        4       32       33       39       84 </v>
   <v type="int" >        4       32       33       79       84 </v>
   <v type="int" >        4       32       38       83       84 </v>
   <v type="int" >        4       32       79       83       84 </v>
   <v type="int" >        4       32       79       79       84 </v>
   <v type="int" >        4       33       33       39       85 </v>
   <v type="int" >        4       33       33       34       85 </v>
   <v type="int" >        4       33       34       78       85 </v>
   <v type="int" >        4       33       39       84       85 </v>
   <v type="int" >        4       33       79       84       85 </v>
   <v type="int" >        4       33       78       79       85 </v>
   <v type="int" >        4       25       33       34       86 </v>
   <v type="int" >        4       25       26       34       86 </v>
   <v type="int" >        4       26       34       77       86 </v>
   <v type="int" >        4       33       34       85       86 </v>
   <v type="int" >        4       34       78       85       86 </v>
   <v type="int" >        4       34       77       78       86 </v>
   <v type="int" >        4       15       25       26       87 </v>
   <v type="int" >        4       15       16       26       87 </v>
   <v type="int" >        4       16       26       76       87 </v>
   <v type="int" >        4       25       26       86       87 </v>
   <v type="int" >        4       26       77       86       87 </v>
   <v type="int" >        4       26       76       77       87 </v>
   <v type="int" >        4        5       15       16       48 </v>
   <v type="int" >        4        4        5       16       48 </v>
   <v type="int" >        4        4       16       47       48 </v>
   <v type="int" >        4       15       16       48       87 </v>
   <v type="int" >        4       16       48       76       87 </v>
   <v type="int" >        4       16       47       48       76 </v>
   <v type="int" >        4       35       36       40       88 </v>
   <v type="int" >        4       35       36       81       88 </v>
   <v type="int" >        4       35       80       81       88 </v>
   <v type="int" >        4       36       40       41       89 </v>
   <v type="int" >        4       36       37       41       89 </v>
   <v type="int" >        4       36       37       82       89 </v>
   <v type="int" >        4       36       40       88       89 </v>
   <v type="int" >        4       36       81       88       89 </v>
   <v type="int" >        4       36       81       82       89 </v>
   <v type="int" >        4       37       41       42       90 </v>
   <v type="int" >        4       37       38       42       90 </v>
   <v type="int" >        4       37       38       83       90 </v>
   <v type="int" >        4       37       41       89       90 </v>
   <v type="int" >        4       37       82       89       90 </v>
   <v type="int" >        4       37       82       83       90 </v>
   <v type="int" >        4       38       38       42       91 </v>
   <v type="int" >        4       38       38       39       91 </v>
   <v type="int" >        4       38       39       84       91 </v>
   <v type="int" >        4       38       42       90       91 </v>
   <v type="int" >        4       38       83       90       91 </v>
   <v type="int" >        4       38       83       84       91 </v>
   <v type="int" >        4       32       38       39       92 </v>
   <v type="int" >        4       32       33       39       92 </v>
   <v type="int" >        4       33       39       85       92 </v>
   <v type="int" >        4       38       39       91       92 </v>
   <v type="int" >        4       39       84       91       92 </v>
   <v type="int" >        4       39       84       85       92 </v>
   <v type="int" >        4       24       32       33       93 </v>
   <v type="int" >        4       24       25       33       93 </v>
   <v type="int" >        4       25       33       86       93 </v>
   <v type="int" >        4       32       33       92       93 </v>
   <v type="int" >        4       33       85       92       93 </v>
   <v type="int" >        4       33       85       86       93 </v>
   <v type="int" >        4       14       24       25       94 </v>
   <v type="int" >        4       14       15       25       94 </v>
   <v type="int" >        4       15       25       87       94 </v>
   <v type="int" >        4       24       25       93       94 </v>
   <v type="int" >        4       25       86       93       94 </v>
   <v type="int" >        4       25       86       87       94 </v>
   <v type="int" >        4        6       14       15       49 </v>
   <v type="int" >        4        5        6       15       49 </v>
   <v type="int" >        4        5       15       48       49 </v>
   <v type="int" >        4       14       15       49       94 </v>
   <v type="int" >        4       15       49       87       94 </v>
   <v type="int" >        4       15       48       49       87 </v>
   <v type="int" >        4       40       41       43       95 </v>
   <v type="int" >        4       40       41       89       95 </v>
   <v type="int" >        4       40       88       89       95 </v>
   <v type="int" >        8       41       41       43       96 </v>
   <v type="int" >        4       41       41       42       96 </v>
   <v type="int" >        4       41       42       90       96 </v>
   <v type="int" >        8       41       43       95       96 </v>
   <v type="int" >        4       41       89       95       96 </v>
   <v type="int" >        4       41       89       90       96 </v>
   <v type="int" >        4       37       41       42       97 </v>
   <v type="int" >        4       37       38       42       97 </v>
   <v type="int" >        4       38       42       91       97 </v>
   <v type="int" >        4       41       42       96       97 </v>
   <v type="int" >        4       42       90       96       97 </v>
   <v type="int" >        4       42       90       91       97 </v>
   <v type="int" >        4       31       37       38       98 </v>
   <v type="int" >        4       31       32       38       98 </v>
   <v type="int" >        4       32       38       92       98 </v>
   <v type="int" >        4       37       38       97       98 </v>
   <v type="int" >        4       38       91       97       98 </v>
   <v type="int" >        4       38       91       92       98 </v>
   <v type="int" >        4       23       31       32       99 </v>
   <v type="int" >        4       23       24       32       99 </v>
   <v type="int" >        4       24       32       93       99 </v>
   <v type="int" >        4       31       32       98       99 </v>
   <v type="int" >        4       32       92       98       99 </v>
   <v type="int" >        4       32       92       93       99 </v>
   <v type="int" >        4       13       23       24      100 </v>
   <v type="int" >        4       13       14       24      100 </v>
   <v type="int" >        4       14       24       94      100 </v>
   <v type="int" >        4       23       24       99      100 </v>
   <v type="int" >        4       24       93       99      100 </v>
   <v type="int" >        4       24       93       94      100 </v>
   <v type="int" >        8        7       13       14       50 </v>
   <v type="int" >        4        6        7       14       50 </v>
   <v type="int" >        4        6       14       49       50 </v>
   <v type="int" >        8       13       14       50      100 </v>
   <v type="int" >        4       14       50       94      100 </v>
   <v type="int" >        4       14       49       50       94 </v>
   <v type="int" >        4       40       41       43      101 </v>
   <v type="int" >        4       41       43       96      101 </v>
   <v type="int" >        4       43       95       96      101 </v>
   <v type="int" >        4       36       40       41      102 </v>
   <v type="int" >        4       36       37       41      102 </v>
   <v type="int" >        4       37       41       97      102 </v>
   <v type="int" >        4       40       41      101      102 </v>
   <v type="int" >        4       41       96      101      102 </v>
   <v type="int" >        4       41       96       97      102 </v>
   <v type="int" >        4       30       36       37      103 </v>
   <v type="int" >        4       30       31       37      103 </v>
   <v type="int" >        4       31       37       98      103 </v>
   <v type="int" >        4       36       37      102      103 </v>
   <v type="int" >        4       37       97      102      103 </v>
   <v type="int" >        4       37       97       98      103 </v>
   <v type="int" >        4       22       30       31      104 </v>
   <v type="int" >        4       22       23       31      104 </v>
   <v type="int" >        4       23       31       99      104 </v>
   <v type="int" >        4       30       31      103      104 </v>
   <v type="int" >        4       31       98      103      104 </v>
   <v type="int" >        4       31       98       99      104 </v>
   <v type="int" >        4       12       22       23      105 </v>
   <v type="int" >        4       12       13       23      105 </v>
   <v type="int" >        4       13       23      100      105 </v>
   <v type="int" >        4       22       23      104      105 </v>
   <v type="int" >        4       23       99      104      105 </v>
   <v type="int" >        4       23       99      100      105 </v>
   <v type="int" >        4        6       12       13       51 </v>
   <v type="int" >        4        6        7       13       51 </v>
   <v type="int" >        4        7       13       50       51 </v>
   <v type="int" >        4       12       13       51      105 </v>
   <v type="int" >        4       13       51      100      105 </v>
   <v type="int" >        4       13       50       51      100 </v>
   <v type="int" >        4       35       36       40      106 </v>
   <v type="int" >        4       36       40      102      106 </v>
   <v type="int" >        4       40      101      102      106 </v>
   <v type="int" >        4       29       35       36      107 </v>
   <v type="int" >        4       29       30       36      107 </v>
   <v type="int" >        4       30       36      103      107 </v>
   <v type="int" >        4       35       36      106      107 </v>
   <v type="int" >        4       36      102      106      107 </v>
   <v type="int" >        4       36      102      103      107 </v>
   <v type="int" >        4       21       29       30      108 </v>
   <v type="int" >        4       21       22       30      108 </v>
   <v type="int" >        4       22       30      104      108 </v>
   <v type="int" >        4       29       30      107      108 </v>
   <v type="int" >        4       30      103      107      108 </v>
   <v type="int" >        4       30      103      104      108 </v>
   <v type="int" >        4       11       21       22      109 </v>
   <v type="int" >        4       11       12       22      109 </v>
   <v type="int" >        4       12       22      105      109 </v>
   <v type="int" >        4       21       22      108      109 </v>
   <v type="int" >        4       22      104      108      109 </v>
   <v type="int" >        4       22      104      105      109 </v>
   <v type="int" >        4        5       11       12       52 </v>
   <v type="int" >        4        5        6       12       52 </v>
   <v type="int" >        4        6       12       51       52 </v>
   <v type="int" >        4       11       12       52      109 </v>
   <v type="int" >        4       12       52      105      109 </v>
   <v type="int" >        4       12       51       52      105 </v>
   <v type="int" >        4       28       29       35      110 </v>
   <v type="int" >        4       29       35      107      110 </v>
   <v type="int" >        4       35      106      107      110 </v>
   <v type="int" >        4       20       28       29      111 </v>
   <v type="int" >        4       20       21       29      111 </v>
   <v type="int" >        4       21       29      108      111 </v>
   <v type="int" >        4       28       29      110      111 </v>
   <v type="int" >        4       29      107      110      111 </v>
   <v type="int" >        4       29      107      108      111 </v>
   <v type="int" >        4       10       20       21      112 </v>
   <v type="int" >        4       10       11       21      112 </v>
   <v type="int" >        4       11       21      109      112 </v>
   <v type="int" >        4       20       21      111      112 </v>
   <v type="int" >        4       21      108      111      112 </v>
   <v type="int" >        4       21      108      109      112 </v>
   <v type="int" >        4        4       10       11       53 </v>
   <v type="int" >        4        4        5       11       53 </v>
   <v type="int" >        4        5       11       52       53 </v>
   <v type="int" >        4       10       11       53      112 </v>
   <v type="int" >        4       11       53      109      112 </v>
   <v type="int" >        4       11       52       53      109 </v>
   <v type="int" >        4       19       20       28      113 </v>
   <v type="int" >        4       20       28      111      113 </v>
   <v type="int" >        4       28      110      111      113 </v>
   <v type="int" >        4        9       19       20      114 </v>
   <v type="int" >        4        9       10       20      114 </v>
   <v type="int" >        4       10       20      112      114 </v>
   <v type="int" >        4       19       20      113      114 </v>
   <v type="int" >        4       20      111      113      114 </v>
   <v type="int" >        4       20      111      112      114 </v>
   <v type="int" >        4        3        9       10       54 </v>
   <v type="int" >        4        3        4       10       54 </v>
   <v type="int" >        4        4       10       53       54 </v>
   <v type="int" >        4        9       10       54      114 </v>
   <v type="int" >        4       10       54      112      114 </v>
   <v type="int" >        4       10       53       54      112 </v>
   <v type="int" >        4        8        9       19      115 </v>
   <v type="int" >        4        9       19      114      115 </v>
   <v type="int" >        4       19      113      114      115 </v>
   <v type="int" >        4        2        8        9       55 </v>
   <v type="int" >        4        2        3        9       55 </v>
   <v type="int" >        4        3        9       54       55 </v>
   <v type="int" >        4        8        9       55      115 </v>
   <v type="int" >        4        9       55      114      115 </v>
   <v type="int" >        4        9       54       55      114 </v>
   <v type="int" >        4        1        2        8       44 </v>
   <v type="int" >        4        2        8       44       55 </v>
   <v type="int" >        4        8       44       55      115 </v>
   <v type="int" >        4       17       44       45       56 </v>
   <v type="int" >        4       10       17       44       45 </v>
   <v type="int" >        4        4       10       17       44 </v>
   <v type="int" >        4       45       56       57      116 </v>
   <v type="int" >        4       45       46       57      116 </v>
   <v type="int" >        4       20       45       46      116 </v>
   <v type="int" >        4       17       45       56      116 </v>
   <v type="int" >        4       10       17       45      116 </v>
   <v type="int" >        4       10       20       45      116 </v>
   <v type="int" >        4       20       46       57       58 </v>
   <v type="int" >        4       20       46       47       58 </v>
   <v type="int" >        4       20       28       46       47 </v>
   <v type="int" >        4       20       46       57      116 </v>
   <v type="int" >        4       20       20       46      116 </v>
   <v type="int" >        4       20       20       28       46 </v>
   <v type="int" >        4       47       58       59      117 </v>
   <v type="int" >        4       47       48       59      117 </v>
   <v type="int" >        4       29       47       48      117 </v>
   <v type="int" >        4       20       47       58      117 </v>
   <v type="int" >        4       20       28       47      117 </v>
   <v type="int" >        4       28       29       47      117 </v>
   <v type="int" >        4       48       59       60      118 </v>
   <v type="int" >        4       48       49       60      118 </v>
   <v type="int" >        4       30       48       49      118 </v>
   <v type="int" >        4       48       59      117      118 </v>
   <v type="int" >        4       29       48      117      118 </v>
   <v type="int" >        4       29       30       48      118 </v>
   <v type="int" >        4       49       60       61      119 </v>
   <v type="int" >        4       49       50       61      119 </v>
   <v type="int" >        4       31       49       50      119 </v>
   <v type="int" >        4       49       60      118      119 </v>
   <v type="int" >        4       30       49      118      119 </v>
   <v type="int" >        4       30       31       49      119 </v>
   <v type="int" >        4       50       61       62      120 </v>
   <v type="int" >        4       50       51       62      120 </v>
   <v type="int" >        4       32       50       51      120 </v>
   <v type="int" >        4       50       61      119      120 </v>
   <v type="int" >        4       31       50      119      120 </v>
   <v type="int" >        4       31       32       50      120 </v>
   <v type="int" >        4       51       62       63      121 </v>
   <v type="int" >        4       51       52       63      121 </v>
   <v type="int" >        4       33       51       52      121 </v>
   <v type="int" >        4       51       62      120      121 </v>
   <v type="int" >        4       32       51      120      121 </v>
   <v type="int" >        4       32       33       51      121 </v>
   <v type="int" >        4       52       63       64      122 </v>
   <v type="int" >        4       52       53       64      122 </v>
   <v type="int" >        4       34       52       53      122 </v>
   <v type="int" >        4       52       63      121      122 </v>
   <v type="int" >        4       33       52      121      122 </v>
   <v type="int" >        4       33       34       52      122 </v>
   <v type="int" >        4       53       64       65      123 </v>
   <v type="int" >        4       53       54       65      123 </v>
   <v type="int" >        4       26       53       54      123 </v>
   <v type="int" >        4       53       64      122      123 </v>
   <v type="int" >        4       34       53      122      123 </v>
   <v type="int" >        4       26       34       53      123 </v>
   <v type="int" >        4       54       65       66      124 </v>
   <v type="int" >        4       54       55       66      124 </v>
   <v type="int" >        4       16       54       55      124 </v>
   <v type="int" >        4       54       65      123      124 </v>
   <v type="int" >        4       26       54      123      124 </v>
   <v type="int" >        4       16       26       54      124 </v>
   <v type="int" >        4       10       45       55       66 </v>
   <v type="int" >        4       10       44       45       55 </v>
   <v type="int" >        4        4       10       44       55 </v>
   <v type="int" >        4       10       55       66      124 </v>
   <v type="int" >        4       10       16       55      124 </v>
   <v type="int" >        4        4       10       16       55 </v>
   <v type="int" >        4       17       56       57       67 </v>
   <v type="int" >        4       17       56       57      116 </v>
   <v type="int" >        4       17       17       56      116 </v>
   <v type="int" >        4       10       57       58       67 </v>
   <v type="int" >        4       10       57       58       58 </v>
   <v type="int" >        4       10       20       57       58 </v>
   <v type="int" >        4       10       17       57       67 </v>
   <v type="int" >        4       10       17       57      116 </v>
   <v type="int" >        4       10       20       57      116 </v>
   <v type="int" >        4       58       58       68      124 </v>
   <v type="int" >        4       58       59       68      124 </v>
   <v type="int" >        4       58       59      117      124 </v>
   <v type="int" >        4       10       58       58      124 </v>
   <v type="int" >        4       10       20       58      124 </v>
   <v type="int" >        4       20       58      117      124 </v>
   <v type="int" >        4       59       68       69      123 </v>
   <v type="int" >        4       59       60       69      123 </v>
   <v type="int" >        4       59       60      118      123 </v>
   <v type="int" >        4       59       68      123      124 </v>
   <v type="int" >        4       59      117      123      124 </v>
   <v type="int" >        4       59      117      118      123 </v>
   <v type="int" >        4       60       69       70      122 </v>
   <v type="int" >        4       60       61       70      122 </v>
   <v type="int" >        4       60       61      119      122 </v>
   <v type="int" >        4       60       69      122      123 </v>
   <v type="int" >        4       60      118      122      123 </v>
   <v type="int" >        4       60      118      119      122 </v>
   <v type="int" >        4       61       70       71      121 </v>
   <v type="int" >        4       61       62       71      121 </v>
   <v type="int" >        4       61       62      120      121 </v>
   <v type="int" >        4       61       70      121      122 </v>
   <v type="int" >        4       61      119      121      122 </v>
   <v type="int" >        4       61      119      120      121 </v>
   <v type="int" >        4       62       71       72      120 </v>
   <v type="int" >        4       62       63       72      120 </v>
   <v type="int" >        4       62       63      120      121 </v>
   <v type="int" >        4       62       71      120      121 </v>
   <v type="int" >        8       62      120      120      121 </v>
   <v type="int" >        4       63       72       73      119 </v>
   <v type="int" >        4       63       64       73      119 </v>
   <v type="int" >        4       63       64      119      122 </v>
   <v type="int" >        4       63       72      119      120 </v>
   <v type="int" >        4       63      119      120      121 </v>
   <v type="int" >        4       63      119      121      122 </v>
   <v type="int" >        4       64       73       74      118 </v>
   <v type="int" >        4       64       65       74      118 </v>
   <v type="int" >        4       64       65      118      123 </v>
   <v type="int" >        4       64       73      118      119 </v>
   <v type="int" >        4       64      118      119      122 </v>
   <v type="int" >        4       64      118      122      123 </v>
   <v type="int" >        4       65       74       75      117 </v>
   <v type="int" >        4       65       66       75      117 </v>
   <v type="int" >        4       65       66      117      124 </v>
   <v type="int" >        4       65       74      117      118 </v>
   <v type="int" >        4       65      117      118      123 </v>
   <v type="int" >        4       65      117      123      124 </v>
   <v type="int" >        4       20       46       66       75 </v>
   <v type="int" >        4       20       45       46       66 </v>
   <v type="int" >        4       10       20       45       66 </v>
   <v type="int" >        4       20       66       75      117 </v>
   <v type="int" >        4       20       66      117      124 </v>
   <v type="int" >        4       10       20       66      124 </v>
   <v type="int" >        4        4       47       58       67 </v>
   <v type="int" >        4        4       10       58       67 </v>
   <v type="int" >        4        4       10       17       67 </v>
   <v type="int" >        4       16       47       58       76 </v>
   <v type="int" >        4       16       58       68       76 </v>
   <v type="int" >        4       16       58       68      124 </v>
   <v type="int" >        4        4       16       47       58 </v>
   <v type="int" >        4        4       10       16       58 </v>
   <v type="int" >        4       10       16       58      124 </v>
   <v type="int" >        4       26       68       76       77 </v>
   <v type="int" >        4       26       68       69       77 </v>
   <v type="int" >        4       26       68       69      123 </v>
   <v type="int" >        4       16       26       68       76 </v>
   <v type="int" >        4       16       26       68      124 </v>
   <v type="int" >        4       26       68      123      124 </v>
   <v type="int" >        4       34       69       77       78 </v>
   <v type="int" >        4       34       69       70       78 </v>
   <v type="int" >        4       34       69       70      122 </v>
   <v type="int" >        4       26       34       69       77 </v>
   <v type="int" >        4       26       34       69      123 </v>
   <v type="int" >        4       34       69      122      123 </v>
   <v type="int" >        4       33       70       78       79 </v>
   <v type="int" >        4       33       70       71       79 </v>
   <v type="int" >        4       33       70       71      121 </v>
   <v type="int" >        4       33       34       70       78 </v>
   <v type="int" >        4       33       34       70      122 </v>
   <v type="int" >        4       33       70      121      122 </v>
   <v type="int" >        4       32       71       79       79 </v>
   <v type="int" >        4       32       71       72       79 </v>
   <v type="int" >        4       32       71       72      120 </v>
   <v type="int" >        4       32       33       71       79 </v>
   <v type="int" >        4       32       33       71      121 </v>
   <v type="int" >        4       32       71      120      121 </v>
   <v type="int" >        4       31       72       78       79 </v>
   <v type="int" >        4       31       72       73       78 </v>
   <v type="int" >        4       31       72       73      119 </v>
   <v type="int" >        4       31       32       72       79 </v>
   <v type="int" >        4       31       32       72      120 </v>
   <v type="int" >        4       31       72      119      120 </v>
   <v type="int" >        4       30       73       77       78 </v>
   <v type="int" >        4       30       73       74       77 </v>
   <v type="int" >        4       30       73       74      118 </v>
   <v type="int" >        4       30       31       73       78 </v>
   <v type="int" >        4       30       31       73      119 </v>
   <v type="int" >        4       30       73      118      119 </v>
   <v type="int" >        4       29       74       76       77 </v>
   <v type="int" >        4       29       74       75       76 </v>
   <v type="int" >        4       29       74       75      117 </v>
   <v type="int" >        4       29       30       74       77 </v>
   <v type="int" >        4       29       30       74      118 </v>
   <v type="int" >        4       29       74      117      118 </v>
   <v type="int" >        4       28       47       75       76 </v>
   <v type="int" >        4       28       46       47       75 </v>
   <v type="int" >        4       20       28       46       75 </v>
   <v type="int" >        4       28       29       75       76 </v>
   <v type="int" >        4       28       29       75      117 </v>
   <v type="int" >        4       20       28       75      117 </v>
   <v type="int" >        4       11       47       76       80 </v>
   <v type="int" >        4       11       16       47       76 </v>
   <v type="int" >        4        4       11       16       47 </v>
   <v type="int" >        4       76       80       81      125 </v>
   <v type="int" >        4       76       77       81      125 </v>
   <v type="int" >        4       26       76       77      125 </v>
   <v type="int" >        4       11       76       80      125 </v>
   <v type="int" >        4       11       16       76      125 </v>
   <v type="int" >        4       16       26       76      125 </v>
   <v type="int" >        4       77       81       82      122 </v>
   <v type="int" >        4       77       78       82      122 </v>
   <v type="int" >        4       34       77       78      122 </v>
   <v type="int" >        4       77       81      122      125 </v>
   <v type="int" >        4       26       77      122      125 </v>
   <v type="int" >        4       26       34       77      122 </v>
   <v type="int" >        4       78       82       83      126 </v>
   <v type="int" >        4       78       79       83      126 </v>
   <v type="int" >        4       33       78       79      126 </v>
   <v type="int" >        4       78       82      122      126 </v>
   <v type="int" >        4       34       78      122      126 </v>
   <v type="int" >        4       33       34       78      126 </v>
   <v type="int" >        4       79       83       84      127 </v>
   <v type="int" >        4       79       79       84      127 </v>
   <v type="int" >        4       32       79       79      127 </v>
   <v type="int" >        4       79       83      126      127 </v>
   <v type="int" >        4       33       79      126      127 </v>
   <v type="int" >        4       32       33       79      127 </v>
   <v type="int" >        4       79       84       85      128 </v>
   <v type="int" >        4       78       79       85      128 </v>
   <v type="int" >        4       31       78       79      128 </v>
   <v type="int" >        4       79       84      127      128 </v>
   <v type="int" >        4       32       79      127      128 </v>
   <v type="int" >        4       31       32       79      128 </v>
   <v type="int" >        4       78       85       86      129 </v>
   <v type="int" >        4       77       78       86      129 </v>
   <v type="int" >        4       30       77       78      129 </v>
   <v type="int" >        4       78       85      128      129 </v>
   <v type="int" >        4       31       78      128      129 </v>
   <v type="int" >        4       30       31       78      129 </v>
   <v type="int" >        4       77       86       87      130 </v>
   <v type="int" >        4       76       77       87      130 </v>
   <v type="int" >        4       29       76       77      130 </v>
   <v type="int" >        4       77       86      129      130 </v>
   <v type="int" >        4       30       77      129      130 </v>
   <v type="int" >        4       29       30       77      130 </v>
   <v type="int" >        4       29       48       76       87 </v>
   <v type="int" >        4       29       47       48       76 </v>
   <v type="int" >        4       28       29       47       76 </v>
   <v type="int" >        4       29       76       87      130 </v>
   <v type="int" >        4       29       29       76      130 </v>
   <v type="int" >        4       28       29       29       76 </v>
   <v type="int" >        4       22       80       81       88 </v>
   <v type="int" >        4       22       80       81      125 </v>
   <v type="int" >        4       11       22       80      125 </v>
   <v type="int" >        4       81       88       89      119 </v>
   <v type="int" >        4       81       82       89      119 </v>
   <v type="int" >        4       81       82      119      122 </v>
   <v type="int" >        4       22       81       88      119 </v>
   <v type="int" >        4       22       81      119      125 </v>
   <v type="int" >        4       81      119      122      125 </v>
   <v type="int" >        4       82       89       90      131 </v>
   <v type="int" >        4       82       83       90      131 </v>
   <v type="int" >        4       82       83      126      131 </v>
   <v type="int" >        4       82       89      119      131 </v>
   <v type="int" >        4       82      119      122      131 </v>
   <v type="int" >        4       82      122      126      131 </v>
   <v type="int" >        4       83       90       91      132 </v>
   <v type="int" >        4       83       84       91      132 </v>
   <v type="int" >        4       83       84      127      132 </v>
   <v type="int" >        4       83       90      131      132 </v>
   <v type="int" >        4       83      126      131      132 </v>
   <v type="int" >        4       83      126      127      132 </v>
   <v type="int" >        4       84       91       92      133 </v>
   <v type="int" >        4       84       85       92      133 </v>
   <v type="int" >        4       84       85      128      133 </v>
   <v type="int" >        4       84       91      132      133 </v>
   <v type="int" >        4       84      127      132      133 </v>
   <v type="int" >        4       84      127      128      133 </v>
   <v type="int" >        4       85       92       93      134 </v>
   <v type="int" >        4       85       86       93      134 </v>
   <v type="int" >        4       85       86      129      134 </v>
   <v type="int" >        4       85       92      133      134 </v>
   <v type="int" >        4       85      128      133      134 </v>
   <v type="int" >        4       85      128      129      134 </v>
   <v type="int" >        4       86       93       94      129 </v>
   <v type="int" >        4       86       87       94      129 </v>
   <v type="int" >        4       86       87      129      130 </v>
   <v type="int" >        4       86       93      129      134 </v>
   <v type="int" >        4       86      129      129      134 </v>
   <v type="int" >        4       86      129      129      130 </v>
   <v type="int" >        4       30       49       87       94 </v>
   <v type="int" >        4       30       48       49       87 </v>
   <v type="int" >        4       29       30       48       87 </v>
   <v type="int" >        4       30       87       94      129 </v>
   <v type="int" >        4       30       87      129      130 </v>
   <v type="int" >        4       29       30       87      130 </v>
   <v type="int" >        4       31       88       89       95 </v>
   <v type="int" >        4       31       88       89      119 </v>
   <v type="int" >        4       22       31       88      119 </v>
   <v type="int" >        4       89       95       96      128 </v>
   <v type="int" >        4       89       90       96      128 </v>
   <v type="int" >        4       89       90      128      131 </v>
   <v type="int" >        4       31       89       95      128 </v>
   <v type="int" >        4       31       89      119      128 </v>
   <v type="int" >        4       89      119      128      131 </v>
   <v type="int" >        4       90       96       97      133 </v>
   <v type="int" >        4       90       91       97      133 </v>
   <v type="int" >        4       90       91      132      133 </v>
   <v type="int" >        4       90       96      128      133 </v>
   <v type="int" >        4       90      128      131      133 </v>
   <v type="int" >        4       90      131      132      133 </v>
   <v type="int" >        4       91       97       98      135 </v>
   <v type="int" >        4       91       92       98      135 </v>
   <v type="int" >        4       91       92      133      135 </v>
   <v type="int" >        4       91       97      133      135 </v>
   <v type="int" >        8       91      132      133      135 </v>
   <v type="int" >        4       92       98       99      133 </v>
   <v type="int" >        4       92       93       99      133 </v>
   <v type="int" >        4       92       93      133      134 </v>
   <v type="int" >        8       92       98      133      135 </v>
   <v type="int" >        8       92      133      133      135 </v>
   <v type="int" >        4       92      133      133      134 </v>
   <v type="int" >        4       93       99      100      128 </v>
   <v type="int" >        4       93       94      100      128 </v>
   <v type="int" >        4       93       94      128      129 </v>
   <v type="int" >        4       93       99      128      133 </v>
   <v type="int" >        4       93      128      133      134 </v>
   <v type="int" >        4       93      128      129      134 </v>
   <v type="int" >        4       31       50       94      100 </v>
   <v type="int" >        4       31       49       50       94 </v>
   <v type="int" >        4       30       31       49       94 </v>
   <v type="int" >        4       31       94      100      128 </v>
   <v type="int" >        4       31       94      128      129 </v>
   <v type="int" >        4       30       31       94      129 </v>
   <v type="int" >        4       38       95       96      101 </v>
   <v type="int" >        4       38       95       96      128 </v>
   <v type="int" >        4       31       38       95      128 </v>
   <v type="int" >        4       96      101      102      136 </v>
   <v type="int" >        4       96       97      102      136 </v>
   <v type="int" >        4       96       97      133      136 </v>
   <v type="int" >        4       38       96      101      136 </v>
   <v type="int" >        4       38       96      128      136 </v>
   <v type="int" >        4       96      128      133      136 </v>
   <v type="int" >        4       97      102      103      133 </v>
   <v type="int" >        4       97       98      103      133 </v>
   <v type="int" >        8       97       98      133      135 </v>
   <v type="int" >        4       97      102      133      136 </v>
   <v type="int" >        4       97      133      133      136 </v>
   <v type="int" >        8       97      133      133      135 </v>
   <v type="int" >        4       98      103      104      132 </v>
   <v type="int" >        4       98       99      104      132 </v>
   <v type="int" >        8       98       99      132      133 </v>
   <v type="int" >        4       98      103      132      133 </v>
   <v type="int" >       16       98      132      133      135 </v>
   <v type="int" >        4       99      104      105      127 </v>
   <v type="int" >        4       99      100      105      127 </v>
   <v type="int" >        4       99      100      127      128 </v>
   <v type="int" >        4       99      104      127      132 </v>
   <v type="int" >        4       99      127      132      133 </v>
   <v type="int" >        4       99      127      128      133 </v>
   <v type="int" >        4       32       51      100      105 </v>
   <v type="int" >        4       32       50       51      100 </v>
   <v type="int" >        4       31       32       50      100 </v>
   <v type="int" >        4       32      100      105      127 </v>
   <v type="int" >        4       32      100      127      128 </v>
   <v type="int" >        4       31       32      100      128 </v>
   <v type="int" >        4       38      101      102      106 </v>
   <v type="int" >        4       38      101      102      136 </v>
   <v type="int" >        4       38       38      101      136 </v>
   <v type="int" >        4      102      106      107      128 </v>
   <v type="int" >        4      102      103      107      128 </v>
   <v type="int" >        4      102      103      128      133 </v>
   <v type="int" >        4       38      102      106      128 </v>
   <v type="int" >        4       38      102      128      136 </v>
   <v type="int" >        4      102      128      133      136 </v>
   <v type="int" >        4      103      107      108      131 </v>
   <v type="int" >        4      103      104      108      131 </v>
   <v type="int" >        4      103      104      131      132 </v>
   <v type="int" >        4      103      107      128      131 </v>
   <v type="int" >        4      103      128      131      133 </v>
   <v type="int" >        4      103      131      132      133 </v>
   <v type="int" >        4      104      108      109      126 </v>
   <v type="int" >        4      104      105      109      126 </v>
   <v type="int" >        4      104      105      126      127 </v>
   <v type="int" >        4      104      108      126      131 </v>
   <v type="int" >        4      104      126      131      132 </v>
   <v type="int" >        4      104      126      127      132 </v>
   <v type="int" >        4       33       52      105      109 </v>
   <v type="int" >        4       33       51       52      105 </v>
   <v type="int" >        4       32       33       51      105 </v>
   <v type="int" >        4       33      105      109      126 </v>
   <v type="int" >        4       33      105      126      127 </v>
   <v type="int" >        4       32       33      105      127 </v>
   <v type="int" >        4       31      106      107      110 </v>
   <v type="int" >        4       31      106      107      128 </v>
   <v type="int" >        4       31       38      106      128 </v>
   <v type="int" >        4      107      110      111      119 </v>
   <v type="int" >        4      107      108      111      119 </v>
   <v type="int" >        4      107      108      119      131 </v>
   <v type="int" >        4       31      107      110      119 </v>
   <v type="int" >        4       31      107      119      128 </v>
   <v type="int" >        4      107      119      128      131 </v>
   <v type="int" >        4      108      111      112      122 </v>
   <v type="int" >        4      108      109      112      122 </v>
   <v type="int" >        4      108      109      122      126 </v>
   <v type="int" >        4      108      111      119      122 </v>
   <v type="int" >        4      108      119      122      131 </v>
   <v type="int" >        4      108      122      126      131 </v>
   <v type="int" >        4       34       53      109      112 </v>
   <v type="int" >        4       34       52       53      109 </v>
   <v type="int" >        4       33       34       52      109 </v>
   <v type="int" >        4       34      109      112      122 </v>
   <v type="int" >        4       34      109      122      126 </v>
   <v type="int" >        4       33       34      109      126 </v>
   <v type="int" >        4       22      110      111      113 </v>
   <v type="int" >        4       22      110      111      119 </v>
   <v type="int" >        4       22       31      110      119 </v>
   <v type="int" >        4      111      113      114      125 </v>
   <v type="int" >        4      111      112      114      125 </v>
   <v type="int" >        4      111      112      122      125 </v>
   <v type="int" >        4       22      111      113      125 </v>
   <v type="int" >        4       22      111      119      125 </v>
   <v type="int" >        4      111      119      122      125 </v>
   <v type="int" >        4       26       54      112      114 </v>
   <v type="int" >        4       26       53       54      112 </v>
   <v type="int" >        4       26       34       53      112 </v>
   <v type="int" >        4       26      112      114      125 </v>
   <v type="int" >        4       26      112      122      125 </v>
   <v type="int" >        4       26       34      112      122 </v>
   <v type="int" >        4       11      113      114      115 </v>
   <v type="int" >        4       11      113      114      125 </v>
   <v type="int" >        4       11       22      113      125 </v>
   <v type="int" >        4       16       55      114      115 </v>
   <v type="int" >        4       16       54       55      114 </v>
   <v type="int" >        4       16       26       54      114 </v>
   <v type="int" >        4       11       16      114      115 </v>
   <v type="int" >        4       11       16      114      125 </v>
   <v type="int" >        4       16       26      114      125 </v>
   <v type="int" >        4        4       44       55      115 </v>
   <v type="int" >        4        4       16       55      115 </v>
   <v type="int" >        4        4       11       16      115 </v>
   <v type="int" >        4        4       10       17      147 </v>
   <v type="int" >        4        4       10      138      147 </v>
   <v type="int" >        4        4      137      138      147 </v>
   <v type="int" >        4       10       17      116      148 </v>
   <v type="int" >        4       10       20      116      148 </v>
   <v type="int" >        4       10       20      139      148 </v>
   <v type="int" >        4       10       17      147      148 </v>
   <v type="int" >        4       10      138      147      148 </v>
   <v type="int" >        4       10      138      139      148 </v>
   <v type="int" >        4       20       20      111      116 </v>
   <v type="int" >        4       20       20       28      111 </v>
   <v type="int" >        4       20       28      110      111 </v>
   <v type="int" >        4       20      111      116      148 </v>
   <v type="int" >        4       20      111      139      148 </v>
   <v type="int" >        4       20      110      111      139 </v>
[...]
       <r>   -2.9471    1.0000 </r>
       <r>    2.3536    1.0000 </r>
       <r>    4.3593    1.0000 </r>
       <r>   15.8768    0.0000 </r>
       <r>   17.9139    0.0000 </r>
       <r>   20.3698    0.0000 </r>
       <r>   22.2761    0.0000 </r>
      </set>
      <set comment="kpoint 184">
       <r>   -5.9990    1.0000 </r>
       <r>   -3.3291    1.0000 </r>
       <r>    3.5767    1.0000 </r>
       <r>    5.0035    1.0000 </r>
       <r>   15.4166    0.0000 </r>
       <r>   18.3971    0.0000 </r>
       <r>   18.6003    0.0000 </r>
       <r>   22.5391    0.0000 </r>
      </set>
      <set comment="kpoint 185">
       <r>   -6.4278    1.0000 </r>
       <r>   -3.1099    1.0000 </r>
       <r>    4.0988    1.0000 </r>
       <r>    5.1936    1.0000 </r>
       <r>   16.3103    0.0000 </r>
       <r>   16.7710    0.0000 </r>
       <r>   18.6335    0.0000 </r>
       <r>   22.7606    0.0000 </r>
      </set>
      <set comment="kpoint 186">
       <r>   -7.1544    1.0000 </r>
       <r>   -2.8123    1.0000 </r>
       <r>    5.4731    1.0000 </r>
       <r>    5.5624    1.0000 </r>
       <r>   15.9706    0.0000 </r>
       <r>   16.9288    0.0000 </r>
       <r>   17.2409    0.0000 </r>
       <r>   22.9048    0.0000 </r>
      </set>
      <set comment="kpoint 187">
       <r>   -7.0987    1.0000 </r>
       <r>   -2.2286    1.0000 </r>
       <r>    4.1117    1.0000 </r>
       <r>    5.3640    1.0000 </r>
       <r>   16.1633    0.0000 </r>
       <r>   16.8854    0.0000 </r>
       <r>   18.5915    0.0000 </r>
       <r>   22.3045    0.0000 </r>
      </set>
      <set comment="kpoint 188">
       <r>   -5.8205    1.0000 </r>
       <r>   -1.0956    1.0000 </r>
       <r>    2.3962    1.0000 </r>
       <r>    2.6660    1.0000 </r>
       <r>   13.4959    0.0000 </r>
       <r>   15.0341    0.0000 </r>
       <r>   22.3795    0.0000 </r>
       <r>   23.1758    0.0000 </r>
      </set>
      <set comment="kpoint 189">
       <r>   -3.5224    1.0000 </r>
       <r>   -3.5224    1.0000 </r>
       <r>    2.2536    1.0000 </r>
       <r>    2.2536    1.0000 </r>
       <r>   13.9983    0.0000 </r>
       <r>   13.9983    0.0000 </r>
       <r>   23.4926    0.0000 </r>
       <r>   23.4926    0.0000 </r>
      </set>
      <set comment="kpoint 190">
       <r>   -4.4759    1.0000 </r>
       <r>   -2.2614    1.0000 </r>
       <r>    1.1709    1.0000 </r>
       <r>    2.6262    1.0000 </r>
       <r>   14.2726    0.0000 </r>
       <r>   16.1774    0.0000 </r>
       <r>   22.1650    0.0000 </r>
       <r>   23.0699    0.0000 </r>
      </set>
      <set comment="kpoint 191">
       <r>   -6.1024    1.0000 </r>
       <r>   -3.5059    1.0000 </r>
       <r>    4.0980    1.0000 </r>
       <r>    5.1327    1.0000 </r>
       <r>   16.3759    0.0000 </r>
       <r>   16.7125    0.0000 </r>
       <r>   18.6469    0.0000 </r>
       <r>   22.9396    0.0000 </r>
      </set>
      <set comment="kpoint 192">
       <r>   -7.1777    1.0000 </r>
       <r>    0.1845    1.0000 </r>
       <r>    1.7743    1.0000 </r>
       <r>    4.0924    1.0000 </r>
       <r>   15.7476    0.0000 </r>
       <r>   18.1554    0.0000 </r>
       <r>   18.8067    0.0000 </r>
       <r>   21.5774    0.0000 </r>
      </set>
      <set comment="kpoint 193">
       <r>   -3.2007    1.0000 </r>
       <r>   -3.2007    1.0000 </r>
       <r>    1.3655    1.0000 </r>
       <r>    1.3655    1.0000 </r>
       <r>   16.2887    0.0000 </r>
       <r>   16.2887    0.0000 </r>
       <r>   21.8753    0.0000 </r>
       <r>   21.8753    0.0000 </r>
      </set>
      <set comment="kpoint 194">
       <r>   -4.8460    1.0000 </r>
       <r>   -2.5031    1.0000 </r>
       <r>    1.2119    1.0000 </r>
       <r>    3.0934    1.0000 </r>
       <r>   16.9627    0.0000 </r>
       <r>   17.7516    0.0000 </r>
       <r>   21.0940    0.0000 </r>
       <r>   21.4105    0.0000 </r>
      </set>
     </set>
    </set>
   </array>
  </eigenvalues>
  <separator name="orbital magnetization" >
   <v name="MAGDIPOLOUT">      0.00000000      0.00000000      0.00000000</v>
  </separator>
  <dos>
   <i name="efermi">      8.60556369 </i>
   <total>
    <array>
     <dimension dim="1">gridpoints</dimension>
     <dimension dim="2">spin</dimension>
     <field>energy</field>
     <field>total</field>
     <field>integrated</field>
     <set>
      <set comment="spin 1">
       <r>   -13.8097     0.0000     0.0000 </r>
       <r>   -13.6771     0.0000     0.0000 </r>
       <r>   -13.5445     0.0000     0.0000 </r>
       <r>   -13.4119     0.0000     0.0000 </r>
       <r>   -13.2792     0.0000     0.0000 </r>
       <r>   -13.1466     0.0000     0.0000 </r>
       <r>   -13.0140     0.0000     0.0000 </r>
       <r>   -12.8814     0.0000     0.0000 </r>
       <r>   -12.7488     0.0000     0.0000 </r>
       <r>   -12.6162     0.0000     0.0000 </r>
       <r>   -12.4836     0.0000     0.0000 </r>
       <r>   -12.3510     0.0000     0.0000 </r>
       <r>   -12.2184     0.0000     0.0000 </r>
       <r>   -12.0858     0.0000     0.0000 </r>
       <r>   -11.9531     0.0000     0.0000 </r>
       <r>   -11.8205     0.0000     0.0000 </r>
       <r>   -11.6879     0.0162     0.0007 </r>
       <r>   -11.5553     0.0522     0.0055 </r>
       <r>   -11.4227     0.0683     0.0137 </r>
       <r>   -11.2901     0.0808     0.0235 </r>
       <r>   -11.1575     0.0939     0.0351 </r>
       <r>   -11.0249     0.1027     0.0482 </r>
       <r>   -10.8923     0.1125     0.0624 </r>
       <r>   -10.7597     0.1234     0.0780 </r>
       <r>   -10.6270     0.1329     0.0951 </r>
       <r>   -10.4944     0.1406     0.1133 </r>
       <r>   -10.3618     0.1480     0.1324 </r>
       <r>   -10.2292     0.1537     0.1524 </r>
       <r>   -10.0966     0.1607     0.1732 </r>
       <r>    -9.9640     0.1681     0.1950 </r>
       <r>    -9.8314     0.1754     0.2178 </r>
       <r>    -9.6988     0.1819     0.2415 </r>
       <r>    -9.5662     0.1889     0.2661 </r>
       <r>    -9.4336     0.1965     0.2916 </r>
       <r>    -9.3009     0.2038     0.3182 </r>
       <r>    -9.1683     0.2091     0.3456 </r>
       <r>    -9.0357     0.2149     0.3737 </r>
       <r>    -8.9031     0.2208     0.4026 </r>
       <r>    -8.7705     0.2268     0.4322 </r>
       <r>    -8.6379     0.2328     0.4627 </r>
       <r>    -8.5053     0.2392     0.4940 </r>
       <r>    -8.3727     0.2459     0.5262 </r>
       <r>    -8.2401     0.2528     0.5592 </r>
       <r>    -8.1074     0.2601     0.5932 </r>
       <r>    -7.9748     0.2676     0.6282 </r>
       <r>    -7.8422     0.2751     0.6642 </r>
       <r>    -7.7096     0.2831     0.7012 </r>
       <r>    -7.5770     0.2917     0.7393 </r>
       <r>    -7.4444     0.3009     0.7786 </r>
       <r>    -7.3118     0.3118     0.8192 </r>
       <r>    -7.1792     0.3242     0.8614 </r>
       <r>    -7.0466     0.3392     0.9053 </r>
       <r>    -6.9140     0.3618     0.9517 </r>
       <r>    -6.7813     0.3897     1.0015 </r>
       <r>    -6.6487     0.4219     1.0552 </r>
       <r>    -6.5161     0.4427     1.1148 </r>
       <r>    -6.3835     0.4108     1.1709 </r>
       <r>    -6.2509     0.4014     1.2247 </r>
       <r>    -6.1183     0.3960     1.2774 </r>
       <r>    -5.9857     0.3929     1.3299 </r>
       <r>    -5.8531     0.3779     1.3811 </r>
       <r>    -5.7205     0.3627     1.4302 </r>
       <r>    -5.5879     0.3556     1.4776 </r>
       <r>    -5.4552     0.3526     1.5249 </r>
       <r>    -5.3226     0.3365     1.5706 </r>
       <r>    -5.1900     0.3199     1.6141 </r>
       <r>    -5.0574     0.3102     1.6558 </r>
       <r>    -4.9248     0.3059     1.6966 </r>
       <r>    -4.7922     0.3064     1.7372 </r>
       <r>    -4.6596     0.3073     1.7779 </r>
       <r>    -4.5270     0.3033     1.8184 </r>
       <r>    -4.3944     0.2976     1.8584 </r>
       <r>    -4.2618     0.2720     1.8964 </r>
       <r>    -4.1291     0.2341     1.9300 </r>
       <r>    -3.9965     0.1923     1.9581 </r>
       <r>    -3.8639     0.0996     1.9778 </r>
       <r>    -3.7313     0.0663     1.9881 </r>
       <r>    -3.5987     0.0673     1.9967 </r>
       <r>    -3.4661     0.0940     2.0074 </r>
       <r>    -3.3335     0.1258     2.0218 </r>
       <r>    -3.2009     0.1710     2.0414 </r>
       <r>    -3.0683     0.2024     2.0664 </r>
       <r>    -2.9357     0.2552     2.0964 </r>
       <r>    -2.8030     0.3474     2.1352 </r>
       <r>    -2.6704     0.5007     2.1921 </r>
       <r>    -2.5378     0.6296     2.2669 </r>
       <r>    -2.4052     0.7719     2.3599 </r>
       <r>    -2.2726     0.8490     2.4690 </r>
       <r>    -2.1400     0.7417     2.5751 </r>
       <r>    -2.0074     0.6060     2.6643 </r>
       <r>    -1.8748     0.5219     2.7387 </r>
       <r>    -1.7422     0.4668     2.8041 </r>
       <r>    -1.6096     0.4191     2.8628 </r>
       <r>    -1.4769     0.3855     2.9160 </r>
       <r>    -1.3443     0.3591     2.9653 </r>
       <r>    -1.2117     0.3352     3.0113 </r>
       <r>    -1.0791     0.3178     3.0545 </r>
       <r>    -0.9465     0.3058     3.0958 </r>
       <r>    -0.8139     0.2961     3.1357 </r>
       <r>    -0.6813     0.2872     3.1744 </r>
       <r>    -0.5487     0.2757     3.2118 </r>
       <r>    -0.4161     0.2621     3.2474 </r>
       <r>    -0.2835     0.2462     3.2812 </r>
       <r>    -0.1508     0.2316     3.3128 </r>
       <r>    -0.0182     0.2215     3.3428 </r>
       <r>     0.1144     0.2373     3.3724 </r>
       <r>     0.2470     0.3044     3.4080 </r>
       <r>     0.3796     0.3938     3.4545 </r>
       <r>     0.5122     0.5292     3.5153 </r>
       <r>     0.6448     0.6221     3.5923 </r>
       <r>     0.7774     0.6406     3.6774 </r>
       <r>     0.9100     0.6030     3.7598 </r>
       <r>     1.0426     0.5852     3.8383 </r>
       <r>     1.1753     0.5812     3.9158 </r>
       <r>     1.3079     0.5753     3.9923 </r>
       <r>     1.4405     0.5672     4.0680 </r>
       <r>     1.5731     0.5644     4.1430 </r>
       <r>     1.7057     0.5712     4.2181 </r>
       <r>     1.8383     0.5842     4.2948 </r>
       <r>     1.9709     0.5954     4.3730 </r>
       <r>     2.1035     0.6362     4.4543 </r>
       <r>     2.2361     0.6651     4.5410 </r>
       <r>     2.3687     0.6970     4.6319 </r>
       <r>     2.5014     0.7234     4.7259 </r>
       <r>     2.6340     0.7737     4.8249 </r>
       <r>     2.7666     0.8510     4.9324 </r>
       <r>     2.8992     0.8968     5.0489 </r>
       <r>     3.0318     0.8687     5.1666 </r>
       <r>     3.1644     0.8551     5.2805 </r>
       <r>     3.2970     0.8465     5.3934 </r>
       <r>     3.4296     0.8446     5.5056 </r>
       <r>     3.5622     0.8347     5.6170 </r>
       <r>     3.6948     0.8269     5.7271 </r>
       <r>     3.8275     0.8177     5.8362 </r>
       <r>     3.9601     0.8045     5.9438 </r>
       <r>     4.0927     0.7927     6.0496 </r>
       <r>     4.2253     0.7879     6.1544 </r>
       <r>     4.3579     0.7847     6.2587 </r>
       <r>     4.4905     0.7791     6.3624 </r>
       <r>     4.6231     0.7709     6.4652 </r>
       <r>     4.7557     0.7642     6.5669 </r>
       <r>     4.8883     0.7577     6.6678 </r>
       <r>     5.0209     0.7514     6.7679 </r>
       <r>     5.1536     0.7437     6.8670 </r>
       <r>     5.2862     0.7388     6.9652 </r>
       <r>     5.4188     0.7307     7.0628 </r>
       <r>     5.5514     0.7180     7.1589 </r>
       <r>     5.6840     0.7184     7.2536 </r>
       <r>     5.8166     0.6523     7.3441 </r>
       <r>     5.9492     0.5548     7.4246 </r>
       <r>     6.0818     0.4833     7.4929 </r>
       <r>     6.2144     0.4309     7.5533 </r>
       <r>     6.3470     0.3877     7.6075 </r>
       <r>     6.4797     0.3604     7.6570 </r>
       <r>     6.6123     0.3339     7.7031 </r>
       <r>     6.7449     0.3051     7.7455 </r>
       <r>     6.8775     0.2732     7.7839 </r>
       <r>     7.0101     0.2464     7.8182 </r>
       <r>     7.1427     0.2229     7.8493 </r>
       <r>     7.2753     0.1999     7.8773 </r>
       <r>     7.4079     0.1774     7.9023 </r>
       <r>     7.5405     0.1572     7.9245 </r>
       <r>     7.6731     0.1414     7.9444 </r>
       <r>     7.8058     0.1207     7.9617 </r>
       <r>     7.9384     0.1068     7.9767 </r>
       <r>     8.0710     0.0732     7.9887 </r>
       <r>     8.2036     0.0379     7.9964 </r>
       <r>     8.3362     0.0111     7.9994 </r>
       <r>     8.4688     0.0003     8.0000 </r>
       <r>     8.6014     0.0000     8.0000 </r>
       <r>     8.7340     0.0000     8.0000 </r>
       <r>     8.8666     0.0000     8.0000 </r>
       <r>     8.9992     0.0000     8.0000 </r>
       <r>     9.1319     0.0000     8.0000 </r>
       <r>     9.2645     0.0000     8.0000 </r>
       <r>     9.3971     0.0000     8.0000 </r>
       <r>     9.5297     0.0000     8.0000 </r>
       <r>     9.6623     0.0000     8.0000 </r>
       <r>     9.7949     0.0000     8.0000 </r>
       <r>     9.9275     0.0000     8.0000 </r>
       <r>    10.0601     0.0000     8.0000 </r>
       <r>    10.1927     0.0000     8.0000 </r>
       <r>    10.3254     0.0000     8.0000 </r>
       <r>    10.4580     0.0000     8.0000 </r>
       <r>    10.5906     0.0000     8.0000 </r>
       <r>    10.7232     0.0000     8.0000 </r>
       <r>    10.8558     0.0000     8.0000 </r>
       <r>    10.9884     0.0000     8.0000 </r>
       <r>    11.1210     0.0000     8.0000 </r>
       <r>    11.2536     0.0000     8.0000 </r>
       <r>    11.3862     0.0000     8.0000 </r>
       <r>    11.5188     0.0000     8.0000 </r>
       <r>    11.6515     0.0000     8.0000 </r>
       <r>    11.7841     0.0000     8.0000 </r>
       <r>    11.9167     0.0000     8.0000 </r>
       <r>    12.0493     0.0000     8.0000 </r>
       <r>    12.1819     0.0000     8.0000 </r>
       <r>    12.3145     0.0000     8.0000 </r>
       <r>    12.4471     0.0000     8.0000 </r>
       <r>    12.5797     0.0062     8.0002 </r>
       <r>    12.7123     0.0422     8.0032 </r>
       <r>    12.8449     0.0902     8.0120 </r>
       <r>    12.9776     0.1406     8.0273 </r>
       <r>    13.1102     0.1866     8.0491 </r>
       <r>    13.2428     0.2202     8.0762 </r>
       <r>    13.3754     0.2512     8.1074 </r>
       <r>    13.5080     0.2891     8.1431 </r>
       <r>    13.6406     0.3293     8.1841 </r>
       <r>    13.7732     0.3703     8.2304 </r>
       <r>    13.9058     0.4271     8.2832 </r>
       <r>    14.0384     0.4786     8.3434 </r>
       <r>    14.1710     0.5039     8.4092 </r>
       <r>    14.3037     0.5211     8.4768 </r>
       <r>    14.4363     0.5507     8.5479 </r>
       <r>    14.5689     0.5769     8.6227 </r>
       <r>    14.7015     0.6039     8.7009 </r>
       <r>    14.8341     0.6230     8.7822 </r>
       <r>    14.9667     0.6506     8.8666 </r>
       <r>    15.0993     0.6816     8.9548 </r>
       <r>    15.2319     0.7182     9.0476 </r>
       <r>    15.3645     0.7641     9.1457 </r>
       <r>    15.4971     0.8284     9.2510 </r>
       <r>    15.6298     0.9309     9.3670 </r>
       <r>    15.7624     1.0870     9.5005 </r>
       <r>    15.8950     1.2421     9.6552 </r>
       <r>    16.0276     1.4444     9.8330 </r>
       <r>    16.1602     1.5384    10.0336 </r>
       <r>    16.2928     0.9764    10.1978 </r>
       <r>    16.4254     0.7612    10.3092 </r>
       <r>    16.5580     0.7872    10.4104 </r>
       <r>    16.6906     0.9133    10.5267 </r>
       <r>    16.8232     1.0104    10.6537 </r>
       <r>    16.9559     0.9692    10.7902 </r>
       <r>    17.0885     0.9243    10.9164 </r>
       <r>    17.2211     0.9397    11.0397 </r>
       <r>    17.3537     0.9847    11.1670 </r>
       <r>    17.4863     1.0616    11.3025 </r>
       <r>    17.6189     1.1106    11.4466 </r>
       <r>    17.7515     1.0291    11.5920 </r>
       <r>    17.8841     1.0260    11.7258 </r>
       <r>    18.0167     0.9986    11.8600 </r>
       <r>    18.1493     0.9531    11.9899 </r>
       <r>    18.2820     0.8796    12.1115 </r>
       <r>    18.4146     0.7930    12.2226 </r>
       <r>    18.5472     0.7170    12.3220 </r>
       <r>    18.6798     0.7722    12.4186 </r>
       <r>    18.8124     0.6995    12.5245 </r>
       <r>    18.9450     0.6049    12.6103 </r>
       <r>    19.0776     0.5372    12.6858 </r>
       <r>    19.2102     0.4929    12.7539 </r>
       <r>    19.3428     0.4831    12.8179 </r>
       <r>    19.4754     0.5387    12.8850 </r>
       <r>    19.6081     0.6161    12.9615 </r>
       <r>    19.7407     0.6859    13.0460 </r>
       <r>    19.8733     0.8252    13.1487 </r>
       <r>    20.0059     0.9054    13.2637 </r>
       <r>    20.1385     1.0320    13.3916 </r>
       <r>    20.2711     1.0650    13.5324 </r>
       <r>    20.4037     1.0698    13.6756 </r>
       <r>    20.5363     1.0048    13.8130 </r>
       <r>    20.6689     0.9791    13.9441 </r>
       <r>    20.8015     0.9020    14.0699 </r>
       <r>    20.9342     0.8219    14.1827 </r>
       <r>    21.0668     0.7610    14.2876 </r>
       <r>    21.1994     0.7511    14.3875 </r>
       <r>    21.3320     0.7666    14.4876 </r>
       <r>    21.4646     0.8401    14.5934 </r>
       <r>    21.5972     0.9629    14.7125 </r>
       <r>    21.7298     1.1217    14.8509 </r>
       <r>    21.8624     1.1920    15.0056 </r>
       <r>    21.9950     1.1127    15.1598 </r>
       <r>    22.1276     0.9643    15.2979 </r>
       <r>    22.2603     0.8041    15.4145 </r>
       <r>    22.3929     0.7013    15.5148 </r>
       <r>    22.5255     0.6146    15.6019 </r>
       <r>    22.6581     0.5379    15.6781 </r>
       <r>    22.7907     0.4844    15.7456 </r>
       <r>    22.9233     0.4575    15.8078 </r>
       <r>    23.0559     0.4117    15.8658 </r>
       <r>    23.1885     0.3157    15.9159 </r>
       <r>    23.3211     0.1905    15.9477 </r>
       <r>    23.4537     0.1571    15.9710 </r>
       <r>    23.5864     0.0942    15.9879 </r>
       <r>    23.7190     0.0405    15.9966 </r>
       <r>    23.8516     0.0093    15.9996 </r>
       <r>    23.9842     0.0000    16.0000 </r>
       <r>    24.1168     0.0000    16.0000 </r>
       <r>    24.2494     0.0000    16.0000 </r>
       <r>    24.3820     0.0000    16.0000 </r>
       <r>    24.5146     0.0000    16.0000 </r>
       <r>    24.6472     0.0000    16.0000 </r>
       <r>    24.7798     0.0000    16.0000 </r>
       <r>    24.9125     0.0000    16.0000 </r>
       <r>    25.0451     0.0000    16.0000 </r>
       <r>    25.1777     0.0000    16.0000 </r>
       <r>    25.3103     0.0000    16.0000 </r>
       <r>    25.4429     0.0000    16.0000 </r>
       <r>    25.5755     0.0000    16.0000 </r>
       <r>    25.7081     0.0000    16.0000 </r>
       <r>    25.8407     0.0000    16.0000 </r>
       <r>    25.9733     0.0000    16.0000 </r>
      </set>
     </set>
    </array>
   </total>
  </dos>
 </calculation>
 <structure name="finalpos" >
  <crystal>
   <varray name="basis" >
    <v>       2.59873554       0.00000000       0.00000000 </v>
    <v>       1.29936777       2.25057100       0.00000000 </v>
    <v>       1.29936777       0.75019033       2.12185868 </v>
   </varray>
   <i name="volume">     12.40998511 </i>
   <varray name="rec_basis" >
    <v>       0.38480253      -0.22216584      -0.15709497 </v>
    <v>       0.00000000       0.44433168      -0.15709497 </v>
    <v>       0.00000000       0.00000000       0.47128492 </v>
   </varray>
  </crystal>
  <varray name="positions" >
   <v>       0.00000000       0.00000000       0.00000000 </v>
   <v>       0.25000000       0.25000000       0.24999999 </v>
  </varray>
 </structure>
</modeling>
