  32  32   0   0
  0.6647258E+01  0.4934311E-09  0.4934311E-09  0.1008861E-08  0.5000000E-15
  1.000000000000000E-004
  CAR 
 graphite                                
     19.50660077    -14.85044023  301      7.56968488      1.00000000
    -14.850  0.0000E+00  0.0000E+00
    -14.736  0.0000E+00  0.0000E+00
    -14.621  0.0000E+00  0.0000E+00
    -14.507  0.0000E+00  0.0000E+00
    -14.392  0.0000E+00  0.0000E+00
    -14.278  0.0000E+00  0.0000E+00
    -14.163  0.0000E+00  0.0000E+00
    -14.049  0.0000E+00  0.0000E+00
    -13.934  0.0000E+00  0.0000E+00
    -13.820  0.0000E+00  0.0000E+00
    -13.705  0.0000E+00  0.0000E+00
    -13.591  0.0000E+00  0.0000E+00
    -13.476  0.0000E+00  0.0000E+00
    -13.362  0.0000E+00  0.0000E+00
    -13.247  0.0000E+00  0.0000E+00
    -13.133  0.0000E+00  0.0000E+00
    -13.018  0.0000E+00  0.0000E+00
    -12.904  0.0000E+00  0.0000E+00
    -12.789  0.4409E+00  0.9092E-02
    -12.674  0.9459E+00  0.9529E-01
    -12.560  0.1316E+01  0.2300E+00
    -12.445  0.1565E+01  0.3938E+00
    -12.331  0.1859E+01  0.5898E+00
    -12.216  0.2041E+01  0.8131E+00
    -12.102  0.2234E+01  0.1058E+01
    -11.987  0.2457E+01  0.1326E+01
    -11.873  0.2650E+01  0.1620E+01
    -11.758  0.2820E+01  0.1933E+01
    -11.644  0.3010E+01  0.2266E+01
    -11.529  0.3404E+01  0.2639E+01
    -11.415  0.3653E+01  0.3041E+01
    -11.300  0.4205E+01  0.3509E+01
    -11.186  0.4419E+01  0.4001E+01
    -11.071  0.3457E+01  0.4449E+01
    -10.957  0.3629E+01  0.4834E+01
    -10.842  0.5091E+01  0.5355E+01
    -10.728  0.5949E+01  0.5962E+01
    -10.613  0.5096E+01  0.6637E+01
    -10.499  0.5366E+01  0.7211E+01
    -10.384  0.3853E+01  0.7784E+01
    -10.270  0.3500E+01  0.8173E+01
    -10.155  0.5334E+01  0.8662E+01
    -10.040  0.6294E+01  0.9318E+01
     -9.926  0.4274E+01  0.9958E+01
     -9.811  0.4205E+01  0.1039E+02
     -9.697  0.5617E+01  0.1096E+02
     -9.582  0.5669E+01  0.1164E+02
     -9.468  0.4568E+01  0.1222E+02
     -9.353  0.4551E+01  0.1274E+02
     -9.239  0.5056E+01  0.1329E+02
     -9.124  0.5268E+01  0.1387E+02
     -9.010  0.6224E+01  0.1452E+02
     -8.895  0.5094E+01  0.1513E+02
     -8.781  0.5102E+01  0.1571E+02
     -8.666  0.5248E+01  0.1630E+02
     -8.552  0.5417E+01  0.1692E+02
     -8.437  0.5705E+01  0.1755E+02
     -8.323  0.5672E+01  0.1822E+02
     -8.208  0.5304E+01  0.1884E+02
     -8.094  0.5796E+01  0.1947E+02
     -7.979  0.6156E+01  0.2017E+02
     -7.865  0.5571E+01  0.2083E+02
     -7.750  0.5223E+01  0.2145E+02
     -7.635  0.4730E+01  0.2204E+02
     -7.521  0.4306E+01  0.2254E+02
     -7.406  0.4487E+01  0.2304E+02
     -7.292  0.5015E+01  0.2361E+02
     -7.177  0.6005E+01  0.2423E+02
     -7.063  0.6162E+01  0.2496E+02
     -6.948  0.5389E+01  0.2562E+02
     -6.834  0.5743E+01  0.2625E+02
     -6.719  0.6080E+01  0.2693E+02
     -6.605  0.5945E+01  0.2765E+02
     -6.490  0.1115E+02  0.2856E+02
     -6.376  0.4590E+01  0.2937E+02
     -6.261  0.3763E+01  0.2984E+02
     -6.147  0.3344E+01  0.3024E+02
     -6.032  0.3412E+01  0.3062E+02
     -5.918  0.2511E+01  0.3098E+02
     -5.803  0.1818E+01  0.3122E+02
     -5.689  0.1958E+01  0.3142E+02
     -5.574  0.5039E+01  0.3181E+02
     -5.460  0.3673E+01  0.3227E+02
     -5.345  0.4862E+01  0.3274E+02
     -5.230  0.5416E+01  0.3333E+02
     -5.116  0.4568E+01  0.3392E+02
     -5.001  0.4658E+01  0.3443E+02
     -4.887  0.6334E+01  0.3505E+02
     -4.772  0.8590E+01  0.3590E+02
     -4.658  0.6778E+01  0.3672E+02
     -4.543  0.6690E+01  0.3749E+02
     -4.429  0.6819E+01  0.3826E+02
     -4.314  0.6364E+01  0.3902E+02
     -4.200  0.6754E+01  0.3978E+02
     -4.085  0.5555E+01  0.4047E+02
     -3.971  0.5387E+01  0.4110E+02
     -3.856  0.5254E+01  0.4170E+02
     -3.742  0.5087E+01  0.4229E+02
     -3.627  0.5021E+01  0.4287E+02
     -3.513  0.5022E+01  0.4345E+02
     -3.398  0.4443E+01  0.4398E+02
     -3.284  0.3966E+01  0.4447E+02
     -3.169  0.3625E+01  0.4490E+02
     -3.055  0.3667E+01  0.4531E+02
     -2.940  0.4121E+01  0.4575E+02
     -2.825  0.5363E+01  0.4629E+02
     -2.711  0.7417E+01  0.4701E+02
     -2.596  0.8447E+01  0.4794E+02
     -2.482  0.7661E+01  0.4888E+02
     -2.367  0.6269E+01  0.4967E+02
     -2.253  0.6684E+01  0.5041E+02
     -2.138  0.5965E+01  0.5118E+02
     -2.024  0.3743E+01  0.5185E+02
     -1.909  0.4568E+01  0.5229E+02
     -1.795  0.7109E+01  0.5297E+02
     -1.680  0.8102E+01  0.5385E+02
     -1.566  0.7841E+01  0.5478E+02
     -1.451  0.7075E+01  0.5563E+02
     -1.337  0.5851E+01  0.5639E+02
     -1.222  0.6123E+01  0.5706E+02
     -1.108  0.7442E+01  0.5783E+02
     -0.993  0.8681E+01  0.5875E+02
     -0.879  0.9874E+01  0.5985E+02
     -0.764  0.1093E+02  0.6100E+02
     -0.650  0.8775E+01  0.6212E+02
     -0.535  0.7562E+01  0.6305E+02
     -0.420  0.7312E+01  0.6389E+02
     -0.306  0.8388E+01  0.6479E+02
     -0.191  0.8886E+01  0.6574E+02
     -0.077  0.8782E+01  0.6685E+02
      0.038  0.7895E+01  0.6785E+02
      0.152  0.8471E+01  0.6877E+02
      0.267  0.9835E+01  0.6981E+02
      0.381  0.1092E+02  0.7099E+02
      0.496  0.1133E+02  0.7228E+02
      0.610  0.1226E+02  0.7363E+02
      0.725  0.1166E+02  0.7499E+02
      0.839  0.1357E+02  0.7648E+02
      0.954  0.1196E+02  0.7793E+02
      1.068  0.1316E+02  0.7938E+02
      1.183  0.1078E+02  0.8076E+02
      1.297  0.1803E+02  0.8232E+02
      1.412  0.1113E+02  0.8393E+02
      1.526  0.1430E+02  0.8542E+02
      1.641  0.1224E+02  0.8697E+02
      1.755  0.1046E+02  0.8830E+02
      1.870  0.1082E+02  0.8948E+02
      1.985  0.1110E+02  0.9077E+02
      2.099  0.1091E+02  0.9203E+02
      2.214  0.1009E+02  0.9321E+02
      2.328  0.9519E+01  0.9431E+02
      2.443  0.9466E+01  0.9540E+02
      2.557  0.9620E+01  0.9650E+02
      2.672  0.1006E+02  0.9761E+02
      2.786  0.9796E+01  0.9876E+02
      2.901  0.9064E+01  0.9985E+02
      3.015  0.8960E+01  0.1009E+03
      3.130  0.8883E+01  0.1019E+03
      3.244  0.8931E+01  0.1029E+03
      3.359  0.9250E+01  0.1040E+03
      3.473  0.8912E+01  0.1050E+03
      3.588  0.8708E+01  0.1060E+03
      3.702  0.9616E+01  0.1071E+03
      3.817  0.9053E+01  0.1082E+03
      3.931  0.8934E+01  0.1092E+03
      4.046  0.8595E+01  0.1102E+03
      4.160  0.8119E+01  0.1111E+03
      4.275  0.9140E+01  0.1121E+03
      4.390  0.8312E+01  0.1132E+03
      4.504  0.7809E+01  0.1141E+03
      4.619  0.7125E+01  0.1149E+03
      4.733  0.5089E+01  0.1156E+03
      4.848  0.4487E+01  0.1162E+03
      4.962  0.4237E+01  0.1167E+03
      5.077  0.4116E+01  0.1172E+03
      5.191  0.3811E+01  0.1176E+03
      5.306  0.3915E+01  0.1181E+03
      5.420  0.4989E+01  0.1186E+03
      5.535  0.5752E+01  0.1192E+03
      5.649  0.6675E+01  0.1199E+03
      5.764  0.7157E+01  0.1207E+03
      5.878  0.5928E+01  0.1215E+03
      5.993  0.6445E+01  0.1222E+03
      6.107  0.8466E+01  0.1230E+03
      6.222  0.6401E+01  0.1239E+03
      6.336  0.5083E+01  0.1246E+03
      6.451  0.3796E+01  0.1251E+03
      6.565  0.3655E+01  0.1255E+03
      6.680  0.3330E+01  0.1259E+03
      6.794  0.4097E+01  0.1263E+03
      6.909  0.3464E+01  0.1268E+03
      7.024  0.2858E+01  0.1271E+03
      7.138  0.2533E+01  0.1275E+03
      7.253  0.2160E+01  0.1278E+03
      7.367  0.8317E+00  0.1279E+03
      7.482  0.3085E+00  0.1280E+03
      7.596  0.1175E+00  0.1280E+03
      7.711  0.3356E+00  0.1280E+03
      7.825  0.6275E+00  0.1281E+03
      7.940  0.9284E+00  0.1282E+03
      8.054  0.1130E+01  0.1283E+03
      8.169  0.1076E+01  0.1284E+03
      8.283  0.1162E+01  0.1286E+03
      8.398  0.1275E+01  0.1287E+03
      8.512  0.1414E+01  0.1289E+03
      8.627  0.1576E+01  0.1290E+03
      8.741  0.1737E+01  0.1292E+03
      8.856  0.2466E+01  0.1294E+03
      8.970  0.3073E+01  0.1298E+03
      9.085  0.3756E+01  0.1302E+03
      9.199  0.4818E+01  0.1306E+03
      9.314  0.6589E+01  0.1314E+03
      9.429  0.5730E+01  0.1321E+03
      9.543  0.5407E+01  0.1328E+03
      9.658  0.6894E+01  0.1334E+03
      9.772  0.7363E+01  0.1343E+03
      9.887  0.6247E+01  0.1351E+03
     10.001  0.4614E+01  0.1357E+03
     10.116  0.5505E+01  0.1363E+03
     10.230  0.5445E+01  0.1369E+03
     10.345  0.5203E+01  0.1375E+03
     10.459  0.5186E+01  0.1381E+03
     10.574  0.5127E+01  0.1387E+03
     10.688  0.5211E+01  0.1393E+03
     10.803  0.5086E+01  0.1399E+03
     10.917  0.4696E+01  0.1404E+03
     11.032  0.4584E+01  0.1409E+03
     11.146  0.4150E+01  0.1414E+03
     11.261  0.3946E+01  0.1419E+03
     11.375  0.4148E+01  0.1424E+03
     11.490  0.4289E+01  0.1429E+03
     11.604  0.4508E+01  0.1434E+03
     11.719  0.4303E+01  0.1439E+03
     11.834  0.3723E+01  0.1443E+03
     11.948  0.3612E+01  0.1447E+03
     12.063  0.3538E+01  0.1452E+03
     12.177  0.3513E+01  0.1456E+03
     12.292  0.3504E+01  0.1460E+03
     12.406  0.3501E+01  0.1464E+03
     12.521  0.3695E+01  0.1468E+03
     12.635  0.3257E+01  0.1472E+03
     12.750  0.3031E+01  0.1475E+03
     12.864  0.2908E+01  0.1479E+03
     12.979  0.2748E+01  0.1482E+03
     13.093  0.3134E+01  0.1485E+03
     13.208  0.3293E+01  0.1489E+03
     13.322  0.3071E+01  0.1493E+03
     13.437  0.3272E+01  0.1496E+03
     13.551  0.2390E+01  0.1499E+03
     13.666  0.1849E+01  0.1502E+03
     13.780  0.2757E+01  0.1504E+03
     13.895  0.3991E+01  0.1508E+03
     14.009  0.4042E+01  0.1513E+03
     14.124  0.3724E+01  0.1517E+03
     14.239  0.4071E+01  0.1522E+03
     14.353  0.4726E+01  0.1527E+03
     14.468  0.4467E+01  0.1532E+03
     14.582  0.5687E+01  0.1538E+03
     14.697  0.6887E+01  0.1545E+03
     14.811  0.5944E+01  0.1552E+03
     14.926  0.6154E+01  0.1559E+03
     15.040  0.6302E+01  0.1566E+03
     15.155  0.8245E+01  0.1576E+03
     15.269  0.7359E+01  0.1585E+03
     15.384  0.8119E+01  0.1594E+03
     15.498  0.8537E+01  0.1603E+03
     15.613  0.9846E+01  0.1614E+03
     15.727  0.1166E+02  0.1626E+03
     15.842  0.8212E+01  0.1638E+03
     15.956  0.6750E+01  0.1646E+03
     16.071  0.6187E+01  0.1653E+03
     16.185  0.6378E+01  0.1661E+03
     16.300  0.4158E+01  0.1667E+03
     16.414  0.2910E+01  0.1671E+03
     16.529  0.1986E+01  0.1673E+03
     16.644  0.1583E+01  0.1675E+03
     16.758  0.1250E+01  0.1677E+03
     16.873  0.8741E+00  0.1678E+03
     16.987  0.5665E+00  0.1679E+03
     17.102  0.2670E+00  0.1680E+03
     17.216  0.1506E+00  0.1680E+03
     17.331  0.7572E-01  0.1680E+03
     17.445  0.1778E-01  0.1680E+03
     17.560  0.0000E+00  0.1680E+03
     17.674  0.0000E+00  0.1680E+03
     17.789  0.0000E+00  0.1680E+03
     17.903  0.0000E+00  0.1680E+03
     18.018  0.0000E+00  0.1680E+03
     18.132  0.0000E+00  0.1680E+03
     18.247  0.0000E+00  0.1680E+03
     18.361  0.0000E+00  0.1680E+03
     18.476  0.0000E+00  0.1680E+03
     18.590  0.0000E+00  0.1680E+03
     18.705  0.0000E+00  0.1680E+03
     18.819  0.0000E+00  0.1680E+03
     18.934  0.0000E+00  0.1680E+03
     19.049  0.0000E+00  0.1680E+03
     19.163  0.0000E+00  0.1680E+03
     19.278  0.0000E+00  0.1680E+03
     19.392  0.0000E+00  0.1680E+03
     19.507  0.0000E+00  0.1680E+03
