   32   32    1    1
  0.8419860E+01  0.4934311E-09  0.4934311E-09  0.1277891E-08  0.5000000E-15
  1.000000000000000E-004
  CAR 
 graphite                                
    128    163     84
 
  0.0000000E+00  0.0000000E+00  0.0000000E+00  0.3086420E-02
    1      -14.570364
    2      -14.363660
    3      -14.363090
    4      -14.136487
    5       -9.214971
    6       -9.213352
    7       -9.211638
    8       -9.123772
    9       -9.120153
   10       -9.119695
   11       -9.119302
   12       -9.119124
   13       -9.115406
   14       -9.050844
   15       -9.048788
   16       -9.046008
   17       -8.115478
   18       -8.112011
   19       -8.109784
   20       -8.076448
   21       -8.072870
   22       -8.071636
   23       -8.071383
   24       -8.071196
   25       -8.067118
   26       -7.992532
   27       -7.989539
   28       -7.987560
   29       -3.605926
   30       -2.489624
   31       -2.487572
   32       -1.290932
   33       -1.288330
   34       -1.284191
   35       -1.248992
   36       -1.245056
   37       -1.245044
   38       -1.244428
   39       -1.241911
   40       -1.238424
   41       -1.202259
   42       -1.200016
   43       -1.195485
   44       -1.102948
   45        2.107704
   46        2.119816
   47        2.123353
   48        2.128767
   49        2.133541
   50        2.138624
   51        2.142245
   52        2.153919
   53        2.205356
   54        2.207143
   55        2.208473
   56        2.754319
   57        2.759005
   58        2.759191
   59        2.759436
   60        2.759888
   61        2.764367
   62        3.081798
   63        3.083986
   64        3.086146
   65        6.661552
   66        6.666074
   67        6.668897
   68        6.751475
   69        6.757151
   70        6.758649
   71        6.759252
   72        6.759615
   73        6.765456
   74        7.444484
   75        7.448840
   76        7.451174
   77        9.880031
   78       12.225271
   79       12.229059
   80       12.233579
   81       12.496177
   82       12.499708
   83       12.500773
   84       12.502596
 
  0.1111111E+00 -0.2081668E-16  0.0000000E+00  0.6172840E-02
    1      -14.496502
    2      -14.290656
    3      -14.290088
    4      -14.064370
    5      -10.023724
    6       -9.873131
    7       -9.872636
    8       -9.713457
    9       -9.473274
   10       -9.471095
   11       -9.342510
   12       -9.340925
   13       -9.340188
   14       -9.337756
   15       -9.209215
   16       -9.206570
   17       -7.835631
   18       -7.832265
   19       -7.734888
   20       -7.731931
   21       -7.730403
   22       -7.729811
   23       -7.613793
   24       -7.610755
   25       -7.327462
   26       -7.209494
   27       -7.207329
   28       -7.080315
   29       -3.516045
   30       -2.402913
   31       -2.400863
   32       -1.517601
   33       -1.512892
   34       -1.469616
   35       -1.468932
   36       -1.465864
   37       -1.462500
   38       -1.419793
   39       -1.414746
   40       -1.217879
   41       -1.175311
   42       -1.172732
   43       -1.129722
   44       -1.020382
   45        1.586802
   46        1.814935
   47        1.834007
   48        1.838941
   49        1.858719
   50        1.950464
   51        1.968553
   52        1.973653
   53        1.991093
   54        2.080305
   55        2.081983
   56        2.331136
   57        2.333992
   58        2.705903
   59        2.707181
   60        2.707555
   61        2.712128
   62        3.035356
   63        3.168189
   64        3.170920
   65        6.706616
   66        6.711622
   67        6.882727
   68        6.888339
   69        6.889839
   70        6.891642
   71        6.942439
   72        7.298614
   73        7.302953
   74        7.579823
   75        7.584072
   76        8.067581
   77        9.966331
   78       12.269383
   79       12.536405
   80       12.538208
   81       12.562168
   82       12.568270
   83       12.822125
   84       12.834182
 
  0.2222222E+00 -0.1387779E-16  0.0000000E+00  0.6172840E-02
    1      -14.275236
    2      -14.071856
    3      -14.071292
    4      -13.848584
    5      -11.038560
    6      -10.871754
    7      -10.871275
    8      -10.692313
    9       -9.825650
   10       -9.823669
   11       -9.678351
   12       -9.676734
   13       -9.676182
   14       -9.674242
   15       -9.520716
   16       -9.518556
   17       -7.160675
   18       -7.157476
   19       -7.046797
   20       -7.044119
   21       -7.042455
   22       -7.041874
   23       -6.921107
   24       -6.918029
   25       -6.002022
   26       -5.890301
   27       -5.888291
   28       -5.770566
   29       -3.247877
   30       -2.143634
   31       -2.141590
   32       -2.128032
   33       -2.123651
   34       -2.069765
   35       -2.069310
   36       -2.066443
   37       -2.063168
   38       -2.008722
   39       -2.004051
   40       -1.002890
   41       -0.961290
   42       -0.958555
   43       -0.916496
   44       -0.773958
   45        0.544371
   46        0.983106
   47        1.015207
   48        1.019826
   49        1.052230
   50        1.444595
   51        1.446881
   52        1.528950
   53        1.553728
   54        1.558569
   55        1.583296
   56        1.842600
   57        1.844407
   58        2.471221
   59        2.584360
   60        2.585709
   61        2.586087
   62        2.590498
   63        3.289985
   64        3.292768
   65        6.892699
   66        6.897491
   67        7.216775
   68        7.222281
   69        7.223530
   70        7.225278
   71        7.876654
   72        7.880322
   73        7.999716
   74        8.518600
   75        8.522075
   76        9.275478
   77       10.226142
   78       12.390932
   79       12.649118
   80       12.650744
   81       12.899102
   82       13.136536
   83       13.139790
   84       13.463530
 
  0.3333333E+00 -0.2775558E-16  0.0000000E+00  0.6172840E-02
    1      -13.907855
    2      -13.708470
    3      -13.707915
    4      -13.490139
    5      -11.953980
    6      -11.776569
    7      -11.776054
    8      -11.584076
    9      -10.084449
   10      -10.082596
   11       -9.930849
   12       -9.929157
   13       -9.928817
   14       -9.927008
   15       -9.765528
   16       -9.763562
   17       -6.351137
   18       -6.347885
   19       -6.245365
   20       -6.242436
   21       -6.240715
   22       -6.240316
   23       -6.130928
   24       -6.127808
   25       -4.564598
   26       -4.467091
   27       -4.464883
   28       -4.362569
   29       -2.946352
   30       -2.942559
   31       -2.878727
   32       -2.878570
   33       -2.876165
   34       -2.872844
   35       -2.807259
   36       -2.803926
   37       -2.802772
   38       -1.715022
   39       -1.713010
   40       -0.654164
   41       -0.614062
   42       -0.611083
   43       -0.570314
   44       -0.488118
   45       -0.368029
   46       -0.208492
   47       -0.160427
   48       -0.156475
   49       -0.107765
   50        0.493922
   51        0.496030
   52        0.964983
   53        0.995669
   54        0.999904
   55        1.030674
   56        1.639089
   57        1.640956
   58        1.670269
   59        2.459950
   60        2.461409
   61        2.461785
   62        2.466044
   63        3.349064
   64        3.351793
   65        7.204795
   66        7.208832
   67        7.607415
   68        7.612837
   69        7.613707
   70        7.615302
   71        8.156408
   72        8.159583
   73        9.491990
   74        9.993485
   75        9.996540
   76       10.654558
   77       10.666227
   78       12.552260
   79       12.823892
   80       12.825865
   81       12.869401
   82       13.252451
   83       13.255607
   84       13.305228
 
  0.4444444E+00 -0.2775558E-16  0.0000000E+00  0.6172840E-02
    1      -13.396015
    2      -13.202320
    3      -13.201778
    4      -12.990859
    5      -12.743010
    6      -12.556522
    7      -12.555984
    8      -12.353770
    9      -10.217817
   10      -10.216028
   11      -10.061804
   12      -10.060023
   13      -10.059891
   14      -10.058072
   15       -9.893436
   16       -9.891552
   17       -5.594374
   18       -5.591509
   19       -5.517505
   20       -5.513570
   21       -5.512847
   22       -5.512359
   23       -5.437302
   24       -5.434830
   25       -3.688578
   26       -3.686374
   27       -3.635458
   28       -3.634237
   29       -3.633963
   30       -3.630179
   31       -3.571181
   32       -3.568367
   33       -3.079066
   34       -2.997377
   35       -2.994747
   36       -2.910216
   37       -2.188376
   38       -1.601098
   39       -1.537468
   40       -1.534406
   41       -1.466414
   42       -1.410636
   43       -1.121537
   44       -1.119347
   45       -0.378756
   46       -0.376682
   47       -0.188028
   48       -0.149747
   49       -0.146399
   50       -0.108125
   51        0.188899
   52        0.367437
   53        0.402746
   54        0.406361
   55        0.441705
   56        0.880020
   57        1.527305
   58        1.529200
   59        2.385153
   60        2.386666
   61        2.387038
   62        2.391224
   63        3.362589
   64        3.365256
   65        7.470632
   66        7.473544
   67        7.873791
   68        7.879184
   69        7.879749
   70        7.881162
   71        8.300221
   72        8.303262
   73       11.124112
   74       11.262613
   75       11.529426
   76       11.532898
   77       12.016242
   78       12.088884
   79       12.735851
   80       12.872207
   81       12.915612
   82       12.922424
   83       13.041917
   84       13.043917
 
 -0.1694066E-20  0.1111111E+00  0.0000000E+00  0.6172840E-02
    1      -14.496504
    2      -14.290658
    3      -14.290089
    4      -14.064371
    5      -10.023652
    6       -9.873007
    7       -9.872571
    8       -9.713336
    9       -9.473554
   10       -9.471085
   11       -9.342887
   12       -9.340908
   13       -9.340180
   14       -9.338057
   15       -9.209199
   16       -9.207013
   17       -7.835718
   18       -7.830923
   19       -7.735263
   20       -7.731926
   21       -7.730380
   22       -7.726967
   23       -7.614030
   24       -7.609254
   25       -7.328467
   26       -7.209603
   27       -7.209228
   28       -7.081323
   29       -3.516041
   30       -2.402907
   31       -2.400857
   32       -1.518756
   33       -1.513062
   34       -1.471585
   35       -1.468934
   36       -1.465864
   37       -1.463194
   38       -1.420833
   39       -1.415094
   40       -1.216423
   41       -1.172765
   42       -1.172557
   43       -1.128439
   44       -1.020375
   45        1.587539
   46        1.812629
   47        1.833220
   48        1.834013
   49        1.854721
   50        1.954654
   51        1.973647
   52        1.974255
   53        1.993353
   54        2.079351
   55        2.081962
   56        2.332502
   57        2.334636
   58        2.703997
   59        2.707462
   60        2.707580
   61        2.711132
   62        3.036734
   63        3.167346
   64        3.170252
   65        6.706925
   66        6.713537
   67        6.883275
   68        6.888301
   69        6.890193
   70        6.895076
   71        6.940336
   72        7.297791
   73        7.300067
   74        7.579955
   75        7.586080
   76        8.065891
   77        9.966339
   78       12.269894
   79       12.537105
   80       12.538250
   81       12.562249
   82       12.567939
   83       12.821076
   84       12.837635
 
  0.1111111E+00  0.1111111E+00  0.0000000E+00  0.6172840E-02
    1      -14.348933
    2      -14.144732
    3      -14.144167
    4      -13.920473
    5      -10.490397
    6      -10.487262
    7      -10.332406
    8      -10.329236
    9      -10.329205
   10      -10.326041
   11      -10.160391
   12      -10.157157
   13       -9.023595
   14       -8.932186
   15       -8.930567
   16       -8.861659
   17       -7.930737
   18       -7.893457
   19       -7.890246
   20       -7.813653
   21       -6.646916
   22       -6.643603
   23       -6.531305
   24       -6.528863
   25       -6.528831
   26       -6.524463
   27       -6.406124
   28       -6.402578
   29       -3.337178
   30       -2.229883
   31       -2.227840
   32       -2.199678
   33       -2.141368
   34       -2.138904
   35       -2.078972
   36       -1.373747
   37       -1.370802
   38       -1.327751
   39       -1.323816
   40       -1.323805
   41       -1.322203
   42       -1.277047
   43       -1.274399
   44       -0.855861
   45        1.139063
   46        1.141123
   47        1.283694
   48        1.303377
   49        1.308364
   50        1.326707
   51        1.640015
   52        1.655013
   53        1.659846
   54        1.675962
   55        1.972444
   56        1.976130
   57        1.976357
   58        1.978719
   59        2.473845
   60        2.869781
   61        2.872504
   62        3.024213
   63        3.027794
   64        3.343009
   65        6.657401
   66        6.679897
   67        6.684377
   68        7.235968
   69        7.375907
   70        7.378877
   71        7.838307
   72        7.840056
   73        7.840377
   74        7.844984
   75        8.586357
   76        8.588913
   77       10.139630
   78       12.643495
   79       12.647647
   80       12.906392
   81       12.911414
   82       12.911470
   83       12.915147
   84       13.097853
 
  0.2222222E+00  0.1111111E+00  0.0000000E+00  0.6172840E-02
    1      -14.054599
    2      -13.853595
    3      -13.853036
    4      -13.633322
    5      -11.458595
    6      -11.286839
    7      -11.286348
    8      -11.101480
    9      -10.831501
   10      -10.667397
   11      -10.666928
   12      -10.490788
   13       -9.085458
   14       -8.958866
   15       -8.957928
   16       -8.830837
   17       -7.487685
   18       -7.393337
   19       -7.390656
   20       -7.280811
   21       -5.860770
   22       -5.753086
   23       -5.752645
   24       -5.639426
   25       -5.260387
   26       -5.156612
   27       -5.154577
   28       -5.045573
   29       -3.110369
   30       -3.040688
   31       -3.038267
   32       -2.980867
   33       -2.965235
   34       -1.901650
   35       -1.885820
   36       -1.883794
   37       -1.845250
   38       -1.844726
   39       -1.786346
   40       -1.086297
   41       -1.041242
   42       -1.038588
   43       -0.992746
   44       -0.529567
   45        0.081705
   46        0.325344
   47        0.358516
   48        0.363709
   49        0.395665
   50        0.797146
   51        1.026113
   52        1.028274
   53        1.091481
   54        1.114388
   55        1.119632
   56        1.143621
   57        1.689024
   58        1.691117
   59        2.137388
   60        2.599205
   61        2.707364
   62        3.225427
   63        3.228840
   64        3.685303
   65        6.597402
   66        6.687996
   67        6.692625
   68        7.163225
   69        7.928536
   70        8.407799
   71        8.410132
   72        8.695378
   73        9.047026
   74        9.207743
   75        9.210749
   76        9.893174
   77       10.487578
   78       12.795027
   79       13.054201
   80       13.055882
   81       13.233753
   82       13.315213
   83       13.318246
   84       13.607954
 
  0.3333333E+00  0.1111111E+00  0.0000000E+00  0.6172840E-02
    1      -13.614946
    2      -13.418847
    3      -13.418298
    4      -13.204427
    5      -12.311502
    6      -12.129954
    7      -12.129435
    8      -11.932862
    9      -11.040312
   10      -10.873411
   11      -10.872935
   12      -10.693721
   13       -9.234692
   14       -9.094112
   15       -9.093572
   16       -8.945961
   17       -6.725358
   18       -6.627973
   19       -6.625448
   20       -6.522795
   21       -5.056606
   22       -4.967216
   23       -4.966135
   24       -4.873796
   25       -4.045290
   26       -3.974766
   27       -3.972186
   28       -3.894663
   29       -3.806174
   30       -3.717995
   31       -3.715744
   32       -3.624270
   33       -2.600971
   34       -2.541989
   35       -2.540623
   36       -2.476991
   37       -2.450838
   38       -1.375880
   39       -1.373956
   40       -0.927833
   41       -0.902033
   42       -0.874685
   43       -0.870013
   44       -0.818584
   45       -0.669548
   46       -0.626937
   47       -0.624100
   48       -0.580602
   49       -0.047580
   50        0.105433
   51        0.107494
   52        0.463559
   53        0.495778
   54        0.500448
   55        0.533589
   56        0.583663
   57        1.324313
   58        1.506347
   59        1.508474
   60        2.582232
   61        2.589905
   62        3.314213
   63        3.317186
   64        4.026326
   65        6.500264
   66        6.807425
   67        6.811456
   68        7.262932
   69        8.435183
   70        8.861902
   71        8.864521
   72        9.336525
   73       10.261962
   74       10.710808
   75       10.713573
   76       11.008810
   77       11.287563
   78       12.517442
   79       13.074630
   80       13.246178
   81       13.248250
   82       13.358075
   83       13.366070
   84       13.383912
 
  0.4444444E+00  0.1111111E+00  0.0000000E+00  0.6172840E-02
    1      -13.034070
    2      -13.031144
    3      -12.845615
    4      -12.842782
    5      -12.842658
    6      -12.839662
    7      -12.637770
    8      -12.634751
    9      -11.110229
   10      -10.942703
   11      -10.942222
   12      -10.761958
   13       -9.291541
   14       -9.148378
   15       -9.147933
   16       -8.996671
   17       -6.209268
   18       -6.145408
   19       -6.143044
   20       -6.084176
   21       -4.569573
   22       -4.546309
   23       -4.516102
   24       -4.513003
   25       -4.512450
   26       -4.509695
   27       -4.463868
   28       -4.459564
   29       -3.008429
   30       -2.976345
   31       -2.973040
   32       -2.929473
   33       -2.340263
   34       -2.337352
   35       -2.268583
   36       -2.268209
   37       -2.268144
   38       -2.262089
   39       -2.193867
   40       -2.190250
   41       -1.754971
   42       -1.752617
   43       -0.708110
   44       -0.704599
   45       -0.704382
   46       -0.701757
   47       -0.145442
   48       -0.139229
   49       -0.107834
   50       -0.099795
   51       -0.099732
   52       -0.098196
   53       -0.062086
   54       -0.057933
   55        0.510898
   56        0.576902
   57        0.579678
   58        1.443771
   59        1.445959
   60        2.547574
   61        2.564627
   62        3.335748
   63        3.338269
   64        4.161546
   65        6.465904
   66        6.875272
   67        6.878465
   68        7.316834
   69        8.659123
   70        9.039531
   71        9.042579
   72        9.418075
   73       11.694731
   74       11.696630
   75       11.869101
   76       11.872845
   77       12.201267
   78       12.203699
   79       12.204700
   80       12.209895
   81       12.673532
   82       12.676778
   83       13.307552
   84       13.311344
 
 -0.4444444E+00  0.1111111E+00  0.0000000E+00  0.6172840E-02
    1      -13.615054
    2      -13.418954
    3      -13.418408
    4      -13.204536
    5      -12.311334
    6      -12.129790
    7      -12.129261
    8      -11.932692
    9      -11.040537
   10      -10.873635
   11      -10.873156
   12      -10.693941
   13       -9.234565
   14       -9.093945
   15       -9.093529
   16       -8.945885
   17       -6.722777
   18       -6.624650
   19       -6.623895
   20       -6.520499
   21       -5.059280
   22       -4.970544
   23       -4.967932
   24       -4.876237
   25       -4.048026
   26       -3.976770
   27       -3.975927
   28       -3.897658
   29       -3.806159
   30       -3.718132
   31       -3.715507
   32       -3.624177
   33       -2.597927
   34       -2.539688
   35       -2.536476
   36       -2.473595
   37       -2.450869
   38       -1.375897
   39       -1.373979
   40       -0.928864
   41       -0.902019
   42       -0.875167
   43       -0.871957
   44       -0.820115
   45       -0.669726
   46       -0.627251
   47       -0.624004
   48       -0.580659
   49       -0.047570
   50        0.105435
   51        0.107526
   52        0.465276
   53        0.497836
   54        0.500940
   55        0.534594
   56        0.583766
   57        1.324288
   58        1.506434
   59        1.508734
   60        2.581716
   61        2.590284
   62        3.313839
   63        3.316089
   64        4.025223
   65        6.503051
   66        6.810141
   67        6.812685
   68        7.264051
   69        8.433080
   70        8.859995
   71        8.863456
   72        9.335707
   73       10.262268
   74       10.711072
   75       10.714121
   76       11.008776
   77       11.288159
   78       12.517302
   79       13.073745
   80       13.244805
   81       13.247549
   82       13.359934
   83       13.368523
   84       13.385110
 
 -0.3333333E+00  0.1111111E+00  0.0000000E+00  0.6172840E-02
    1      -14.054676
    2      -13.853673
    3      -13.853115
    4      -13.633401
    5      -11.458396
    6      -11.286644
    7      -11.286141
    8      -11.101272
    9      -10.831951
   10      -10.667835
   11      -10.667366
   12      -10.491217
   13       -9.085328
   14       -8.958511
   15       -8.958143
   16       -8.830839
   17       -7.484626
   18       -7.389243
   19       -7.388930
   20       -7.278019
   21       -5.863603
   22       -5.756693
   23       -5.754605
   24       -5.642162
   25       -5.260544
   26       -5.156823
   27       -5.154641
   28       -5.045689
   29       -3.113922
   30       -3.043265
   31       -3.042938
   32       -2.980895
   33       -2.968931
   34       -1.897692
   35       -1.885833
   36       -1.883809
   37       -1.842351
   38       -1.839494
   39       -1.782161
   40       -1.086334
   41       -1.041367
   42       -1.038462
   43       -0.992717
   44       -0.529562
   45        0.081740
   46        0.322945
   47        0.357076
   48        0.359394
   49        0.391993
   50        0.797373
   51        1.026066
   52        1.028319
   53        1.095543
   54        1.118795
   55        1.121107
   56        1.146012
   57        1.689225
   58        1.691705
   59        2.137322
   60        2.598193
   61        2.708097
   62        3.224720
   63        3.226912
   64        3.683952
   65        6.601432
   66        6.692588
   67        6.694924
   68        7.165764
   69        7.925180
   70        8.404456
   71        8.408225
   72        8.695555
   73        9.045101
   74        9.207865
   75        9.211196
   76        9.893642
   77       10.487552
   78       12.794378
   79       13.053376
   80       13.055417
   81       13.233051
   82       13.317393
   83       13.319212
   84       13.626219
 
 -0.2222222E+00  0.1111111E+00  0.0000000E+00  0.6172840E-02
    1      -14.348980
    2      -14.144779
    3      -14.144214
    4      -13.920520
    5      -10.489403
    6      -10.488586
    7      -10.330154
    8      -10.329698
    9      -10.329289
   10      -10.328830
   11      -10.159385
   12      -10.158623
   13       -9.023572
   14       -8.931526
   15       -8.931277
   16       -8.861657
   17       -7.927491
   18       -7.888846
   19       -7.888671
   20       -7.810633
   21       -6.648393
   22       -6.644919
   23       -6.532507
   24       -6.530594
   25       -6.529113
   26       -6.527061
   27       -6.407537
   28       -6.404090
   29       -3.337195
   30       -2.229895
   31       -2.227852
   32       -2.203640
   33       -2.144270
   34       -2.144070
   35       -2.083085
   36       -1.372896
   37       -1.367188
   38       -1.326375
   39       -1.323716
   40       -1.320712
   41       -1.317952
   42       -1.276394
   43       -1.270642
   44       -0.855859
   45        1.139790
   46        1.140786
   47        1.278553
   48        1.300142
   49        1.300279
   50        1.319745
   51        1.647400
   52        1.663021
   53        1.663269
   54        1.681167
   55        1.973680
   56        1.976131
   57        1.976304
   58        1.978835
   59        2.472536
   60        2.870484
   61        2.872828
   62        3.023373
   63        3.025588
   64        3.341781
   65        6.661797
   66        6.684983
   67        6.687349
   68        7.239850
   69        7.372334
   70        7.378450
   71        7.834463
   72        7.838517
   73        7.840158
   74        7.844099
   75        8.583958
   76        8.588761
   77       10.139613
   78       12.644916
   79       12.650882
   80       12.909556
   81       12.911251
   82       12.915605
   83       12.917156
   84       13.098453
 
 -0.1111111E+00  0.1111111E+00  0.0000000E+00  0.6172840E-02
    1      -14.496519
    2      -14.290674
    3      -14.290105
    4      -14.064387
    5      -10.024354
    6       -9.873703
    7       -9.873215
    8       -9.713962
    9       -9.473022
   10       -9.470850
   11       -9.342749
   12       -9.340025
   13       -9.339959
   14       -9.337956
   15       -9.209130
   16       -9.206508
   17       -7.833007
   18       -7.830953
   19       -7.731262
   20       -7.730576
   21       -7.730502
   22       -7.727219
   23       -7.611460
   24       -7.609490
   25       -7.331089
   26       -7.212951
   27       -7.210985
   28       -7.083825
   29       -3.516046
   30       -2.402911
   31       -2.400861
   32       -1.519385
   33       -1.516737
   34       -1.472651
   35       -1.468909
   36       -1.468896
   37       -1.467672
   38       -1.421291
   39       -1.418926
   40       -1.212095
   41       -1.169594
   42       -1.166859
   43       -1.123877
   44       -1.020374
   45        1.588182
   46        1.805618
   47        1.825285
   48        1.830540
   49        1.849625
   50        1.959773
   51        1.977153
   52        1.982237
   53        2.000498
   54        2.079071
   55        2.081284
   56        2.333048
   57        2.336106
   58        2.702911
   59        2.707394
   60        2.707966
   61        2.709154
   62        3.038145
   63        3.166658
   64        3.169496
   65        6.710790
   66        6.713957
   67        6.888642
   68        6.890279
   69        6.890629
   70        6.896121
   71        6.935859
   72        7.292781
   73        7.297130
   74        7.583823
   75        7.586367
   76        8.062322
   77        9.966333
   78       12.274928
   79       12.542321
   80       12.543251
   81       12.560346
   82       12.564316
   83       12.826184
   84       12.834114
 
 -0.5082198E-20  0.2222222E+00  0.0000000E+00  0.6172840E-02
    1      -14.275243
    2      -14.071862
    3      -14.071299
    4      -13.848590
    5      -11.038599
    6      -10.871787
    7      -10.871313
    8      -10.692344
    9       -9.826126
   10       -9.823281
   11       -9.679224
   12       -9.676724
   13       -9.676170
   14       -9.673552
   15       -9.521086
   16       -9.518274
   17       -7.160997
   18       -7.156117
   19       -7.047505
   20       -7.044118
   21       -7.042427
   22       -7.038965
   23       -6.921412
   24       -6.916521
   25       -6.002947
   26       -5.890418
   27       -5.890070
   28       -5.771541
   29       -3.247858
   30       -2.143608
   31       -2.141568
   32       -2.129277
   33       -2.123814
   34       -2.071983
   35       -2.069317
   36       -2.066442
   37       -2.063694
   38       -2.009845
   39       -2.004300
   40       -1.001372
   41       -0.958598
   42       -0.958429
   43       -0.915174
   44       -0.773925
   45        0.544806
   46        0.981061
   47        1.015030
   48        1.015237
   49        1.049327
   50        1.445290
   51        1.447350
   52        1.532164
   53        1.558545
   54        1.558701
   55        1.585365
   56        1.841603
   57        1.844480
   58        2.472078
   59        2.582413
   60        2.585965
   61        2.586123
   62        2.589783
   63        3.289046
   64        3.292181
   65        6.892923
   66        6.899452
   67        7.217420
   68        7.222267
   69        7.223887
   70        7.228641
   71        7.876904
   72        7.882340
   73        7.998037
   74        8.517850
   75        8.520056
   76        9.274177
   77       10.226165
   78       12.391551
   79       12.650149
   80       12.650944
   81       12.899719
   82       13.137383
   83       13.140306
   84       13.466391
 
  0.1111111E+00  0.2222222E+00  0.0000000E+00  0.6172840E-02
    1      -14.054603
    2      -13.853600
    3      -13.853042
    4      -13.633327
    5      -11.458650
    6      -11.286891
    7      -11.286404
    8      -11.101532
    9      -10.831461
   10      -10.667365
   11      -10.666890
   12      -10.490759
   13       -9.085448
   14       -8.958865
   15       -8.957915
   16       -8.830832
   17       -7.487631
   18       -7.393208
   19       -7.390656
   20       -7.280735
   21       -5.859735
   22       -5.752732
   23       -5.750874
   24       -5.638332
   25       -5.261401
   26       -5.156809
   27       -5.156478
   28       -5.046659
   29       -3.110456
   30       -3.040688
   31       -3.038440
   32       -2.980852
   33       -2.965322
   34       -1.903123
   35       -1.885801
   36       -1.883776
   37       -1.847580
   38       -1.845229
   39       -1.787712
   40       -1.084717
   41       -1.038608
   42       -1.038251
   43       -0.991339
   44       -0.529540
   45        0.082063
   46        0.324399
   47        0.358516
   48        0.361445
   49        0.394155