  32  32   0   0
  0.8294063E+01  0.4932875E-09  0.4932875E-09  0.1260033E-08  0.5000000E-15
  1.000000000000000E-004
  CAR 
 graphite                                
     16.94634554    -16.46460923  301      5.22988937      1.00000000
    -16.465  0.0000E+00  0.0000E+00
    -16.353  0.0000E+00  0.0000E+00
    -16.242  0.0000E+00  0.0000E+00
    -16.130  0.0000E+00  0.0000E+00
    -16.019  0.0000E+00  0.0000E+00
    -15.908  0.0000E+00  0.0000E+00
    -15.796  0.0000E+00  0.0000E+00
    -15.685  0.0000E+00  0.0000E+00
    -15.574  0.0000E+00  0.0000E+00
    -15.462  0.0000E+00  0.0000E+00
    -15.351  0.0000E+00  0.0000E+00
    -15.240  0.0000E+00  0.0000E+00
    -15.128  0.0000E+00  0.0000E+00
    -15.017  0.0000E+00  0.0000E+00
    -14.905  0.0000E+00  0.0000E+00
    -14.794  0.0000E+00  0.0000E+00
    -14.683  0.0000E+00  0.0000E+00
    -14.571  0.0000E+00  0.0000E+00
    -14.460  0.3934E-02  0.6107E-05
    -14.349  0.1214E+01  0.5470E-01
    -14.237  0.2111E+01  0.2622E+00
    -14.126  0.2821E+01  0.5355E+00
    -14.014  0.3769E+01  0.8990E+00
    -13.903  0.5099E+01  0.1399E+01
    -13.792  0.4766E+01  0.1959E+01
    -13.680  0.4887E+01  0.2496E+01
    -13.569  0.4999E+01  0.3047E+01
    -13.458  0.5000E+01  0.3605E+01
    -13.346  0.5102E+01  0.4165E+01
    -13.235  0.6565E+01  0.4810E+01
    -13.124  0.7027E+01  0.5572E+01
    -13.012  0.6217E+01  0.6323E+01
    -12.901  0.6215E+01  0.7016E+01
    -12.789  0.2670E+01  0.7535E+01
    -12.678  0.1895E+01  0.7780E+01
    -12.567  0.1808E+01  0.7980E+01
    -12.455  0.2352E+01  0.8206E+01
    -12.344  0.7151E+01  0.8603E+01
    -12.233  0.5893E+01  0.9476E+01
    -12.121  0.6616E+01  0.1015E+02
    -12.010  0.6798E+01  0.1092E+02
    -11.898  0.4090E+01  0.1156E+02
    -11.787  0.4244E+01  0.1203E+02
    -11.676  0.4447E+01  0.1251E+02
    -11.564  0.4656E+01  0.1302E+02
    -11.453  0.4852E+01  0.1355E+02
    -11.342  0.5063E+01  0.1410E+02
    -11.230  0.5190E+01  0.1467E+02
    -11.119  0.5335E+01  0.1526E+02
    -11.007  0.5697E+01  0.1586E+02
    -10.896  0.5999E+01  0.1653E+02
    -10.785  0.5779E+01  0.1719E+02
    -10.673  0.5692E+01  0.1783E+02
    -10.562  0.5867E+01  0.1847E+02
    -10.451  0.6049E+01  0.1913E+02
    -10.339  0.5850E+01  0.1979E+02
    -10.228  0.5829E+01  0.2044E+02
    -10.117  0.5822E+01  0.2109E+02
    -10.005  0.5013E+01  0.2171E+02
     -9.894  0.3837E+01  0.2219E+02
     -9.782  0.3783E+01  0.2260E+02
     -9.671  0.4554E+01  0.2307E+02
     -9.560  0.4894E+01  0.2360E+02
     -9.448  0.6187E+01  0.2422E+02
     -9.337  0.7607E+01  0.2497E+02
     -9.226  0.1029E+02  0.2595E+02
     -9.114  0.8933E+01  0.2707E+02
     -9.003  0.6543E+01  0.2793E+02
     -8.891  0.4956E+01  0.2856E+02
     -8.780  0.4399E+01  0.2908E+02
     -8.669  0.6596E+01  0.2954E+02
     -8.557  0.4379E+01  0.3019E+02
     -8.446  0.4453E+01  0.3068E+02
     -8.335  0.1943E+01  0.3104E+02
     -8.223  0.1724E+01  0.3124E+02
     -8.112  0.1504E+01  0.3142E+02
     -8.001  0.1284E+01  0.3158E+02
     -7.889  0.1504E+01  0.3173E+02
     -7.778  0.2000E+01  0.3192E+02
     -7.666  0.2509E+01  0.3217E+02
     -7.555  0.3458E+01  0.3249E+02
     -7.444  0.8750E+01  0.3312E+02
     -7.332  0.6765E+01  0.3412E+02
     -7.221  0.5156E+01  0.3472E+02
     -7.110  0.5647E+01  0.3532E+02
     -6.998  0.6915E+01  0.3602E+02
     -6.887  0.8183E+01  0.3686E+02
     -6.775  0.9451E+01  0.3784E+02
     -6.664  0.7848E+01  0.3881E+02
     -6.553  0.5779E+01  0.3960E+02
     -6.441  0.5570E+01  0.4023E+02
     -6.330  0.5500E+01  0.4084E+02
     -6.219  0.5414E+01  0.4145E+02
     -6.107  0.5227E+01  0.4204E+02
     -5.996  0.5048E+01  0.4262E+02
     -5.884  0.4927E+01  0.4317E+02
     -5.773  0.4808E+01  0.4371E+02
     -5.662  0.4689E+01  0.4424E+02
     -5.550  0.4570E+01  0.4476E+02
     -5.439  0.4451E+01  0.4526E+02
     -5.328  0.4327E+01  0.4575E+02
     -5.216  0.4589E+01  0.4624E+02
     -5.105  0.5261E+01  0.4679E+02
     -4.994  0.5888E+01  0.4741E+02
     -4.882  0.6516E+01  0.4810E+02
     -4.771  0.7143E+01  0.4886E+02
     -4.659  0.7770E+01  0.4969E+02
     -4.548  0.8397E+01  0.5059E+02
     -4.437  0.8716E+01  0.5156E+02
     -4.325  0.5751E+01  0.5232E+02
     -4.214  0.5560E+01  0.5289E+02
     -4.103  0.7191E+01  0.5359E+02
     -3.991  0.5596E+01  0.5431E+02
     -3.880  0.3996E+01  0.5484E+02
     -3.768  0.2396E+01  0.5520E+02
     -3.657  0.1081E+01  0.5538E+02
     -3.546  0.2216E+01  0.5554E+02
     -3.434  0.4222E+01  0.5589E+02
     -3.323  0.6452E+01  0.5649E+02
     -3.212  0.9856E+01  0.5741E+02
     -3.100  0.1317E+02  0.5867E+02
     -2.989  0.1318E+02  0.6013E+02
     -2.877  0.9879E+01  0.6144E+02
     -2.766  0.5237E+01  0.6224E+02
     -2.655  0.5463E+01  0.6281E+02
     -2.543  0.6587E+01  0.6348E+02
     -2.432  0.8032E+01  0.6428E+02
     -2.321  0.1416E+02  0.6551E+02
     -2.209  0.2484E+02  0.6754E+02
     -2.098  0.9227E+01  0.6934E+02
     -1.987  0.7376E+01  0.7022E+02
     -1.875  0.7191E+01  0.7103E+02
     -1.764  0.7302E+01  0.7183E+02
     -1.652  0.8369E+01  0.7269E+02
     -1.541  0.1551E+02  0.7387E+02
     -1.430  0.1303E+02  0.7551E+02
     -1.318  0.9249E+01  0.7676E+02
     -1.207  0.1505E+02  0.7785E+02
     -1.096  0.2858E+02  0.8064E+02
     -0.984  0.2220E+02  0.8294E+02
     -0.873  0.1516E+02  0.8496E+02
     -0.761  0.1463E+02  0.8662E+02
     -0.650  0.1297E+02  0.8822E+02
     -0.539  0.9687E+01  0.8948E+02
     -0.427  0.8236E+01  0.9047E+02
     -0.316  0.7125E+01  0.9130E+02
     -0.205  0.8168E+01  0.9215E+02
     -0.093  0.8894E+01  0.9310E+02
      0.018  0.1025E+02  0.9416E+02
      0.129  0.1126E+02  0.9537E+02
      0.241  0.1888E+02  0.9690E+02
      0.352  0.1206E+02  0.9866E+02
      0.464  0.1237E+02  0.1000E+03
      0.575  0.1094E+02  0.1013E+03
      0.686  0.9320E+01  0.1024E+03
      0.798  0.8989E+01  0.1034E+03
      0.909  0.8815E+01  0.1044E+03
      1.020  0.8599E+01  0.1054E+03
      1.132  0.8576E+01  0.1064E+03
      1.243  0.1072E+02  0.1075E+03
      1.355  0.9860E+01  0.1086E+03
      1.466  0.1013E+02  0.1097E+03
      1.577  0.1007E+02  0.1108E+03
      1.689  0.1028E+02  0.1120E+03
      1.800  0.9302E+01  0.1131E+03
      1.911  0.8991E+01  0.1141E+03
      2.023  0.1010E+02  0.1152E+03
      2.134  0.9020E+01  0.1162E+03
      2.246  0.7327E+01  0.1172E+03
      2.357  0.6548E+01  0.1179E+03
      2.468  0.5031E+01  0.1186E+03
      2.580  0.4098E+01  0.1191E+03
      2.691  0.3200E+01  0.1195E+03
      2.802  0.3568E+01  0.1199E+03
      2.914  0.4540E+01  0.1203E+03
      3.025  0.6291E+01  0.1209E+03
      3.136  0.8525E+01  0.1218E+03
      3.248  0.7361E+01  0.1227E+03
      3.359  0.6418E+01  0.1234E+03
      3.471  0.6857E+01  0.1241E+03
      3.582  0.5972E+01  0.1249E+03
      3.693  0.4547E+01  0.1254E+03
      3.805  0.3612E+01  0.1259E+03
      3.916  0.3146E+01  0.1263E+03
      4.027  0.2677E+01  0.1266E+03
      4.139  0.2267E+01  0.1269E+03
      4.250  0.1945E+01  0.1271E+03
      4.362  0.1655E+01  0.1273E+03
      4.473  0.1442E+01  0.1275E+03
      4.584  0.1260E+01  0.1276E+03
      4.696  0.1019E+01  0.1277E+03
      4.807  0.7864E+00  0.1278E+03
      4.918  0.5627E+00  0.1279E+03
      5.030  0.3466E+00  0.1280E+03
      5.141  0.1377E+00  0.1280E+03
      5.253  0.8020E-02  0.1280E+03
      5.364  0.1347E+00  0.1280E+03
      5.475  0.2718E+00  0.1280E+03
      5.587  0.4172E+00  0.1281E+03
      5.698  0.5721E+00  0.1281E+03
      5.809  0.7389E+00  0.1282E+03
      5.921  0.9175E+00  0.1283E+03
      6.032  0.1111E+01  0.1284E+03
      6.143  0.1329E+01  0.1285E+03
      6.255  0.1616E+01  0.1287E+03
      6.366  0.2412E+01  0.1289E+03
      6.478  0.2931E+01  0.1292E+03
      6.589  0.3410E+01  0.1296E+03
      6.700  0.4153E+01  0.1300E+03
      6.812  0.8031E+01  0.1306E+03
      6.923  0.1034E+02  0.1320E+03
      7.034  0.1030E+02  0.1332E+03
      7.146  0.7794E+01  0.1342E+03
      7.257  0.6154E+01  0.1349E+03
      7.369  0.5216E+01  0.1356E+03
      7.480  0.4716E+01  0.1361E+03
      7.591  0.4131E+01  0.1366E+03
      7.703  0.3905E+01  0.1371E+03
      7.814  0.3668E+01  0.1375E+03
      7.925  0.3647E+01  0.1379E+03
      8.037  0.3889E+01  0.1383E+03
      8.148  0.4296E+01  0.1388E+03
      8.259  0.4594E+01  0.1393E+03
      8.371  0.4801E+01  0.1398E+03
      8.482  0.4847E+01  0.1403E+03
      8.594  0.4628E+01  0.1408E+03
      8.705  0.4489E+01  0.1414E+03
      8.816  0.4422E+01  0.1418E+03
      8.928  0.4316E+01  0.1423E+03
      9.039  0.4217E+01  0.1428E+03
      9.150  0.4121E+01  0.1433E+03
      9.262  0.3840E+01  0.1437E+03
      9.373  0.3553E+01  0.1441E+03
      9.485  0.3393E+01  0.1445E+03
      9.596  0.3321E+01  0.1449E+03
      9.707  0.3254E+01  0.1453E+03
      9.819  0.3160E+01  0.1456E+03
      9.930  0.3098E+01  0.1460E+03
     10.041  0.3052E+01  0.1463E+03
     10.153  0.2992E+01  0.1466E+03
     10.264  0.3004E+01  0.1470E+03
     10.376  0.3212E+01  0.1473E+03
     10.487  0.3300E+01  0.1477E+03
     10.598  0.3263E+01  0.1481E+03
     10.710  0.3333E+01  0.1484E+03
     10.821  0.4203E+01  0.1489E+03
     10.932  0.4453E+01  0.1493E+03
     11.044  0.4530E+01  0.1498E+03
     11.155  0.4494E+01  0.1503E+03
     11.266  0.4333E+01  0.1508E+03
     11.378  0.4142E+01  0.1513E+03
     11.489  0.4056E+01  0.1518E+03
     11.601  0.5844E+01  0.1523E+03
     11.712  0.6150E+01  0.1530E+03
     11.823  0.2933E+01  0.1534E+03
     11.935  0.2453E+01  0.1537E+03
     12.046  0.2225E+01  0.1540E+03
     12.157  0.2121E+01  0.1542E+03
     12.269  0.2440E+01  0.1545E+03
     12.380  0.3124E+01  0.1548E+03
     12.492  0.5202E+01  0.1553E+03
     12.603  0.5847E+01  0.1559E+03
     12.714  0.8188E+01  0.1567E+03
     12.826  0.9194E+01  0.1576E+03
     12.937  0.1043E+02  0.1587E+03
     13.048  0.1362E+02  0.1600E+03
     13.160  0.1412E+02  0.1616E+03
     13.271  0.1282E+02  0.1632E+03
     13.383  0.1242E+02  0.1646E+03
     13.494  0.1002E+02  0.1658E+03
     13.605  0.1064E+02  0.1670E+03
     13.717  0.1852E+01  0.1677E+03
     13.828  0.6392E+00  0.1679E+03
     13.939  0.3661E+00  0.1679E+03
     14.051  0.2149E+00  0.1679E+03
     14.162  0.1487E+00  0.1680E+03
     14.273  0.1095E+00  0.1680E+03
     14.385  0.7625E-01  0.1680E+03
     14.496  0.4900E-01  0.1680E+03
     14.608  0.2775E-01  0.1680E+03
     14.719  0.1251E-01  0.1680E+03
     14.830  0.3256E-02  0.1680E+03
     14.942  0.5246E-05  0.1680E+03
     15.053  0.0000E+00  0.1680E+03
     15.164  0.0000E+00  0.1680E+03
     15.276  0.0000E+00  0.1680E+03
     15.387  0.0000E+00  0.1680E+03
     15.499  0.0000E+00  0.1680E+03
     15.610  0.0000E+00  0.1680E+03
     15.721  0.0000E+00  0.1680E+03
     15.833  0.0000E+00  0.1680E+03
     15.944  0.0000E+00  0.1680E+03
     16.055  0.0000E+00  0.1680E+03
     16.167  0.0000E+00  0.1680E+03
     16.278  0.0000E+00  0.1680E+03
     16.389  0.0000E+00  0.1680E+03
     16.501  0.0000E+00  0.1680E+03
     16.612  0.0000E+00  0.1680E+03
     16.724  0.0000E+00  0.1680E+03
     16.835  0.0000E+00  0.1680E+03
     16.946  0.0000E+00  0.1680E+03
