   32   32    1    1
  0.8294063E+01  0.4932875E-09  0.4932875E-09  0.1260033E-08  0.5000000E-15
  1.000000000000000E-004
  CAR 
 graphite                                
    128     76     84
 
  0.0000000E+00  0.0000000E+00  0.0000000E+00  0.6944444E-02
    1      -14.464609
    2      -14.236977
    3      -14.236193
    4      -13.984338
    5       -9.097673
    6       -9.090256
    7       -9.086828
    8       -8.993538
    9       -8.993125
   10       -8.985425
   11       -8.981746
   12       -8.981721
   13       -8.979438
   14       -8.917728
   15       -8.905667
   16       -8.903484
   17       -7.987614
   18       -7.984945
   19       -7.983429
   20       -7.948749
   21       -7.944774
   22       -7.942826
   23       -7.942228
   24       -7.942222
   25       -7.938377
   26       -7.854563
   27       -7.849337
   28       -7.846590
   29       -3.548262
   30       -2.359216
   31       -2.356906
   32       -1.167814
   33       -1.165075
   34       -1.145679
   35       -1.120017
   36       -1.115732
   37       -1.115717
   38       -1.114932
   39       -1.097053
   40       -1.094566
   41       -1.067291
   42       -1.064807
   43       -1.045357
   44       -0.875217
   45        2.238317
   46        2.255175
   47        2.262154
   48        2.262867
   49        2.276850
   50        2.278219
   51        2.281219
   52        2.290925
   53        2.292189
   54        2.295792
   55        2.304575
   56        2.888776
   57        2.890527
   58        2.892705
   59        2.896374
   60        2.896399
   61        2.897840
   62        3.214893
   63        3.234221
   64        3.235677
   65        6.820998
   66        6.822713
   67        6.827790
   68        6.884486
   69        6.891282
   70        6.895105
   71        6.896403
   72        6.896971
   73        6.903634
   74        7.625028
   75        7.639204
   76        7.642564
   77       10.166230
   78       12.341064
   79       12.345128
   80       12.378371
   81       12.637081
   82       12.641963
   83       12.644509
   84       12.647692
 
  0.1666667E+00  0.1387779E-16  0.0000000E+00  0.1388889E-01
    1      -14.298173
    2      -14.072550
    3      -14.071774
    4      -13.822376
    5      -10.424553
    6      -10.247533
    7      -10.246859
    8      -10.056543
    9       -9.544812
   10       -9.538000
   11       -9.387505
   12       -9.386771
   13       -9.379866
   14       -9.379301
   15       -9.221930
   16       -9.214087
   17       -7.409181
   18       -7.401321
   19       -7.285299
   20       -7.282440
   21       -7.275727
   22       -7.275330
   23       -7.144071
   24       -7.135672
   25       -6.564051
   26       -6.434039
   27       -6.432387
   28       -6.293465
   29       -3.346213
   30       -2.164066
   31       -2.161764
   32       -1.662373
   33       -1.643202
   34       -1.602626
   35       -1.602133
   36       -1.584288
   37       -1.581854
   38       -1.540687
   39       -1.521474
   40       -1.004104
   41       -0.956407
   42       -0.953334
   43       -0.905075
   44       -0.690071
   45        1.151662
   46        1.593152
   47        1.621902
   48        1.626387
   49        1.655338
   50        1.897400
   51        1.921626
   52        1.927224
   53        1.951186
   54        2.043448
   55        2.044806
   56        2.048700
   57        2.050278
   58        2.781083
   59        2.782465
   60        2.787221
   61        2.788590
   62        3.005420
   63        3.390707
   64        3.405103
   65        6.920212
   66        6.922218
   67        7.166224
   68        7.172568
   69        7.176710
   70        7.179609
   71        7.502606
   72        7.904327
   73        7.914010
   74        7.996947
   75        8.001441
   76        8.832441
   77       10.359191
   78       12.437714
   79       12.726984
   80       12.728874
   81       13.025313
   82       13.077534
   83       13.112859
   84       13.383684
 
  0.3333333E+00  0.2775558E-16  0.0000000E+00  0.1388889E-01
    1      -13.800723
    2      -13.581019
    3      -13.580268
    4      -13.338230
    5      -11.842728
    6      -11.646577
    7      -11.645919
    8      -11.432578
    9       -9.972853
   10       -9.969215
   11       -9.802656
   12       -9.801376
   13       -9.798252
   14       -9.797538
   15       -9.618550
   16       -9.614672
   17       -6.233424
   18       -6.222655
   19       -6.115480
   20       -6.112607
   21       -6.103594
   22       -6.102942
   23       -5.987560
   24       -5.977076
   25       -4.438977
   26       -4.329827
   27       -4.327983
   28       -4.213302
   29       -2.826324
   30       -2.810333
   31       -2.750729
   32       -2.750484
   33       -2.744130
   34       -2.735627
   35       -2.733059
   36       -2.670148
   37       -2.653906
   38       -1.583873
   39       -1.581583
   40       -0.529434
   41       -0.483814
   42       -0.480408
   43       -0.434221
   44       -0.421002
   45       -0.141684
   46       -0.073730
   47       -0.019077
   48       -0.015498
   49        0.039675
   50        0.627702
   51        0.629775
   52        1.094171
   53        1.129023
   54        1.133701
   55        1.168836
   56        1.712638
   57        1.715054
   58        1.887720
   59        2.592094
   60        2.592781
   61        2.595641
   62        2.598139
   63        3.538514
   64        3.545448
   65        7.316836
   66        7.321201
   67        7.744252
   68        7.749580
   69        7.752778
   70        7.754688
   71        8.337559
   72        8.341400
   73        9.597976
   74       10.134692
   75       10.138221
   76       10.852197
   77       10.940487
   78       12.682496
   79       12.969726
   80       12.971842
   81       13.070213
   82       13.449925
   83       13.455292
   84       13.483565
 
  0.5000000E+00  0.5551115E-16  0.0000000E+00  0.6944444E-02
    1      -12.979634
    2      -12.976714
    3      -12.771035
    4      -12.767778
    5      -12.767767
    6      -12.765068
    7      -12.539009
    8      -12.536012
    9      -10.122715
   10      -10.120890
   11       -9.949898
   12       -9.947693
   13       -9.947607
   14       -9.946122
   15       -9.761809
   16       -9.759941
   17       -5.301732
   18       -5.299293
   19       -5.235752
   20       -5.231406
   21       -5.230585
   22       -5.230576
   23       -5.170953
   24       -5.169011
   25       -3.691930
   26       -3.690779
   27       -3.653524
   28       -3.653518
   29       -3.652381
   30       -3.649437
   31       -3.596482
   32       -3.594718
   33       -2.206162
   34       -2.203184
   35       -2.123251
   36       -2.122487
   37       -2.122469
   38       -2.116759
   39       -2.035825
   40       -2.032273
   41       -1.757839
   42       -1.755462
   43       -0.638594
   44       -0.634931
   45       -0.634631
   46       -0.632038
   47        0.204124
   48        0.210408
   49        0.244596
   50        0.253244
   51        0.253265
   52        0.254414
   53        0.293725
   54        0.297949
   55        0.741644
   56        0.744372
   57        1.584638
   58        1.586671
   59        2.507551
   60        2.508963
   61        2.509376
   62        2.513014
   63        3.565617
   64        3.568119
   65        7.614512
   66        7.617459
   67        8.050680
   68        8.056188
   69        8.056276
   70        8.056411
   71        8.492057
   72        8.494727
   73       11.892959
   74       11.894874
   75       12.055092
   76       12.058654
   77       12.409554
   78       12.411966
   79       12.413644
   80       12.420265
   81       12.970322
   82       12.974015
   83       13.124740
   84       13.127854
 
 -0.1355253E-19  0.1666667E+00  0.0000000E+00  0.1388889E-01
    1      -14.298176
    2      -14.072556
    3      -14.071776
    4      -13.822380
    5      -10.424560
    6      -10.247537
    7      -10.246860
    8      -10.056540
    9       -9.544904
   10       -9.538065
   11       -9.387792
   12       -9.386794
   13       -9.379867
   14       -9.379329
   15       -9.221970
   16       -9.214244
   17       -7.409342
   18       -7.400059
   19       -7.285743
   20       -7.282443
   21       -7.275476
   22       -7.272871
   23       -7.144207
   24       -7.134362
   25       -6.564984
   26       -6.434405
   27       -6.433902
   28       -6.294418
   29       -3.346203
   30       -2.164051
   31       -2.161753
   32       -1.663693
   33       -1.643245
   34       -1.605087
   35       -1.602150
   36       -1.584289
   37       -1.582073
   38       -1.541934
   39       -1.521594
   40       -1.002619
   41       -0.953651
   42       -0.953313
   43       -0.903765
   44       -0.690053
   45        1.152309
   46        1.590845
   47        1.620995
   48        1.621905
   49        1.652020
   50        1.901069
   51        1.927043
   52        1.927231
   53        1.953385
   54        2.042442
   55        2.044607
   56        2.049584
   57        2.051055
   58        2.780963
   59        2.782002
   60        2.786237
   61        2.787623
   62        3.006436
   63        3.390695
   64        3.403922
   65        6.921730
   66        6.922649
   67        7.166772
   68        7.172482
   69        7.177556
   70        7.182701
   71        7.500806
   72        7.904478
   73        7.916116
   74        7.995858
   75        7.999305
   76        8.830889
   77       10.359209
   78       12.438272
   79       12.727979
   80       12.728969
   81       13.025818
   82       13.077024
   83       13.112768
   84       13.378734
 
  0.1666667E+00  0.1666667E+00  0.0000000E+00  0.1388889E-01
    1      -13.966012
    2      -13.744327
    3      -13.743568
    4      -13.499096
    5      -11.050375
    6      -11.047287
    7      -10.865720
    8      -10.862269
    9      -10.862243
   10      -10.859442
   11      -10.662337
   12      -10.659181
   13       -8.670015
   14       -8.570350
   15       -8.569051
   16       -8.496796
   17       -7.581726
   18       -7.548372
   19       -7.544697
   20       -7.464512
   21       -5.450479
   22       -5.446955
   23       -5.333191
   24       -5.330061
   25       -5.330041
   26       -5.325950
   27       -5.206181
   28       -5.202457
   29       -2.998918
   30       -2.943829
   31       -2.920105
   32       -2.918136
   33       -2.835159
   34       -1.776025
   35       -1.773735
   36       -1.334415
   37       -1.331226
   38       -1.278774
   39       -1.274305
   40       -1.274291
   41       -1.272718
   42       -1.217067
   43       -1.214163
   44       -0.322867
   45        0.490999
   46        0.492949
   47        0.558465
   48        0.586793
   49        0.591395
   50        0.616826
   51        1.224422
   52        1.242941
   53        1.248118
   54        1.269603
   55        1.474137
   56        1.477450
   57        1.477583
   58        1.479960
   59        2.619402
   60        2.621950
   61        2.890682
   62        3.485012
   63        3.487501
   64        3.789929
   65        6.674654
   66        6.680177
   67        6.792453
   68        7.085842
   69        8.411743
   70        8.414242
   71        8.946789
   72        8.949050
   73        8.949821
   74        8.953912
   75        9.666858
   76        9.669665
   77       10.748628
   78       13.255385
   79       13.259924
   80       13.539979
   81       13.545552
   82       13.545595
   83       13.549142
   84       13.640353
 
  0.3333333E+00  0.1666667E+00  0.0000000E+00  0.1388889E-01
    1      -13.305759
    2      -13.091960
    3      -13.091233
    4      -12.856446
    5      -12.328082
    6      -12.126026
    7      -12.125337
    8      -11.904886
    9      -11.367577
   10      -11.177431
   11      -11.176708
   12      -10.970513
   13       -8.670842
   14       -8.525507
   15       -8.525009
   16       -8.373945
   17       -6.756583
   18       -6.659660
   19       -6.656540
   20       -6.553480
   21       -4.430596
   22       -4.357043
   23       -4.354934
   24       -4.277948
   25       -4.269255
   26       -4.191329
   27       -4.189382
   28       -4.101652
   29       -3.294556
   30       -3.203334
   31       -3.201541
   32       -3.106667
   33       -2.231432
   34       -2.173558
   35       -2.172095
   36       -2.148032
   37       -2.107400
   38       -1.186377
   39       -1.134159
   40       -1.130407
   41       -1.067356
   42       -1.005056
   43       -1.003455
   44       -0.983183
   45       -0.692682
   46       -0.642414
   47       -0.639336
   48       -0.587283
   49        0.100093
   50        0.102162
   51        0.147911
   52        0.209613
   53        0.245879
   54        0.250720
   55        0.289425
   56        0.395966
   57        1.170376
   58        1.172199
   59        1.421333
   60        2.392835
   61        3.156692
   62        3.891949
   63        3.894118
   64        4.516790
   65        6.251372
   66        6.535472
   67        6.539475
   68        7.025964
   69        9.227447
   70        9.661674
   71        9.664224
   72       10.124616
   73       10.712701
   74       11.154504
   75       11.157105
   76       11.527793
   77       11.700674
   78       12.667390
   79       13.010558
   80       13.247993
   81       13.252731
   82       13.629126
   83       13.672253
   84       13.821077
 
  0.5000000E+00  0.1666667E+00  0.0000000E+00  0.1388889E-01
    1      -13.306992
    2      -13.093200
    3      -13.092454
    4      -12.857672
    5      -12.326352
    6      -12.124286
    7      -12.123620
    8      -11.903159
    9      -11.368816
   10      -11.178685
   11      -11.177945
   12      -10.971764
   13       -8.668500
   14       -8.522783
   15       -8.522289
   16       -8.370667
   17       -6.750308
   18       -6.652356
   19       -6.651055
   20       -6.547269
   21       -4.439912
   22       -4.366220
   23       -4.365666
   24       -4.288955
   25       -4.279629
   26       -4.202353
   27       -4.199050
   28       -4.111268
   29       -3.297535
   30       -3.206709
   31       -3.204177
   32       -3.109694
   33       -2.219037
   34       -2.161402
   35       -2.158380
   36       -2.149116
   37       -2.093943
   38       -1.186336
   39       -1.133290
   40       -1.131514
   41       -1.067640
   42       -1.006159
   43       -1.004620
   44       -0.981666
   45       -0.690030
   46       -0.640110
   47       -0.636178
   48       -0.584526
   49        0.101597
   50        0.103729
   51        0.146894
   52        0.210098
   53        0.246921
   54        0.249475
   55        0.288963
   56        0.394864
   57        1.169193
   58        1.171088
   59        1.422713
   60        2.391228
   61        3.155954
   62        3.894737
   63        3.895733
   64        4.527129
   65        6.247885
   66        6.537973
   67        6.540245
   68        7.025863
   69        9.222364
   70        9.657484
   71        9.660760
   72       10.123919
   73       10.714801
   74       11.153981
   75       11.156903
   76       11.526143
   77       11.697987
   78       12.669453
   79       13.005863
   80       13.248473
   81       13.252938
   82       13.624043
   83       13.674581
   84       13.814578
 
 -0.3333333E+00  0.1666667E+00  0.0000000E+00  0.1388889E-01
    1      -13.966750
    2      -13.745067
    3      -13.744297
    4      -13.499829
    5      -11.052549
    6      -11.046577
    7      -10.866556
    8      -10.865835
    9      -10.860517
   10      -10.859884
   11      -10.664632
   12      -10.658597
   13       -8.661714
   14       -8.559773
   15       -8.559324
   16       -8.484426
   17       -7.580028
   18       -7.543646
   19       -7.543273
   20       -7.460303
   21       -5.461131
   22       -5.451510
   23       -5.343380
   24       -5.340914
   25       -5.333602
   26       -5.331780
   27       -5.216557
   28       -5.207303
   29       -3.014509
   30       -2.944560
   31       -2.934972
   32       -2.934570
   33       -2.850862
   34       -1.776729
   35       -1.774451
   36       -1.331315
   37       -1.312876
   38       -1.275179
   39       -1.271924
   40       -1.256379
   41       -1.253832
   42       -1.214202
   43       -1.195804
   44       -0.323562
   45        0.489423
   46        0.493510
   47        0.548239
   48        0.578970
   49        0.579210
   50        0.606836
   51        1.235535
   52        1.255363
   53        1.255595
   54        1.279083
   55        1.473059
   56        1.475032
   57        1.477779
   58        1.479861
   59        2.616057
   60        2.621593
   61        2.888214
   62        3.491486
   63        3.491927
   64        3.809346
   65        6.680396
   66        6.683395
   67        6.785456
   68        7.092439
   69        8.404350
   70        8.414404
   71        8.938547
   72        8.942960
   73        8.947682
   74        8.951440
   75        9.662331
   76        9.666050
   77       10.747587
   78       13.254091
   79       13.289928
   80       13.540566
   81       13.542970
   82       13.577409
   83       13.578982
   84       13.645920
 
 -0.1666667E+00  0.1666667E+00  0.0000000E+00  0.1388889E-01
    1      -14.298422
    2      -14.072803
    3      -14.072019
    4      -13.822624
    5      -10.430805
    6      -10.253886
    7      -10.253239
    8      -10.063035
    9       -9.536927
   10       -9.534758
   11       -9.380126
   12       -9.377412
   13       -9.377353
   14       -9.375718
   15       -9.213193
   16       -9.211020
   17       -7.404385
   18       -7.402522
   19       -7.279425
   20       -7.278318
   21       -7.278271
   22       -7.275533
   23       -7.139076
   24       -7.137112
   25       -6.574013
   26       -6.444271
   27       -6.442026
   28       -6.303309
   29       -3.346447
   30       -2.164291
   31       -2.161996
   32       -1.663493
   33       -1.660940
   34       -1.605412
   35       -1.601319
   36       -1.601302
   37       -1.600545
   38       -1.541657
   39       -1.539328
   40       -0.982897
   41       -0.934955
   42       -0.932554
   43       -0.883998
   44       -0.690290
   45        1.148648
   46        1.574915
   47        1.603818
   48        1.609315
   49        1.637899
   50        1.915886
   51        1.939936
   52        1.944460
   53        1.968972
   54        2.043112
   55        2.044315
   56        2.045725
   57        2.048146
   58        2.784447
   59        2.788493
   60        2.788738
   61        2.789650
   62        2.997411
   63        3.403461
   64        3.405451
   65        6.921437
   66        6.923713
   67        7.174429
   68        7.176697
   69        7.177172
   70        7.183060
   71        7.495877
   72        7.911080
   73        7.914176
   74        7.986510
   75        7.991449
   76        8.823243
   77       10.358843
   78       12.472368
   79       12.761891
   80       12.762981
   81       13.059645
   82       13.074318
   83       13.078231
   84       13.377434
 
 -0.2710505E-19  0.3333333E+00  0.0000000E+00  0.1388889E-01
    1      -13.800737
    2      -13.581040
    3      -13.580275
    4      -13.338244
    5      -11.842783
    6      -11.646659
    7      -11.645950
    8      -11.432635
    9       -9.973158
   10       -9.968910
   11       -9.803455
   12       -9.801393
   13       -9.798183
   14       -9.796735
   15       -9.618807
   16       -9.614365
   17       -6.233445
   18       -6.221411
   19       -6.115656
   20       -6.112608
   21       -6.103009
   22       -6.100668
   23       -5.987486
   24       -5.975685
   25       -4.440012
   26       -4.330212
   27       -4.329732
   28       -4.214406
   29       -2.827731
   30       -2.810628
   31       -2.753287
   32       -2.750627
   33       -2.744087
   34       -2.735628
   35       -2.733648
   36       -2.671467
   37       -2.654201
   38       -1.583807
   39       -1.581534
   40       -0.527786
   41       -0.480796
   42       -0.480393
   43       -0.432810
   44       -0.420722
   45       -0.141611
   46       -0.075523
   47       -0.019440
   48       -0.019059
   49        0.037508
   50        0.628126
   51        0.630021
   52        1.096737
   53        1.133378
   54        1.133711
   55        1.170763
   56        1.711798
   57        1.714935
   58        1.888195
   59        2.590578
   60        2.592654
   61        2.595736
   62        2.597472
   63        3.538123
   64        3.544489
   65        7.317300
   66        7.323124
   67        7.744975
   68        7.749534
   69        7.753709
   70        7.757562
   71        8.337656
   72        8.343391
   73        9.596681
   74       10.133783
   75       10.136974
   76       10.851195
   77       10.940519
   78       12.683205
   79       12.971212
   80       12.971904
   81       13.070795
   82       13.452584
   83       13.456126
   84       13.485268
 
  0.1666667E+00  0.3333333E+00  0.0000000E+00  0.1388889E-01
    1      -13.305767
    2      -13.091971
    3      -13.091237
    4      -12.856451
    5      -12.328146
    6      -12.126119
    7      -12.125369
    8      -11.904949
    9      -11.367517
   10      -11.177338
   11      -11.176679
   12      -10.970451
   13       -8.670891
   14       -8.525546
   15       -8.525088
   16       -8.374015
   17       -6.756161
   18       -6.658787
   19       -6.656537
   20       -6.553015
   21       -4.431027
   22       -4.357049
   23       -4.355787
   24       -4.276525
   25       -4.269606
   26       -4.189409
   27       -4.188274
   28       -4.100132
   29       -3.295938
   30       -3.204432
   31       -3.203300
   32       -3.108147
   33       -2.233211
   34       -2.175663
   35       -2.173546
   36       -2.147997
   37       -2.109175
   38       -1.187384
   39       -1.134194
   40       -1.132468
   41       -1.068531
   42       -1.004974
   43       -1.003439
   44       -0.983111
   45       -0.690739
   46       -0.639352
   47       -0.638695
   48       -0.585511
   49        0.100406
   50        0.102369
   51        0.147596
   52        0.211030
   53        0.248254
   54        0.250720
   55        0.290485
   56        0.396023
   57        1.169971
   58        1.171834
   59        1.421682
   60        2.392314
   61        3.156220
   62        3.891906
   63        3.893168
   64        4.516450
   65        6.251827
   66        6.536876
   67        6.539529
   68        7.026755
   69        9.228900
   70        9.663505
   71        9.664840
   72       10.125615
   73       10.711433
   74       11.153233
   75       11.156304
   76       11.527797
   77       11.699740
   78       12.667535
   79       13.010152
   80       13.247944
   81       13.252523
   82       13.630528
   83       13.672037
   84       13.822707
 
  0.3333333E+00  0.3333333E+00  0.0000000E+00  0.1388889E-01
    1      -12.493407
    2      -12.490630
    3      -12.487983
    4      -12.291207
    5      -12.287128
    6      -12.287087
    7      -12.286112
    8      -12.284210
    9      -12.281994
   10      -12.065824
   11      -12.063054
   12      -12.060344
   13       -7.462392
   14       -7.310511
   15       -7.310091
   16       -7.302395
   17       -7.299585
   18       -7.294067
   19       -7.292728
   20       -7.143986
   21       -5.258848
   22       -5.258547
   23       -5.246618
   24       -5.244728
   25       -2.517960
   26       -2.514185
   27       -2.510566
   28       -2.471031
   29       -2.464925
   30       -2.464729
   31       -2.464697
   32       -2.463932
   33       -2.458684
   34       -2.421435
   35       -2.418972
   36       -2.415486
   37       -1.175721
   38       -1.173227
   39       -1.171039
   40       -1.145764
   41       -1.140833
   42       -1.137565
   43       -1.118079
   44       -1.112250
   45       -1.110844
   46       -1.109844
   47       -1.109825
   48       -1.102996
   49       -1.075830
   50       -1.071360
   51       -1.066289
   52       -0.081902
   53       -0.077967
   54       -0.077671
   55       -0.076415
   56       -0.075162
   57       -0.072141
   58        1.259814
   59        1.262359
   60        1.264580
   61        4.347577
   62        5.190647
   63        5.203416
   64        5.230131
   65        5.230747
   66        5.264846
   67        5.265274
   68        6.274934
   69       11.253896
   70       11.256761
   71       11.265455
   72       11.594828
   73       11.599969
   74       11.600390
   75       11.600741
   76       11.601680
   77       11.604935
   78       11.962647
   79       11.967213
   80       11.970400
   81       12.502316
   82       12.503589
   83       12.507206
   84       14.946346
 
  0.5000000E+00  0.3333333E+00  0.0000000E+00  0.1388889E-01
    1      -13.307737
    2      -13.093955
    3      -13.093186
    4      -12.858414
    5      -12.330083
    6      -12.128062
    7      -12.127302
    8      -11.906887
    9      -11.363609
   10      -11.173412
   11      -11.172778
   12      -10.966536
   13       -8.661333
   14       -8.515809
   15       -8.515144
   16       -8.363825
   17       -6.756607
   18       -6.659154
   19       -6.658496
   20       -6.555131
   21       -4.439782
   22       -4.366501
   23       -4.365264
   24       -4.281709
   25       -4.279365
   26       -4.195307
   27       -4.192588
   28       -4.105405
   29       -3.309836
   30       -3.219060
   31       -3.215830
   32       -3.121380
   33       -2.230955
   34       -2.174234
   35       -2.170317
   36       -2.149864
   37       -2.106826
   38       -1.199771
   39       -1.145894
   40       -1.143306
   41       -1.079605
   42       -1.007448
   43       -1.005829
   44       -0.984762
   45       -0.672980
   46       -0.622700
   47       -0.619504
   48       -0.567431
   49        0.098584
   50        0.100580
   51        0.150870
   52        0.224180
   53        0.261703
   54        0.264006
   55        0.304078
   56        0.394195
   57        1.173073
   58        1.175127
   59        1.419563
   60        2.395247
   61        3.159479
   62        3.897424
   63        3.898929
   64        4.526756
   65        6.257490
   66        6.536962
   67        6.538695
   68        7.015560
   69        9.234161
   70        9.662564
   71        9.664945
   72       10.118682
   73       10.702535
   74       11.146025
   75       11.149930
   76       11.525220
   77       11.697100
   78       12.665734
   79       12.999902
   80       13.245933
   81       13.250491
   82       13.659912
   83       13.673890
   84       13.848351
 
 -0.3333333E+00  0.3333333E+00  0.0000000E+00  0.1388889E-01
    1      -13.801720
    2      -13.582028
    3      -13.581247
    4      -13.339220
    5      -11.846685
    6      -11.650603
    7      -11.649854
    8      -11.436571
    9       -9.965624
   10       -9.963750
   11       -9.795668
   12       -9.793438
   13       -9.793363
   14       -9.791805
   15       -9.611142
   16       -9.609227
   17       -6.229095
   18       -6.227179
   19       -6.110479
   20       -6.109485
   21       -6.109436
   22       -6.106448
   23       -5.983916
   24       -5.981851
   25       -4.452049
   26       -4.343088
   27       -4.340570
   28       -4.226056
   29       -2.826004
   30       -2.823889
   31       -2.752272
   32       -2.748268
   33       -2.748178
   34       -2.748052
   35       -2.744943
   36       -2.669789
   37       -2.667807
   38       -1.584752
   39       -1.582489
   40       -0.508747
   41       -0.462852
   42       -0.460212
   43       -0.424052
   44       -0.413663
   45       -0.142561
   46       -0.091155
   47       -0.036558
   48       -0.032346
   49        0.022731
   50        0.624517
   51        0.626481
   52        1.113224
   53        1.148196
   54        1.152151
   55        1.187642
   56        1.716374
   57        1.718628
   58        1.883993
   59        2.595065
   60        2.599148
   61        2.599475
   62        2.600538
   63        3.545191
   64        3.547589
   65        7.323932
   66        7.326603
   67        7.749730
   68        7.751316
   69        7.751584
   70        7.756671
   71        8.333649
   72        8.336436
   73        9.586719
   74       10.124633
   75       10.128807
   76       10.846299
   77       10.939175
   78       12.711764
   79       13.002391
   80       13.003688
   81       13.089428
   82       13.466485
   83       13.470901
   84       13.506069
 
 -0.1666667E+00  0.3333333E+00  0.0000000E+00  0.1388889E-01
    1      -13.966761
    2      -13.745083
    3      -13.744303
    4      -13.499840
    5      -11.052931
    6      -11.046259
    7      -10.867714
    8      -10.865932
    9      -10.860137
   10      -10.859001
   11      -10.664961
   12      -10.658203
   13       -8.662530
   14       -8.561329
   15       -8.559360
   16       -8.485102
   17       -7.578586
   18       -7.543303
   19       -7.540127
   20       -7.458488
   21       -5.461417
   22       -5.452151
   23       -5.344252
   24       -5.340916
   25       -5.333609
   26       -5.332526
   27       -5.216720
   28       -5.207855
   29       -3.015696
   30       -2.944533
   31       -2.937228
   32       -2.934612
   33       -2.851988
   34       -1.776685
   35       -1.774416
   36       -1.330093
   37       -1.313035
   38       -1.272939
   39       -1.271919
   40       -1.256379
   41       -1.253816
   42       -1.212982
   43       -1.195787
   44       -0.323507
   45        0.488860
   46        0.494230
   47        0.545392
   48        0.574279
   49        0.579208