 running on    6 total cores
 distrk:  each k-point on    6 cores,    1 groups
 distr:  one band on    1 cores,    6 groups
 using from now: INCAR     
 vasp.5.3.5 31Mar14 (build Nov 02 2014 15:17:37) complex                        
  
 POSCAR found :  1 types and      32 ions
 scaLAPACK will be used

 ----------------------------------------------------------------------------- 
|                                                                             |
|           W    W    AA    RRRRR   N    N  II  N    N   GGGG   !!!           |
|           W    W   A  A   R    R  NN   N  II  NN   N  G    G  !!!           |
|           W    W  A    A  R    R  N N  N  II  N N  N  G       !!!           |
|           W WW W  AAAAAA  RRRRR   N  N N  II  N  N N  G  GGG   !            |
|           WW  WW  A    A  R   R   N   NN  II  N   NN  G    G                |
|           W    W  A    A  R    R  N    N  II  N    N   GGGG   !!!           |
|                                                                             |
|      For optimal performance we recommend to set                            |
|        NCORE= 4 - approx SQRT( number of cores)                             |
|      NCORE specifies how many cores store one orbital (NPAR=cpu/NCORE).     |
|      This setting can  greatly improve the performance of VASP for DFT.     |
|      The default, NPAR=number of cores might be grossly inefficient         |
|      on modern multi-core architectures or massively parallel machines.     |
|      Do your own testing !!!!                                               |
|      Unfortunately you need to use the default for GW and RPA calculations. |
|      (for HF NCORE is supported but not extensively tested yet)             |
|                                                                             |
 ----------------------------------------------------------------------------- 


 ----------------------------------------------------------------------------- 
|                                                                             |
|  ADVICE TO THIS USER RUNNING 'VASP/VAMP'   (HEAR YOUR MASTER'S VOICE ...):  |
|                                                                             |
|      You have a (more or less) 'large supercell' and for larger cells       |
|      it might be more efficient to use real space projection operators      |
|      So try LREAL= Auto  in the INCAR   file.                               |
|      Mind: If you want to do a very accurate calculations keep the          |
|      reciprocal projection scheme          (i.e. LREAL=.FALSE.)             |
|                                                                             |
 ----------------------------------------------------------------------------- 

 LDA part: xc-table for Pade appr. of Perdew
 POSCAR, INCAR and KPOINTS ok, starting setup
 FFT: planning ...
 WAVECAR not read
 WARNING: random wavefunctions but no delay for mixing, default for NELMDL
 entering main loop
       N       E                     dE             d eps       ncg     rms          rms(c)
DAV:   1     0.675962972589E+03    0.67596E+03   -0.85082E+04 12768   0.202E+03
DAV:   2    -0.257648488524E+03   -0.93361E+03   -0.89925E+03 15804   0.340E+02
DAV:   3    -0.311711717152E+03   -0.54063E+02   -0.53468E+02 15504   0.800E+01
DAV:   4    -0.312741325063E+03   -0.10296E+01   -0.10274E+01 15744   0.119E+01
DAV:   5    -0.312771214085E+03   -0.29889E-01   -0.29877E-01 16020   0.193E+00    0.221E+01
DAV:   6    -0.298656732068E+03    0.14114E+02   -0.14545E+01 14592   0.107E+01    0.116E+01
DAV:   7    -0.294240233310E+03    0.44165E+01   -0.14980E+01 14568   0.108E+01    0.189E+00
DAV:   8    -0.294288828755E+03   -0.48595E-01   -0.38436E-01 14604   0.185E+00    0.415E-01
DAV:   9    -0.294290875735E+03   -0.20470E-02   -0.31824E-02 15336   0.579E-01    0.170E-01
DAV:  10    -0.294290726011E+03    0.14972E-03   -0.63036E-03 15060   0.238E-01    0.116E-01
DAV:  11    -0.294291372183E+03   -0.64617E-03   -0.74083E-03 15516   0.174E-01    0.107E-01
DAV:  12    -0.294291365945E+03    0.62382E-05   -0.42601E-03 15240   0.151E-01    0.736E-02
DAV:  13    -0.294291648234E+03   -0.28229E-03   -0.61486E-03 16092   0.136E-01    0.810E-02
DAV:  14    -0.294291531273E+03    0.11696E-03   -0.21439E-04 14820   0.488E-02    0.686E-02
DAV:  15    -0.294291410928E+03    0.12035E-03   -0.21207E-04 18468   0.415E-02    0.455E-02
DAV:  16    -0.294291407830E+03    0.30977E-05   -0.25038E-05 14568   0.163E-02    0.428E-02
DAV:  17    -0.294291388753E+03    0.19077E-04   -0.18618E-05 22092   0.976E-03    0.331E-02
DAV:  18    -0.294291381006E+03    0.77466E-05   -0.27202E-05 17820   0.793E-03    0.130E-02
DAV:  19    -0.294291387518E+03   -0.65112E-05   -0.34636E-05 17880   0.584E-03    0.330E-02
DAV:  20    -0.294291401901E+03   -0.14384E-04   -0.22514E-05 19788   0.842E-03    0.405E-02
DAV:  21    -0.294291387334E+03    0.14568E-04   -0.29550E-04 20484   0.217E-02    0.355E-02
DAV:  22    -0.294291382909E+03    0.44243E-05   -0.98526E-06 14808   0.659E-03    0.271E-02
DAV:  23    -0.294291381462E+03    0.14470E-05   -0.65952E-06 15348   0.406E-03    0.178E-02
DAV:  24    -0.294291380107E+03    0.13554E-05   -0.22837E-05 17184   0.419E-03    0.930E-03
DAV:  25    -0.294291380232E+03   -0.12484E-06   -0.11819E-05 15636   0.282E-03    0.116E-02
DAV:  26    -0.294291379901E+03    0.33114E-06   -0.86250E-06 14088   0.204E-03    0.607E-03
DAV:  27    -0.294291380043E+03   -0.14267E-06   -0.45890E-07 15120   0.110E-03    0.907E-03
DAV:  28    -0.294291379857E+03    0.18621E-06   -0.66706E-07  9192   0.638E-04    0.443E-03
DAV:  29    -0.294291379828E+03    0.28657E-07   -0.14886E-06 11976   0.923E-04    0.312E-03
DAV:  30    -0.294291379909E+03   -0.80948E-07   -0.22561E-06 11424   0.106E-03    0.597E-03
DAV:  31    -0.294291379882E+03    0.27345E-07   -0.43370E-08 10752   0.516E-04    0.510E-03
DAV:  32    -0.294291379837E+03    0.44613E-07   -0.20202E-06 11448   0.922E-04    0.342E-03
DAV:  33    -0.294291379824E+03    0.13683E-07   -0.48498E-08  8916   0.374E-04    0.219E-03
DAV:  34    -0.294291379817E+03    0.71450E-08   -0.11504E-07  8916   0.321E-04    0.244E-04
DAV:  35    -0.294291379826E+03   -0.94551E-08   -0.38202E-08  8820   0.218E-04
   1 F= -.29967679E+03 E0= -.29967679E+03  d E =0.000000E+00
