  32  32   0   0
  0.3102054E+01  0.4934311E-09  0.4934311E-09  0.4708020E-09  0.5000000E-15
  1.000000000000000E-004
  CAR 
 graphite                                
     31.92852985    -13.04909735  301     22.37994918      1.00000000
    -13.049  0.0000E+00  0.0000E+00
    -12.899  0.0000E+00  0.0000E+00
    -12.749  0.0000E+00  0.0000E+00
    -12.599  0.0000E+00  0.0000E+00
    -12.449  0.0000E+00  0.0000E+00
    -12.299  0.0000E+00  0.0000E+00
    -12.150  0.0000E+00  0.0000E+00
    -12.000  0.0000E+00  0.0000E+00
    -11.850  0.0000E+00  0.0000E+00
    -11.700  0.0000E+00  0.0000E+00
    -11.550  0.0000E+00  0.0000E+00
    -11.400  0.0000E+00  0.0000E+00
    -11.250  0.0000E+00  0.0000E+00
    -11.100  0.0000E+00  0.0000E+00
    -10.950  0.6039E-01  0.1097E-02
    -10.800  0.3446E+00  0.3206E-01
    -10.650  0.6046E+00  0.1052E+00
    -10.500  0.7007E+00  0.2023E+00
    -10.350  0.7937E+00  0.3142E+00
    -10.201  0.8855E+00  0.4401E+00
    -10.051  0.9873E+00  0.5802E+00
     -9.901  0.1082E+01  0.7355E+00
     -9.751  0.1194E+01  0.9049E+00
     -9.601  0.1293E+01  0.1092E+01
     -9.451  0.1414E+01  0.1297E+01
     -9.301  0.1295E+01  0.1499E+01
     -9.151  0.1267E+01  0.1689E+01
     -9.001  0.1433E+01  0.1891E+01
     -8.851  0.1897E+01  0.2137E+01
     -8.701  0.2162E+01  0.2443E+01
     -8.551  0.2203E+01  0.2774E+01
     -8.401  0.1950E+01  0.3088E+01
     -8.251  0.1431E+01  0.3347E+01
     -8.102  0.1307E+01  0.3545E+01
     -7.952  0.1492E+01  0.3750E+01
     -7.802  0.1956E+01  0.4013E+01
     -7.652  0.1576E+01  0.4294E+01
     -7.502  0.1869E+01  0.4547E+01
     -7.352  0.2432E+01  0.4883E+01
     -7.202  0.2438E+01  0.5251E+01
     -7.052  0.2185E+01  0.5600E+01
     -6.902  0.2119E+01  0.5921E+01
     -6.752  0.1961E+01  0.6227E+01
     -6.602  0.1946E+01  0.6518E+01
     -6.452  0.2137E+01  0.6821E+01
     -6.302  0.2342E+01  0.7157E+01
     -6.153  0.2701E+01  0.7531E+01
     -6.003  0.2900E+01  0.7967E+01
     -5.853  0.3322E+01  0.8416E+01
     -5.703  0.3685E+01  0.8955E+01
     -5.553  0.3832E+01  0.9516E+01
     -5.403  0.3999E+01  0.1010E+02
     -5.253  0.3999E+01  0.1071E+02
     -5.103  0.2521E+01  0.1121E+02
     -4.953  0.1704E+01  0.1152E+02
     -4.803  0.1342E+01  0.1174E+02
     -4.653  0.1192E+01  0.1193E+02
     -4.503  0.2539E+01  0.1221E+02
     -4.353  0.3187E+01  0.1264E+02
     -4.203  0.2947E+01  0.1311E+02
     -4.054  0.2461E+01  0.1353E+02
     -3.904  0.2286E+01  0.1388E+02
     -3.754  0.2348E+01  0.1423E+02
     -3.604  0.2507E+01  0.1459E+02
     -3.454  0.2169E+01  0.1495E+02
     -3.304  0.2224E+01  0.1527E+02
     -3.154  0.2604E+01  0.1565E+02
     -3.004  0.3055E+01  0.1608E+02
     -2.854  0.3227E+01  0.1655E+02
     -2.704  0.3303E+01  0.1704E+02
     -2.554  0.3429E+01  0.1754E+02
     -2.404  0.3452E+01  0.1806E+02
     -2.254  0.3425E+01  0.1858E+02
     -2.105  0.3270E+01  0.1907E+02
     -1.955  0.3295E+01  0.1956E+02
     -1.805  0.3138E+01  0.2005E+02
     -1.655  0.2886E+01  0.2049E+02
     -1.505  0.2930E+01  0.2093E+02
     -1.355  0.3058E+01  0.2138E+02
     -1.205  0.3235E+01  0.2185E+02
     -1.055  0.3617E+01  0.2235E+02
     -0.905  0.4267E+01  0.2297E+02
     -0.755  0.4220E+01  0.2360E+02
     -0.605  0.4687E+01  0.2427E+02
     -0.455  0.4821E+01  0.2499E+02
     -0.305  0.4463E+01  0.2568E+02
     -0.156  0.4385E+01  0.2634E+02
     -0.006  0.3767E+01  0.2698E+02
      0.144  0.3235E+01  0.2749E+02
      0.294  0.3071E+01  0.2796E+02
      0.444  0.3561E+01  0.2845E+02
      0.594  0.3383E+01  0.2896E+02
      0.744  0.2779E+01  0.2945E+02
      0.894  0.2863E+01  0.2986E+02
      1.044  0.4609E+01  0.3045E+02
      1.194  0.5122E+01  0.3121E+02
      1.344  0.2665E+01  0.3171E+02
      1.494  0.3179E+01  0.3214E+02
      1.644  0.4247E+01  0.3270E+02
      1.794  0.4198E+01  0.3333E+02
      1.943  0.4028E+01  0.3395E+02
      2.093  0.4321E+01  0.3457E+02
      2.243  0.5255E+01  0.3528E+02
      2.393  0.5310E+01  0.3607E+02
      2.543  0.5360E+01  0.3688E+02
      2.693  0.4770E+01  0.3763E+02
      2.843  0.4771E+01  0.3834E+02
      2.993  0.5713E+01  0.3910E+02
      3.143  0.6172E+01  0.3998E+02
      3.293  0.5703E+01  0.4088E+02
      3.443  0.5379E+01  0.4170E+02
      3.593  0.5800E+01  0.4255E+02
      3.743  0.6629E+01  0.4348E+02
      3.892  0.6015E+01  0.4444E+02
      4.042  0.5820E+01  0.4532E+02
      4.192  0.5867E+01  0.4620E+02
      4.342  0.5609E+01  0.4705E+02
      4.492  0.6049E+01  0.4791E+02
      4.642  0.6682E+01  0.4888E+02
      4.792  0.5986E+01  0.4985E+02
      4.942  0.5017E+01  0.5067E+02
      5.092  0.5548E+01  0.5146E+02
      5.242  0.5713E+01  0.5230E+02
      5.392  0.4904E+01  0.5307E+02
      5.542  0.5869E+01  0.5387E+02
      5.692  0.5655E+01  0.5474E+02
      5.842  0.5069E+01  0.5556E+02
      5.991  0.4775E+01  0.5630E+02
      6.141  0.4814E+01  0.5702E+02
      6.291  0.3987E+01  0.5767E+02
      6.441  0.4317E+01  0.5829E+02
      6.591  0.3501E+01  0.5887E+02
      6.741  0.3283E+01  0.5938E+02
      6.891  0.3192E+01  0.5986E+02
      7.041  0.3382E+01  0.6036E+02
      7.191  0.4028E+01  0.6088E+02
      7.341  0.3497E+01  0.6147E+02
      7.491  0.3379E+01  0.6199E+02
      7.641  0.3175E+01  0.6249E+02
      7.791  0.2880E+01  0.6293E+02
      7.940  0.3080E+01  0.6338E+02
      8.090  0.3329E+01  0.6386E+02
      8.240  0.3290E+01  0.6436E+02
      8.390  0.3006E+01  0.6484E+02
      8.540  0.2742E+01  0.6526E+02
      8.690  0.2910E+01  0.6569E+02
      8.840  0.3122E+01  0.6614E+02
      8.990  0.3093E+01  0.6661E+02
      9.140  0.2749E+01  0.6706E+02
      9.290  0.2737E+01  0.6746E+02
      9.440  0.2791E+01  0.6788E+02
      9.590  0.2816E+01  0.6830E+02
      9.740  0.2860E+01  0.6872E+02
      9.889  0.3136E+01  0.6917E+02
     10.039  0.3596E+01  0.6967E+02
     10.189  0.3761E+01  0.7023E+02
     10.339  0.3551E+01  0.7078E+02
     10.489  0.3132E+01  0.7128E+02
     10.639  0.3035E+01  0.7174E+02
     10.789  0.2938E+01  0.7219E+02
     10.939  0.2820E+01  0.7262E+02
     11.089  0.2601E+01  0.7303E+02
     11.239  0.2455E+01  0.7341E+02
     11.389  0.2350E+01  0.7376E+02
     11.539  0.2349E+01  0.7412E+02
     11.689  0.2421E+01  0.7447E+02
     11.839  0.2466E+01  0.7484E+02
     11.988  0.2434E+01  0.7521E+02
     12.138  0.1980E+01  0.7554E+02
     12.288  0.1659E+01  0.7581E+02
     12.438  0.1531E+01  0.7605E+02
     12.588  0.1732E+01  0.7629E+02
     12.738  0.2471E+01  0.7661E+02
     12.888  0.2204E+01  0.7696E+02
     13.038  0.2162E+01  0.7729E+02
     13.188  0.2748E+01  0.7764E+02
     13.338  0.3220E+01  0.7809E+02
     13.488  0.3063E+01  0.7857E+02
     13.638  0.2597E+01  0.7898E+02
     13.788  0.2694E+01  0.7938E+02
     13.937  0.2811E+01  0.7979E+02
     14.087  0.2952E+01  0.8022E+02
     14.237  0.3764E+01  0.8073E+02
     14.387  0.4373E+01  0.8134E+02
     14.537  0.4823E+01  0.8205E+02
     14.687  0.4994E+01  0.8280E+02
     14.837  0.4759E+01  0.8353E+02
     14.987  0.4749E+01  0.8423E+02
     15.137  0.5148E+01  0.8499E+02
     15.287  0.5104E+01  0.8577E+02
     15.437  0.4448E+01  0.8649E+02
     15.587  0.3835E+01  0.8711E+02
     15.737  0.3305E+01  0.8764E+02
     15.887  0.3430E+01  0.8815E+02
     16.036  0.3610E+01  0.8869E+02
     16.186  0.3674E+01  0.8923E+02
     16.336  0.4845E+01  0.8988E+02
     16.486  0.5489E+01  0.9065E+02
     16.636  0.5455E+01  0.9149E+02
     16.786  0.6023E+01  0.9234E+02
     16.936  0.6045E+01  0.9325E+02
     17.086  0.6074E+01  0.9416E+02
     17.236  0.6041E+01  0.9507E+02
     17.386  0.6075E+01  0.9598E+02
     17.536  0.6314E+01  0.9691E+02
     17.686  0.6221E+01  0.9785E+02
     17.836  0.6189E+01  0.9878E+02
     17.985  0.6075E+01  0.9970E+02
     18.135  0.6627E+01  0.1006E+03
     18.285  0.6297E+01  0.1016E+03
     18.435  0.5784E+01  0.1025E+03
     18.585  0.5675E+01  0.1034E+03
     18.735  0.5903E+01  0.1042E+03
     18.885  0.5809E+01  0.1051E+03
     19.035  0.5673E+01  0.1060E+03
     19.185  0.5105E+01  0.1068E+03
     19.335  0.5748E+01  0.1076E+03
     19.485  0.6607E+01  0.1085E+03
     19.635  0.6498E+01  0.1095E+03
     19.785  0.6016E+01  0.1104E+03
     19.934  0.5789E+01  0.1113E+03
     20.084  0.8142E+01  0.1123E+03
     20.234  0.7428E+01  0.1134E+03
     20.384  0.8113E+01  0.1146E+03
     20.534  0.9947E+01  0.1159E+03
     20.684  0.1079E+02  0.1175E+03
     20.834  0.1012E+02  0.1191E+03
     20.984  0.1035E+02  0.1207E+03
     21.134  0.7453E+01  0.1220E+03
     21.284  0.6561E+01  0.1230E+03
     21.434  0.4795E+01  0.1238E+03
     21.584  0.4912E+01  0.1246E+03
     21.734  0.4794E+01  0.1253E+03
     21.884  0.4763E+01  0.1260E+03
     22.033  0.3728E+01  0.1266E+03
     22.183  0.3865E+01  0.1272E+03
     22.333  0.4286E+01  0.1278E+03
     22.483  0.5381E+01  0.1285E+03
     22.633  0.6208E+01  0.1295E+03
     22.783  0.6081E+01  0.1303E+03
     22.933  0.6306E+01  0.1313E+03
     23.083  0.5856E+01  0.1322E+03
     23.233  0.5775E+01  0.1330E+03
     23.383  0.6070E+01  0.1339E+03
     23.533  0.4974E+01  0.1348E+03
     23.683  0.3902E+01  0.1354E+03
     23.833  0.4475E+01  0.1360E+03
     23.982  0.5899E+01  0.1369E+03
     24.132  0.4216E+01  0.1376E+03
     24.282  0.4502E+01  0.1382E+03
     24.432  0.4888E+01  0.1390E+03
     24.582  0.5192E+01  0.1397E+03
     24.732  0.5539E+01  0.1405E+03
     24.882  0.5506E+01  0.1414E+03
     25.032  0.5403E+01  0.1422E+03
     25.182  0.6072E+01  0.1430E+03
     25.332  0.4828E+01  0.1439E+03
     25.482  0.4699E+01  0.1446E+03
     25.632  0.4377E+01  0.1452E+03
     25.782  0.5746E+01  0.1459E+03
     25.932  0.6351E+01  0.1469E+03
     26.081  0.5208E+01  0.1478E+03
     26.231  0.6189E+01  0.1486E+03
     26.381  0.7264E+01  0.1496E+03
     26.531  0.7740E+01  0.1507E+03
     26.681  0.8012E+01  0.1519E+03
     26.831  0.7439E+01  0.1531E+03
     26.981  0.8305E+01  0.1542E+03
     27.131  0.8700E+01  0.1555E+03
     27.281  0.9341E+01  0.1569E+03
     27.431  0.9671E+01  0.1583E+03
     27.581  0.9989E+01  0.1598E+03
     27.731  0.1049E+02  0.1613E+03
     27.881  0.8320E+01  0.1628E+03
     28.030  0.6600E+01  0.1639E+03
     28.180  0.5896E+01  0.1648E+03
     28.330  0.4508E+01  0.1656E+03
     28.480  0.3287E+01  0.1662E+03
     28.630  0.2682E+01  0.1666E+03
     28.780  0.2114E+01  0.1670E+03
     28.930  0.1986E+01  0.1673E+03
     29.080  0.1682E+01  0.1676E+03
     29.230  0.1255E+01  0.1678E+03
     29.380  0.4503E+00  0.1679E+03
     29.530  0.2600E+00  0.1680E+03
     29.680  0.1491E+00  0.1680E+03
     29.830  0.1137E-01  0.1680E+03
     29.979  0.0000E+00  0.1680E+03
     30.129  0.0000E+00  0.1680E+03
     30.279  0.0000E+00  0.1680E+03
     30.429  0.0000E+00  0.1680E+03
     30.579  0.0000E+00  0.1680E+03
     30.729  0.0000E+00  0.1680E+03
     30.879  0.0000E+00  0.1680E+03
     31.029  0.0000E+00  0.1680E+03
     31.179  0.0000E+00  0.1680E+03
     31.329  0.0000E+00  0.1680E+03
     31.479  0.0000E+00  0.1680E+03
     31.629  0.0000E+00  0.1680E+03
     31.779  0.0000E+00  0.1680E+03
     31.929  0.0000E+00  0.1680E+03
