   32   32    1    1
  0.3102054E+01  0.4934311E-09  0.4934311E-09  0.4708020E-09  0.5000000E-15
  1.000000000000000E-004
  CAR 
 graphite                                
    128    163     84
 
  0.0000000E+00  0.0000000E+00  0.0000000E+00  0.3086420E-02
    1      -11.004660
    2       -6.123256
    3       -6.117121
    4       -5.676679
    5       -5.669914
    6       -5.663257
    7       -3.951223
    8       -3.944261
    9       -3.937351
   10       -1.384527
   11       -1.377460
   12       -1.376216
   13       -1.371416
   14       -1.369934
   15       -1.363670
   16        1.942465
   17        1.950630
   18        1.952917
   19        1.956141
   20        1.958057
   21        1.966182
   22        3.087599
   23        3.918782
   24        3.922754
   25        3.927746
   26        5.813505
   27        5.818478
   28        5.822897
   29        8.621139
   30        8.640445
   31        9.940267
   32        9.949543
   33        9.953801
   34        9.954445
   35        9.957914
   36        9.967482
   37       13.695146
   38       13.708960
   39       13.713567
   40       13.726273
   41       14.190232
   42       14.191332
   43       14.195853
   44       14.609974
   45       14.619599
   46       16.252165
   47       17.369739
   48       17.381502
   49       17.391600
   50       17.546451
   51       17.551189
   52       17.553506
   53       17.554533
   54       17.560092
   55       17.563424
   56       19.778179
   57       19.784811
   58       19.792525
   59       20.089209
   60       20.095809
   61       20.104812
   62       20.168091
   63       20.170955
   64       21.193660
   65       21.433237
   66       21.441353
   67       21.450433
   68       22.538127
   69       23.897614
   70       23.918063
   71       23.921979
   72       23.941630
   73       24.898245
   74       24.904395
   75       24.916367
   76       26.477612
   77       26.490347
   78       27.547264
   79       29.427676
   80       29.436121
   81       29.437494
   82       29.438038
   83       29.438759
   84       29.446268
 
  0.1111111E+00  0.1387779E-16  0.0000000E+00  0.6172840E-02
    1      -10.928443
    2       -6.336057
    3       -6.047356
    4       -6.041413
    5       -5.836837
    6       -5.828959
    7       -3.649203
    8       -3.641112
    9       -3.141692
   10       -1.795747
   11       -1.789047
   12       -1.451207
   13       -1.441471
   14       -1.439831
   15       -1.436109
   16        2.142845
   17        2.152607
   18        2.155181
   19        2.159318
   20        2.505775
   21        2.512854
   22        3.150261
   23        3.589924
   24        3.596126
   25        4.004800
   26        5.703291
   27        5.809248
   28        5.815331
   29        8.111392
   30        8.319248
   31        9.541817
   32        9.547200
   33        9.550590
   34        9.560911
   35       10.021551
   36       10.033484
   37       13.234278
   38       13.244720
   39       13.512456
   40       13.524451
   41       14.221855
   42       14.593574
   43       14.598659
   44       14.742966
   45       15.039687
   46       16.318673
   47       17.482235
   48       17.496411
   49       17.576342
   50       17.604799
   51       17.606457
   52       18.059832
   53       18.061938
   54       18.068281
   55       18.071576
   56       19.204735
   57       19.566200
   58       19.571337
   59       20.096430
   60       20.099094
   61       20.430893
   62       20.436671
   63       20.757608
   64       21.365875
   65       21.377788
   66       21.388464
   67       21.444628
   68       22.392883
   69       23.967681
   70       23.982831
   71       24.270763
   72       24.292365
   73       24.639579
   74       24.651788
   75       25.023633
   76       27.083428
   77       27.091330
   78       27.546977
   79       29.214189
   80       29.222326
   81       29.224125
   82       29.225242
   83       29.262087
   84       29.269636
 
  0.2222222E+00  0.4163336E-16  0.0000000E+00  0.6172840E-02
    1      -10.700004
    2       -7.351331
    3       -6.131174
    4       -6.124859
    5       -5.821094
    6       -5.814868
    7       -2.945948
    8       -2.938864
    9       -2.626503
   10       -2.619998
   11       -1.724429
   12       -1.604636
   13       -1.595327
   14       -1.594334
   15       -1.590039
   16        2.681413
   17        2.692089
   18        2.693988
   19        2.698388
   20        2.745161
   21        2.751466
   22        3.335080
   23        3.737006
   24        3.744300
   25        4.257256
   26        5.392303
   27        5.790810
   28        5.796887
   29        6.812222
   30        7.603346
   31        8.578118
   32        8.583830
   33        8.586598
   34        8.595622
   35       10.250656
   36       10.262633
   37       12.014980
   38       12.024392
   39       13.027522
   40       13.039429
   41       14.312819
   42       14.912957
   43       15.607854
   44       15.612893
   45       16.089836
   46       16.513505
   47       17.766741
   48       17.769447
   49       17.795921
   50       17.809467
   51       18.095921
   52       18.573183
   53       19.321087
   54       19.323305
   55       19.328530
   56       19.332920
   57       19.362139
   58       19.368023
   59       19.806802
   60       19.811763
   61       20.980441
   62       20.983513
   63       21.198917
   64       21.216866
   65       21.223274
   66       21.614529
   67       21.978803
   68       22.154008
   69       23.969980
   70       23.982121
   71       24.391182
   72       24.397496
   73       25.254559
   74       25.275046
   75       25.399436
   76       27.250064
   77       28.501083
   78       28.509464
   79       28.542297
   80       28.548643
   81       28.551227
   82       28.553057
   83       28.762611
   84       28.769863
 
  0.3333333E+00  0.5551115E-16  0.0000000E+00  0.6172840E-02
    1      -10.320133
    2       -8.296104
    3       -6.371654
    4       -6.365923
    5       -5.446638
    6       -5.440393
    7       -3.489967
    8       -3.483437
    9       -2.052068
   10       -2.045413
   11       -1.753879
   12       -1.744890
   13       -1.744345
   14       -1.739933
   15       -0.119968
   16        1.662171
   17        1.668329
   18        3.431134
   19        3.441487
   20        3.443303
   21        3.447522
   22        3.632609
   23        4.672757
   24        4.958305
   25        5.153954
   26        5.256927
   27        5.264398
   28        5.770111
   29        5.776196
   30        6.761635
   31        7.447539
   32        7.453326
   33        7.455739
   34        7.463694
   35       10.414177
   36       10.422693
   37       10.623861
   38       10.635801
   39       12.391517
   40       12.403289
   41       14.454123
   42       14.921213
   43       16.786812
   44       16.791923
   45       16.798194
   46       17.429426
   47       18.014274
   48       18.036077
   49       18.040400
   50       18.223551
   51       18.237218
   52       18.845302
   53       19.310035
   54       19.314408
   55       19.344559
   56       19.350410
   57       20.760130
   58       20.768464
   59       20.774226
   60       20.899675
   61       20.902792
   62       20.906533
   63       20.912000
   64       21.348455
   65       21.961624
   66       21.970941
   67       22.510650
   68       23.119383
   69       23.178480
   70       23.190812
   71       25.173149
   72       25.177532
   73       26.020867
   74       26.643213
   75       26.709777
   76       26.728953
   77       27.317862
   78       27.333089
   79       27.428824
   80       27.435590
   81       27.438291
   82       27.440817
   83       28.012506
   84       28.018967
 
  0.4444444E+00  0.8326673E-16  0.0000000E+00  0.6172840E-02
    1       -9.790441
    2       -9.113607
    3       -6.499919
    4       -6.494425
    5       -4.926589
    6       -4.920258
    7       -4.268882
    8       -4.262492
    9       -1.840833
   10       -1.831916
   11       -1.831640
   12       -1.827100
   13       -1.150351
   14       -1.143547
   15        0.637159
   16        0.643199
   17        1.596456
   18        3.375354
   19        4.023329
   20        4.155483
   21        4.167120
   22        4.169541
   23        4.172162
   24        4.480921
   25        5.244292
   26        5.756798
   27        5.762903
   28        5.951692
   29        6.509514
   30        6.515974
   31        6.518054
   32        6.524758
   33        6.927424
   34        6.935234
   35        8.673799
   36        8.681843
   37       11.126105
   38       11.138133
   39       11.731246
   40       11.742891
   41       14.627598
   42       14.801134
   43       17.138859
   44       17.541933
   45       17.565106
   46       17.568554
   47       18.400631
   48       18.404408
   49       18.572342
   50       18.586348
   51       18.796360
   52       18.849397
   53       18.853578
   54       19.495679
   55       19.501804
   56       19.704703
   57       19.964314
   58       20.343890
   59       20.357022
   60       20.567161
   61       22.277870
   62       22.280434
   63       22.282892
   64       22.290392
   65       22.611035
   66       22.623041
   67       23.274997
   68       23.286219
   69       23.345246
   70       23.733103
   71       25.116519
   72       25.129463
   73       26.122195
   74       26.127462
   75       26.265041
   76       26.273797
   77       26.275736
   78       26.278447
   79       26.471260
   80       26.865812
   81       27.102042
   82       27.108134
   83       27.432698
   84       27.871222
 
  0.0000000E+00  0.1111111E+00  0.0000000E+00  0.6172840E-02
    1      -10.928443
    2       -6.335380
    3       -6.047579
    4       -6.041423
    5       -5.836217
    6       -5.830559
    7       -3.648418
    8       -3.639083
    9       -3.143918
   10       -1.794866
   11       -1.788191
   12       -1.448552
   13       -1.444005
   14       -1.441595
   15       -1.436882
   16        2.145512
   17        2.152580
   18        2.155838
   19        2.162716
   20        2.502840
   21        2.509915
   22        3.150275
   23        3.588003
   24        3.595901
   25        4.006969
   26        5.704324
   27        5.810443
   28        5.813023
   29        8.105578
   30        8.325131
   31        9.538305
   32        9.548139
   33        9.549853
   34        9.559362
   35       10.024521
   36       10.035349
   37       13.231543
   38       13.236177
   39       13.521927
   40       13.526440
   41       14.222320
   42       14.592569
   43       14.599017
   44       14.745762
   45       15.036921
   46       16.318807
   47       17.484236
   48       17.500740
   49       17.570653
   50       17.606936
   51       17.608782
   52       18.057415
   53       18.060076
   54       18.068355
   55       18.070770
   56       19.203925
   57       19.565930
   58       19.573166
   59       20.097419
   60       20.100017
   61       20.430681
   62       20.436424
   63       20.756718
   64       21.363838
   65       21.375545
   66       21.393131
   67       21.444884
   68       22.392647
   69       23.974745
   70       23.984178
   71       24.266287
   72       24.282861
   73       24.633492
   74       24.651791
   75       25.029660
   76       27.085334
   77       27.092722
   78       27.544420
   79       29.214568
   80       29.222607
   81       29.224659
   82       29.231371
   83       29.261403
   84       29.263315
 
  0.1111111E+00  0.1111111E+00  0.0000000E+00  0.6172840E-02
    1      -10.776096
    2       -6.795509
    3       -6.786092
    4       -5.896453
    5       -5.890374
    6       -5.473829
    7       -3.728028
    8       -2.422435
    9       -2.413288
   10       -2.146119
   11       -2.140664
   12       -2.137483
   13       -2.129014
   14       -1.189469
   15       -1.182391
   16        2.147767
   17        2.154902
   18        2.666450
   19        3.108958
   20        3.114862
   21        3.117672
   22        3.126378
   23        3.274195
   24        3.755505
   25        3.759761
   26        5.590196
   27        5.597413
   28        5.902085
   29        7.277482
   30        7.735565
   31        8.501804
   32        8.511822
   33        9.691216
   34        9.701456
   35        9.706265
   36        9.709203
   37       12.442521
   38       12.452021
   39       13.113926
   40       13.125514
   41       14.653727
   42       14.656170
   43       15.019094
   44       15.585209
   45       15.631597
   46       16.458187
   47       17.637053
   48       17.843789
   49       17.854130
   50       18.159041
   51       18.164238
   52       18.166787
   53       18.169556
   54       18.920825
   55       18.931555
   56       19.285976
   57       19.288868
   58       19.774386
   59       19.966072
   60       19.969379
   61       20.547551
   62       21.177735
   63       21.186588
   64       21.222506
   65       21.300863
   66       21.306971
   67       21.928020
   68       22.114305
   69       23.833757
   70       24.007144
   71       24.011292
   72       24.893757
   73       24.902367
   74       25.142460
   75       25.159451
   76       27.377819
   77       28.059611
   78       28.065418
   79       28.808308
   80       28.816086
   81       28.824174
   82       28.826620
   83       28.829031
   84       28.837542
 
  0.2222222E+00  0.1111111E+00  0.0000000E+00  0.6172840E-02
    1      -10.471933
    2       -7.783055
    3       -7.135060
    4       -5.595940
    5       -5.589893
    6       -5.437960
    7       -3.221191
    8       -3.011791
    9       -3.005357
   10       -2.420735
   11       -2.414053
   12       -1.548196
   13       -1.079690
   14       -1.072758
   15       -0.897411
   16        1.490960
   17        2.535214
   18        2.542496
   19        2.997010
   20        3.515183
   21        3.891367
   22        3.898560
   23        4.090249
   24        4.508610
   25        4.515989
   26        5.215154
   27        5.498837
   28        5.906745
   29        5.965763
   30        6.864139
   31        7.268991
   32        7.278122
   33        8.823380
   34        8.832962
   35       10.002354
   36       10.013725
   37       11.123380
   38       11.132824
   39       12.440168
   40       12.452588
   41       14.770296
   42       15.241802
   43       15.683889
   44       16.583815
   45       16.777308
   46       16.784197
   47       17.996816
   48       18.248928
   49       18.336449
   50       18.366941
   51       18.370587
   52       18.478410
   53       18.787025
   54       19.448003
   55       19.450742
   56       19.673242
   57       19.742381
   58       19.746557
   59       20.867482
   60       20.870621
   61       20.901151
   62       20.936005
   63       20.956784
   64       21.380794
   65       21.598604
   66       21.883515
   67       22.118779
   68       22.779494
   69       22.829319
   70       24.344548
   71       24.347544
   72       24.412426
   73       25.416092
   74       26.573449
   75       26.591101
   76       26.838335
   77       27.824633
   78       27.827264
   79       27.914215
   80       28.041902
   81       28.049025
   82       28.101078
   83       28.107604
   84       28.580244
 
  0.3333333E+00  0.1111111E+00  0.0000000E+00  0.6172840E-02
    1      -10.017097
    2       -8.665897
    3       -7.346750
    4       -5.526802
    5       -5.148602
    6       -5.142272
    7       -3.839134
    8       -3.832670
    9       -2.598624
   10       -2.591832
   11       -2.368973
   12       -1.064853
   13       -1.057893
   14       -0.610376
   15        0.291346
   16        0.757424
   17        2.024582
   18        3.182405
   19        3.189640
   20        3.859922
   21        4.244469
   22        4.582995
   23        4.723768
   24        4.731410
   25        4.755962
   26        5.434079
   27        5.996341
   28        6.004320
   29        6.101088
   30        6.107972
   31        6.114995
   32        6.124105
   33        7.829928
   34        7.839001
   35        9.510325
   36        9.518798
   37       10.453245
   38       10.464608
   39       11.711045
   40       11.722900
   41       14.926061
   42       15.225876
   43       16.785204
   44       17.016990
   45       17.741002
   46       17.826769
   47       17.969705
   48       18.458662
   49       18.641030
   50       18.660378
   51       18.663337
   52       18.908463
   53       19.266066
   54       19.404284
   55       19.408749
   56       19.580127
   57       20.294528
   58       20.339757
   59       20.683114
   60       20.907310
   61       20.936634
   62       20.940427
   63       21.917464
   64       22.473537
   65       22.478650
   66       22.742620
   67       22.752948
   68       23.001144
   69       23.621736
   70       23.880640
   71       25.103172
   72       25.107907
   73       25.772296
   74       26.182648
   75       26.254425
   76       26.487979
   77       26.492654
   78       26.871974
   79       26.978077
   80       26.985514
   81       27.151239
   82       27.157452
   83       27.257795
   84       28.244185
 
  0.4444444E+00  0.1111111E+00  0.0000000E+00  0.6172840E-02
    1       -9.418146
    2       -9.409404
    3       -7.417861
    4       -5.569253
    5       -4.565325
    6       -4.557339
    7       -4.553990
    8       -4.548406
    9       -2.659337
   10       -2.652593
   11       -1.712988
   12       -1.069971
   13       -1.063072
   14       -0.476225
   15        0.004767
   16        1.382917
   17        2.488460
   18        2.494280
   19        3.627771
   20        3.634603
   21        4.281341
   22        4.289265
   23        5.201955
   24        5.209601
   25        5.221136
   26        5.231932
   27        5.411542
   28        5.502770
   29        5.510582
   30        6.013734
   31        7.282726
   32        7.291665
   33        7.794829
   34        7.796133
   35        7.799442
   36        7.809437
   37       11.021527
   38       11.039949
   39       11.042453
   40       11.047189
   41       15.088653
   42       15.098285
   43       17.247073
   44       17.389290
   45       17.392878
   46       18.111126
   47       18.715703
   48       18.812571
   49       19.012581
   50       19.019478
   51       19.027580
   52       19.028372
   53       19.253706
   54       19.266386
   55       19.369764
   56       19.555213
   57       19.716701
   58       20.101927
   59       20.109999
   60       20.541649
   61       21.500454
   62       21.765765
   63       21.771289
   64       23.370011
   65       23.375413
   66       23.647727
   67       23.695462
   68       23.699276
   69       23.859571
   70       24.159976
   71       24.544788
   72       24.733176
   73       25.694235
   74       25.701776
   75       26.098324
   76       26.102671
   77       26.105588
   78       26.114041
   79       26.262146
   80       26.268993
   81       26.361951
   82       26.371525
   83       27.143790
   84       27.157334
 
 -0.4444444E+00  0.1111111E+00  0.0000000E+00  0.6172840E-02
    1      -10.017190
    2       -8.665758
    3       -7.346855
    4       -5.527068
    5       -5.148666
    6       -5.142379
    7       -3.839057
    8       -3.832581
    9       -2.598584
   10       -2.591804
   11       -2.364893
   12       -1.065249
   13       -1.058405
   14       -0.614050
   15        0.287373
   16        0.757721
   17        2.028696
   18        3.186780
   19        3.193952
   20        3.859992
   21        4.242755
   22        4.583078
   23        4.719765
   24        4.727468
   25        4.755958
   26        5.434445
   27        5.997113
   28        6.004382
   29        6.101161
   30        6.106135
   31        6.111659
   32        6.122304
   33        7.833872
   34        7.843254
   35        9.508353
   36        9.516119
   37       10.452992
   38       10.464500
   39       11.713509
   40       11.724024
   41       14.924450
   42       15.228998
   43       16.786702
   44       17.016451
   45       17.740095
   46       17.826990
   47       17.970562
   48       18.465738
   49       18.635858
   50       18.658268
   51       18.661735
   52       18.908313
   53       19.267711
   54       19.408326
   55       19.412299
   56       19.581622
   57       20.293825
   58       20.342953
   59       20.680007
   60       20.905531
   61       20.941408
   62       20.946135
   63       21.910311
   64       22.468043
   65       22.471519
   66       22.739886
   67       22.751009
   68       23.000772
   69       23.623570
   70       23.885877
   71       25.103980
   72       25.108835
   73       25.766016
   74       26.180783
   75       26.246563
   76       26.481670
   77       26.488704
   78       26.880708
   79       26.985363
   80       26.989590
   81       27.149819
   82       27.155964
   83       27.257440
   84       28.243039
 
 -0.3333333E+00  0.1111111E+00  0.0000000E+00  0.6172840E-02
    1      -10.472000
    2       -7.782887
    3       -7.135248
    4       -5.595951
    5       -5.589749
    6       -5.439023
    7       -3.216329
    8       -3.011718
    9       -3.005210
   10       -2.420671
   11       -2.413846
   12       -1.552065
   13       -1.080442
   14       -1.073755
   15       -0.897478
   16        1.486504
   17        2.540706
   18        2.547890
   19        3.001813
   20        3.515220
   21        3.886597
   22        3.893986
   23        4.090273
   24        4.508923
   25        4.516270
   26        5.215069
   27        5.499539
   28        5.902655
   29        5.964893
   30        6.867827
   31        7.264232
   32        7.273135
   33        8.828265
   34        8.838312
   35       10.002387
   36       10.013821
   37       11.119952
   38       11.126983
   39       12.446166
   40       12.455040
   41       14.769205
   42       15.246550
   43       15.687148
   44       16.579954
   45       16.776993
   46       16.783909
   47       18.006556
   48       18.240933
   49       18.336611
   50       18.365619
   51       18.369604
   52       18.479685
   53       18.786431
   54       19.454326
   55       19.457609
   56       19.675600
   57       19.747410
   58       19.750917
   59       20.859923
   60       20.862657
   61       20.906536
   62       20.933980
   63       20.953980
   64       21.376377
   65       21.597101
   66       21.883383
   67       22.119046
   68       22.779925
   69       22.819336
   70       24.344516
   71       24.348016
   72       24.421107
   73       25.414719
   74       26.567651
   75       26.582019
   76       26.829217
   77       27.816349
   78       27.822896
   79       27.906608
   80       28.051024
   81       28.052915
   82       28.100069
   83       28.106579
   84       28.576350
 
 -0.2222222E+00  0.1111111E+00  0.0000000E+00  0.6172840E-02
    1      -10.776136
    2       -6.790904
    3       -6.790707
    4       -5.896463
    5       -5.890308
    6       -5.475215
    7       -3.722720
    8       -2.422962
    9       -2.416925
   10       -2.143637
   11       -2.139338
   12       -2.136942
   13       -2.132410
   14       -1.190416
   15       -1.183763
   16        2.153567
   17        2.160596
   18        2.661772
   19        3.106091
   20        3.113344
   21        3.115822
   22        3.122943
   23        3.274265
   24        3.756590
   25        3.763679
   26        5.593170
   27        5.595346
   28        5.900968
   29        7.268536
   30        7.744314
   31        8.496859
   32        8.506478
   33        9.694293
   34        9.703983
   35        9.705658
   36        9.715048
   37       12.436203
   38       12.441140
   39       13.125549
   40       13.130721
   41       14.654052
   42       14.659526
   43       15.025808
   44       15.581418
   45       15.625995
   46       16.458633
   47       17.647538
   48       17.836292
   49       17.852896
   50       18.161457
   51       18.163994
   52       18.172131
   53       18.174493
   54       18.924741
   55       18.926877
   56       19.278561
   57       19.281226
   58       19.777950
   59       19.970617
   60       19.973669
   61       20.545997
   62       21.173718
   63       21.182409
   64       21.216101
   65       21.309784
   66       21.310570
   67       21.927960
   68       22.113296
   69       23.822674
   70       24.009620
   71       24.011356
   72       24.894268
   73       24.911864
   74       25.134780
   75       25.149449
   76       27.368691
   77       28.064035
   78       28.066871
   79       28.814714
   80       28.818810
   81       28.820768
   82       28.825017
   83       28.827219
   84       28.834641
 
 -0.1111111E+00  0.1111111E+00  0.0000000E+00  0.6172840E-02
    1      -10.928457
    2       -6.335323
    3       -6.047554
    4       -6.041232
    5       -5.837859
    6       -5.829709
    7       -3.644955
    8       -3.637864
    9       -3.148118
   10       -1.794342
   11       -1.787275
   12       -1.449827
   13       -1.445589
   14       -1.443412
   15       -1.434302
   16        2.150806
   17        2.154896
   18        2.156267
   19        2.166108
   20        2.497477
   21        2.504574
   22        3.150291
   23        3.587310
   24        3.591790
   25        4.011943
   26        5.705653
   27        5.807575
   28        5.814481
   29        8.096499
   30        8.334219
   31        9.535875
   32        9.545498
   33        9.550441
   34        9.553321
   35       10.029479
   36       10.041142
   37       13.219374
   38       13.231005
   39       13.527178
   40       13.538511
   41       14.227038
   42       14.592291
   43       14.594416
   44       14.750053
   45       15.033117
   46       16.318871
   47       17.492205
   48       17.503938
   49       17.559932
   50       17.614193
   51       17.616161
   52       18.055295
   53       18.059692
   54       18.062171
   55       18.064031
   56       19.202359
   57       19.568523
   58       19.573571
   59       20.099353
   60       20.101901
   61       20.430315
   62       20.436269
   63       20.754930
   64       21.362230
   65       21.371600
   66       21.399566
   67       21.444706
   68       22.392290
   69       23.978688
   70       23.992840
   71       24.253746
   72       24.275871
   73       24.633123
   74       24.639971
   75       25.041169
   76       27.086870
   77       27.094425
   78       27.540607
   79       29.222720
   80       29.224755
   81       29.224866
   82       29.232187
   83       29.252993
   84       29.260383
 
 -0.3388132E-20  0.2222222E+00  0.0000000E+00  0.6172840E-02
    1      -10.700005
    2       -7.351151
    3       -6.132027
    4       -6.124761
    5       -5.821013
    6       -5.814850
    7       -2.946034
    8       -2.936040
    9       -2.626173
   10       -2.619552
   11       -1.726421
   12       -1.602989
   13       -1.597301
   14       -1.595965
   15       -1.590077
   16        2.684449
   17        2.691800
   18        2.695377
   19        2.702215
   20        2.742222
   21        2.751262
   22        3.335175
   23        3.734375
   24        3.741643
   25        4.259566
   26        5.393191
   27        5.791875
   28        5.794656
   29        6.807810
   30        7.607920
   31        8.574290
   32        8.584240
   33        8.585255
   34        8.594949
   35       10.253827
   36       10.264509
   37       12.012011
   38       12.018102
   39       13.035006
   40       13.041638
   41       14.313299
   42       14.914409
   43       15.606181
   44       15.613898
   45       16.088434
   46       16.513885
   47       17.769766
   48       17.771947
   49       17.798439
   50       17.813664
   51       18.090350
   52       18.572754
   53       19.317016
   54       19.320873
   55       19.328715
   56       19.333437
   57       19.361720
   58       19.369446
   59       19.809187
   60       19.814076
   61       20.976063
   62       20.979523
   63       21.202154
   64       21.215543
   65       21.229587
   66       21.613425
   67       21.977917
   68       22.154365
   69       23.962882
   70       23.982003
   71       24.394189
   72       24.395200
   73       25.250145
   74       25.266488
   75       25.405462
   76       27.243722
   77       28.509190
   78       28.510865
   79       28.542194
   80       28.548971
   81       28.551950
   82       28.558646
   83       28.761059
   84       28.764397
 
  0.1111111E+00  0.2222222E+00  0.0000000E+00  0.6172840E-02
    1      -10.471933
    2       -7.782954
    3       -7.135266
    4       -5.595928
    5       -5.589880
    6       -5.438047
    7       -3.220832
    8       -3.011559
    9       -3.005023
   10       -2.421212
   11       -2.414559
   12       -1.545948
   13       -1.079794
   14       -1.072907
   15       -0.899481
   16        1.490802
   17        2.535616
   18        2.542850
   19        2.994705
   20        3.515229
   21        3.894377
   22        3.901542
   23        4.092588
   24        4.505890
   25        4.513237
   26        5.215964
   27        5.497944
   28        5.904429
   29        5.965646
   30        6.866556
   31        7.268750
   32        7.277901
   33        8.820230
   34        8.830581
   35       10.005694
   36       10.015859
   37       11.122315
   38       11.129442
   39       12.444216
   40       12.453255
   41       14.770985
   42       15.241953
   43       15.683330
   44       16.584782
   45       16.778884
   46       16.781713
   47       17.997750
   48       18.255116
   49       18.336194