<?xml version="1.0" encoding="ISO-8859-1"?>
<modeling>
 <generator>
  <i name="program" type="string">vasp </i>
  <i name="version" type="string">5.3.5  </i>
  <i name="subversion" type="string">31Mar14 (build Nov 02 2014 15:17:37) complex                          parallel </i>
  <i name="platform" type="string">ion-Intel-MKL </i>
  <i name="date" type="string">2016 08 24 </i>
  <i name="time" type="string">08:01:53 </i>
 </generator>
 <incar>
  <i type="string" name="SYSTEM">graphite</i>
  <i type="string" name="PREC">accurate</i>
  <i type="int" name="NELM">   200</i>
  <i type="int" name="IBRION">    -1</i>
  <i name="EDIFF">      0.00000100</i>
  <i name="EDIFFG">      0.00100000</i>
  <i type="int" name="NSW">     0</i>
  <i type="int" name="ISIF">     2</i>
  <i name="ENCUT">    600.00000000</i>
  <i type="int" name="ISMEAR">    -5</i>
  <i type="logical" name="LWAVE"> F  </i>
  <i type="logical" name="LCHARG"> F  </i>
  <i type="int" name="NELM">   200</i>
  <i type="string" name="GGA">PE</i>
 </incar>
 <kpoints>
  <generation param="Gamma">
   <v type="int" name="divisions">       9        9        4 </v>
   <v name="usershift">      0.00000000       0.00000000       0.00000000 </v>
   <v name="genvec1">      0.11111111       0.00000000       0.00000000 </v>
   <v name="genvec2">      0.00000000       0.11111111       0.00000000 </v>
   <v name="genvec3">      0.00000000       0.00000000       0.25000000 </v>
   <v name="shift">      0.00000000       0.00000000       0.00000000 </v>
  </generation>
  <varray name="kpointlist" >
   <v>       0.00000000       0.00000000       0.00000000 </v>
   <v>       0.11111111       0.00000000       0.00000000 </v>
   <v>       0.22222222       0.00000000       0.00000000 </v>
   <v>       0.33333333       0.00000000       0.00000000 </v>
   <v>       0.44444444       0.00000000       0.00000000 </v>
   <v>       0.00000000       0.11111111       0.00000000 </v>
   <v>       0.11111111       0.11111111       0.00000000 </v>
   <v>       0.22222222       0.11111111       0.00000000 </v>
   <v>       0.33333333       0.11111111       0.00000000 </v>
   <v>       0.44444444       0.11111111       0.00000000 </v>
   <v>      -0.44444444       0.11111111       0.00000000 </v>
   <v>      -0.33333333       0.11111111       0.00000000 </v>
   <v>      -0.22222222       0.11111111       0.00000000 </v>
   <v>      -0.11111111       0.11111111       0.00000000 </v>
   <v>      -0.00000000       0.22222222       0.00000000 </v>
   <v>       0.11111111       0.22222222       0.00000000 </v>
   <v>       0.22222222       0.22222222       0.00000000 </v>
   <v>       0.33333333       0.22222222       0.00000000 </v>
   <v>       0.44444444       0.22222222       0.00000000 </v>
   <v>      -0.44444444       0.22222222       0.00000000 </v>
   <v>      -0.33333333       0.22222222       0.00000000 </v>
   <v>      -0.22222222       0.22222222       0.00000000 </v>
   <v>      -0.11111111       0.22222222       0.00000000 </v>
   <v>      -0.00000000       0.33333333       0.00000000 </v>
   <v>       0.11111111       0.33333333       0.00000000 </v>
   <v>       0.22222222       0.33333333       0.00000000 </v>
   <v>       0.33333333       0.33333333       0.00000000 </v>
   <v>       0.44444444       0.33333333       0.00000000 </v>
   <v>      -0.44444444       0.33333333       0.00000000 </v>
   <v>      -0.33333333       0.33333333       0.00000000 </v>
   <v>      -0.22222222       0.33333333       0.00000000 </v>
   <v>      -0.11111111       0.33333333       0.00000000 </v>
   <v>      -0.00000000       0.44444444       0.00000000 </v>
   <v>       0.11111111       0.44444444       0.00000000 </v>
   <v>       0.22222222       0.44444444       0.00000000 </v>
   <v>       0.33333333       0.44444444       0.00000000 </v>
   <v>       0.44444444       0.44444444       0.00000000 </v>
   <v>      -0.44444444       0.44444444       0.00000000 </v>
   <v>      -0.33333333       0.44444444       0.00000000 </v>
   <v>      -0.22222222       0.44444444       0.00000000 </v>
   <v>      -0.11111111       0.44444444       0.00000000 </v>
   <v>       0.00000000       0.00000000       0.25000000 </v>
   <v>       0.11111111       0.00000000       0.25000000 </v>
   <v>       0.22222222       0.00000000       0.25000000 </v>
   <v>       0.33333333       0.00000000       0.25000000 </v>
   <v>       0.44444444       0.00000000       0.25000000 </v>
   <v>      -0.44444444      -0.00000000       0.25000000 </v>
   <v>      -0.33333333      -0.00000000       0.25000000 </v>
   <v>      -0.22222222      -0.00000000       0.25000000 </v>
   <v>      -0.11111111      -0.00000000       0.25000000 </v>
   <v>       0.00000000       0.11111111       0.25000000 </v>
   <v>       0.11111111       0.11111111       0.25000000 </v>
   <v>       0.22222222       0.11111111       0.25000000 </v>
   <v>       0.33333333       0.11111111       0.25000000 </v>
   <v>       0.44444444       0.11111111       0.25000000 </v>
   <v>      -0.44444444       0.11111111       0.25000000 </v>
   <v>      -0.33333333       0.11111111       0.25000000 </v>
   <v>      -0.22222222       0.11111111       0.25000000 </v>
   <v>      -0.11111111       0.11111111       0.25000000 </v>
   <v>      -0.00000000       0.22222222       0.25000000 </v>
   <v>       0.11111111       0.22222222       0.25000000 </v>
   <v>       0.22222222       0.22222222       0.25000000 </v>
   <v>       0.33333333       0.22222222       0.25000000 </v>
   <v>       0.44444444       0.22222222       0.25000000 </v>
   <v>      -0.44444444       0.22222222       0.25000000 </v>
   <v>      -0.33333333       0.22222222       0.25000000 </v>
   <v>      -0.22222222       0.22222222       0.25000000 </v>
   <v>      -0.11111111       0.22222222       0.25000000 </v>
   <v>      -0.00000000       0.33333333       0.25000000 </v>
   <v>       0.11111111       0.33333333       0.25000000 </v>
   <v>       0.22222222       0.33333333       0.25000000 </v>
   <v>       0.33333333       0.33333333       0.25000000 </v>
   <v>       0.44444444       0.33333333       0.25000000 </v>
   <v>      -0.44444444       0.33333333       0.25000000 </v>
   <v>      -0.33333333       0.33333333       0.25000000 </v>
   <v>      -0.22222222       0.33333333       0.25000000 </v>
   <v>      -0.11111111       0.33333333       0.25000000 </v>
   <v>      -0.00000000       0.44444444       0.25000000 </v>
   <v>       0.11111111       0.44444444       0.25000000 </v>
   <v>       0.22222222       0.44444444       0.25000000 </v>
   <v>       0.33333333       0.44444444       0.25000000 </v>
   <v>       0.44444444       0.44444444       0.25000000 </v>
   <v>      -0.44444444       0.44444444       0.25000000 </v>
   <v>      -0.33333333       0.44444444       0.25000000 </v>
   <v>      -0.22222222       0.44444444       0.25000000 </v>
   <v>      -0.11111111       0.44444444       0.25000000 </v>
   <v>       0.00000000      -0.44444444       0.25000000 </v>
   <v>       0.11111111      -0.44444444       0.25000000 </v>
   <v>       0.22222222      -0.44444444       0.25000000 </v>
   <v>       0.33333333      -0.44444444       0.25000000 </v>
   <v>       0.44444444      -0.44444444       0.25000000 </v>
   <v>      -0.44444444      -0.44444444       0.25000000 </v>
   <v>      -0.33333333      -0.44444444       0.25000000 </v>
   <v>      -0.22222222      -0.44444444       0.25000000 </v>
   <v>      -0.11111111      -0.44444444       0.25000000 </v>
   <v>       0.00000000      -0.33333333       0.25000000 </v>
   <v>       0.11111111      -0.33333333       0.25000000 </v>
   <v>       0.22222222      -0.33333333       0.25000000 </v>
   <v>       0.33333333      -0.33333333       0.25000000 </v>
   <v>       0.44444444      -0.33333333       0.25000000 </v>
   <v>      -0.44444444      -0.33333333       0.25000000 </v>
   <v>      -0.33333333      -0.33333333       0.25000000 </v>
   <v>      -0.22222222      -0.33333333       0.25000000 </v>
   <v>      -0.11111111      -0.33333333       0.25000000 </v>
   <v>       0.00000000      -0.22222222       0.25000000 </v>
   <v>       0.11111111      -0.22222222       0.25000000 </v>
   <v>       0.22222222      -0.22222222       0.25000000 </v>
   <v>       0.33333333      -0.22222222       0.25000000 </v>
   <v>       0.44444444      -0.22222222       0.25000000 </v>
   <v>      -0.44444444      -0.22222222       0.25000000 </v>
   <v>      -0.33333333      -0.22222222       0.25000000 </v>
   <v>      -0.22222222      -0.22222222       0.25000000 </v>
   <v>      -0.11111111      -0.22222222       0.25000000 </v>
   <v>       0.00000000      -0.11111111       0.25000000 </v>
   <v>       0.11111111      -0.11111111       0.25000000 </v>
   <v>       0.22222222      -0.11111111       0.25000000 </v>
   <v>       0.33333333      -0.11111111       0.25000000 </v>
   <v>       0.44444444      -0.11111111       0.25000000 </v>
   <v>      -0.44444444      -0.11111111       0.25000000 </v>
   <v>      -0.33333333      -0.11111111       0.25000000 </v>
   <v>      -0.22222222      -0.11111111       0.25000000 </v>
   <v>      -0.11111111      -0.11111111       0.25000000 </v>
   <v>       0.00000000       0.00000000       0.50000000 </v>
   <v>       0.11111111       0.00000000       0.50000000 </v>
   <v>       0.22222222       0.00000000       0.50000000 </v>
   <v>       0.33333333       0.00000000       0.50000000 </v>
   <v>       0.44444444       0.00000000       0.50000000 </v>
   <v>       0.00000000       0.11111111       0.50000000 </v>
   <v>       0.11111111       0.11111111       0.50000000 </v>
   <v>       0.22222222       0.11111111       0.50000000 </v>
   <v>       0.33333333       0.11111111       0.50000000 </v>
   <v>       0.44444444       0.11111111       0.50000000 </v>
   <v>      -0.44444444       0.11111111       0.50000000 </v>
   <v>      -0.33333333       0.11111111       0.50000000 </v>
   <v>      -0.22222222       0.11111111       0.50000000 </v>
   <v>      -0.11111111       0.11111111       0.50000000 </v>
   <v>      -0.00000000       0.22222222       0.50000000 </v>
   <v>       0.11111111       0.22222222       0.50000000 </v>
   <v>       0.22222222       0.22222222       0.50000000 </v>
   <v>       0.33333333       0.22222222       0.50000000 </v>
   <v>       0.44444444       0.22222222       0.50000000 </v>
   <v>      -0.44444444       0.22222222       0.50000000 </v>
   <v>      -0.33333333       0.22222222       0.50000000 </v>
   <v>      -0.22222222       0.22222222       0.50000000 </v>
   <v>      -0.11111111       0.22222222       0.50000000 </v>
   <v>      -0.00000000       0.33333333       0.50000000 </v>
   <v>       0.11111111       0.33333333       0.50000000 </v>
   <v>       0.22222222       0.33333333       0.50000000 </v>
   <v>       0.33333333       0.33333333       0.50000000 </v>
   <v>       0.44444444       0.33333333       0.50000000 </v>
   <v>      -0.44444444       0.33333333       0.50000000 </v>
   <v>      -0.33333333       0.33333333       0.50000000 </v>
   <v>      -0.22222222       0.33333333       0.50000000 </v>
   <v>      -0.11111111       0.33333333       0.50000000 </v>
   <v>      -0.00000000       0.44444444       0.50000000 </v>
   <v>       0.11111111       0.44444444       0.50000000 </v>
   <v>       0.22222222       0.44444444       0.50000000 </v>
   <v>       0.33333333       0.44444444       0.50000000 </v>
   <v>       0.44444444       0.44444444       0.50000000 </v>
   <v>      -0.44444444       0.44444444       0.50000000 </v>
   <v>      -0.33333333       0.44444444       0.50000000 </v>
   <v>      -0.22222222       0.44444444       0.50000000 </v>
   <v>      -0.11111111       0.44444444       0.50000000 </v>
  </varray>
  <varray name="weights" >
   <v>       0.00308642 </v>
   <v>       0.00617284 </v>
   <v>       0.00617284 </v>
   <v>       0.00617284 </v>
   <v>       0.00617284 </v>
   <v>       0.00617284 </v>
   <v>       0.00617284 </v>
   <v>       0.00617284 </v>
   <v>       0.00617284 </v>
   <v>       0.00617284 </v>
   <v>       0.00617284 </v>
   <v>       0.00617284 </v>
   <v>       0.00617284 </v>
   <v>       0.00617284 </v>
   <v>       0.00617284 </v>
   <v>       0.00617284 </v>
   <v>       0.00617284 </v>
   <v>       0.00617284 </v>
   <v>       0.00617284 </v>
   <v>       0.00617284 </v>
   <v>       0.00617284 </v>
   <v>       0.00617284 </v>
   <v>       0.00617284 </v>
   <v>       0.00617284 </v>
   <v>       0.00617284 </v>
   <v>       0.00617284 </v>
   <v>       0.00617284 </v>
   <v>       0.00617284 </v>
   <v>       0.00617284 </v>
   <v>       0.00617284 </v>
   <v>       0.00617284 </v>
   <v>       0.00617284 </v>
   <v>       0.00617284 </v>
   <v>       0.00617284 </v>
   <v>       0.00617284 </v>
   <v>       0.00617284 </v>
   <v>       0.00617284 </v>
   <v>       0.00617284 </v>
   <v>       0.00617284 </v>
   <v>       0.00617284 </v>
   <v>       0.00617284 </v>
   <v>       0.00617284 </v>
   <v>       0.00617284 </v>
   <v>       0.00617284 </v>
   <v>       0.00617284 </v>
   <v>       0.00617284 </v>
   <v>       0.00617284 </v>
   <v>       0.00617284 </v>
   <v>       0.00617284 </v>
   <v>       0.00617284 </v>
   <v>       0.00617284 </v>
   <v>       0.00617284 </v>
   <v>       0.00617284 </v>
   <v>       0.00617284 </v>
   <v>       0.00617284 </v>
   <v>       0.00617284 </v>
   <v>       0.00617284 </v>
   <v>       0.00617284 </v>
   <v>       0.00617284 </v>
   <v>       0.00617284 </v>
   <v>       0.00617284 </v>
   <v>       0.00617284 </v>
   <v>       0.00617284 </v>
   <v>       0.00617284 </v>
   <v>       0.00617284 </v>
   <v>       0.00617284 </v>
   <v>       0.00617284 </v>
   <v>       0.00617284 </v>
   <v>       0.00617284 </v>
   <v>       0.00617284 </v>
   <v>       0.00617284 </v>
   <v>       0.00617284 </v>
   <v>       0.00617284 </v>
   <v>       0.00617284 </v>
   <v>       0.00617284 </v>
   <v>       0.00617284 </v>
   <v>       0.00617284 </v>
   <v>       0.00617284 </v>
   <v>       0.00617284 </v>
   <v>       0.00617284 </v>
   <v>       0.00617284 </v>
   <v>       0.00617284 </v>
   <v>       0.00617284 </v>
   <v>       0.00617284 </v>
   <v>       0.00617284 </v>
   <v>       0.00617284 </v>
   <v>       0.00617284 </v>
   <v>       0.00617284 </v>
   <v>       0.00617284 </v>
   <v>       0.00617284 </v>
   <v>       0.00617284 </v>
   <v>       0.00617284 </v>
   <v>       0.00617284 </v>
   <v>       0.00617284 </v>
   <v>       0.00617284 </v>
   <v>       0.00617284 </v>
   <v>       0.00617284 </v>
   <v>       0.00617284 </v>
   <v>       0.00617284 </v>
   <v>       0.00617284 </v>
   <v>       0.00617284 </v>
   <v>       0.00617284 </v>
   <v>       0.00617284 </v>
   <v>       0.00617284 </v>
   <v>       0.00617284 </v>
   <v>       0.00617284 </v>
   <v>       0.00617284 </v>
   <v>       0.00617284 </v>
   <v>       0.00617284 </v>
   <v>       0.00617284 </v>
   <v>       0.00617284 </v>
   <v>       0.00617284 </v>
   <v>       0.00617284 </v>
   <v>       0.00617284 </v>
   <v>       0.00617284 </v>
   <v>       0.00617284 </v>
   <v>       0.00617284 </v>
   <v>       0.00617284 </v>
   <v>       0.00617284 </v>
   <v>       0.00617284 </v>
   <v>       0.00617284 </v>
   <v>       0.00617284 </v>
   <v>       0.00308642 </v>
   <v>       0.00617284 </v>
   <v>       0.00617284 </v>
   <v>       0.00617284 </v>
   <v>       0.00617284 </v>
   <v>       0.00617284 </v>
   <v>       0.00617284 </v>
   <v>       0.00617284 </v>
   <v>       0.00617284 </v>
   <v>       0.00617284 </v>
   <v>       0.00617284 </v>
   <v>       0.00617284 </v>
   <v>       0.00617284 </v>
   <v>       0.00617284 </v>
   <v>       0.00617284 </v>
   <v>       0.00617284 </v>
   <v>       0.00617284 </v>
   <v>       0.00617284 </v>
   <v>       0.00617284 </v>
   <v>       0.00617284 </v>
   <v>       0.00617284 </v>
   <v>       0.00617284 </v>
   <v>       0.00617284 </v>
   <v>       0.00617284 </v>
   <v>       0.00617284 </v>
   <v>       0.00617284 </v>
   <v>       0.00617284 </v>
   <v>       0.00617284 </v>
   <v>       0.00617284 </v>
   <v>       0.00617284 </v>
   <v>       0.00617284 </v>
   <v>       0.00617284 </v>
   <v>       0.00617284 </v>
   <v>       0.00617284 </v>
   <v>       0.00617284 </v>
   <v>       0.00617284 </v>
   <v>       0.00617284 </v>
   <v>       0.00617284 </v>
   <v>       0.00617284 </v>
   <v>       0.00617284 </v>
   <v>       0.00617284 </v>
  </varray>
  <varray name="tetrahedronlist"  type="int" >
   <v type="int" >        2        2        6        7       51 </v>
   <v type="int" >        2        1        2        6       51 </v>
   <v type="int" >        2        1        2       42       51 </v>
   <v type="int" >        2        2        7       51       52 </v>
   <v type="int" >        2        2       43       51       52 </v>
   <v type="int" >        2        2       42       43       51 </v>
   <v type="int" >        2        3        7        8       52 </v>
   <v type="int" >        2        2        3        7       52 </v>
   <v type="int" >        2        2        3       43       52 </v>
   <v type="int" >        2        3        8       52       53 </v>
   <v type="int" >        2        3       44       52       53 </v>
   <v type="int" >        2        3       43       44       52 </v>
   <v type="int" >        2        4        8        9       53 </v>
   <v type="int" >        2        3        4        8       53 </v>
   <v type="int" >        2        3        4       44       53 </v>
   <v type="int" >        2        4        9       53       54 </v>
   <v type="int" >        2        4       45       53       54 </v>
   <v type="int" >        2        4       44       45       53 </v>
   <v type="int" >        2        5        9       10       54 </v>
   <v type="int" >        2        4        5        9       54 </v>
   <v type="int" >        2        4        5       45       54 </v>
   <v type="int" >        2        5       10       54       55 </v>
   <v type="int" >        2        5       46       54       55 </v>
   <v type="int" >        2        5       45       46       54 </v>
   <v type="int" >        2        5       10       11       55 </v>
   <v type="int" >        2        5        5       10       55 </v>
   <v type="int" >        2        5        5       46       55 </v>
   <v type="int" >        2        5       11       55       56 </v>
   <v type="int" >        2        5       47       55       56 </v>
   <v type="int" >        2        5       46       47       55 </v>
   <v type="int" >        2        4       11       12       56 </v>
   <v type="int" >        2        4        5       11       56 </v>
   <v type="int" >        2        4        5       47       56 </v>
   <v type="int" >        2        4       12       56       57 </v>
   <v type="int" >        2        4       48       56       57 </v>
   <v type="int" >        2        4       47       48       56 </v>
   <v type="int" >        2        3       12       13       57 </v>
   <v type="int" >        2        3        4       12       57 </v>
   <v type="int" >        2        3        4       48       57 </v>
   <v type="int" >        2        3       13       57       58 </v>
   <v type="int" >        2        3       49       57       58 </v>
   <v type="int" >        2        3       48       49       57 </v>
   <v type="int" >        2        2       13       14       58 </v>
   <v type="int" >        2        2        3       13       58 </v>
   <v type="int" >        2        2        3       49       58 </v>
   <v type="int" >        2        2       14       58       59 </v>
   <v type="int" >        2        2       50       58       59 </v>
   <v type="int" >        2        2       49       50       58 </v>
   <v type="int" >        2        1        6       14       59 </v>
   <v type="int" >        2        1        2       14       59 </v>
   <v type="int" >        2        1        2       50       59 </v>
   <v type="int" >        2        1        6       51       59 </v>
   <v type="int" >        2        1       42       51       59 </v>
   <v type="int" >        2        1       42       50       59 </v>
   <v type="int" >        2        7       15       16       60 </v>
   <v type="int" >        2        6        7       15       60 </v>
   <v type="int" >        2        6        7       51       60 </v>
   <v type="int" >        2        7       16       60       61 </v>
   <v type="int" >        2        7       52       60       61 </v>
   <v type="int" >        2        7       51       52       60 </v>
   <v type="int" >        2        8       16       17       61 </v>
   <v type="int" >        2        7        8       16       61 </v>
   <v type="int" >        2        7        8       52       61 </v>
   <v type="int" >        2        8       17       61       62 </v>
   <v type="int" >        2        8       53       61       62 </v>
   <v type="int" >        2        8       52       53       61 </v>
   <v type="int" >        2        9       17       18       62 </v>
   <v type="int" >        2        8        9       17       62 </v>
   <v type="int" >        2        8        9       53       62 </v>
   <v type="int" >        2        9       18       62       63 </v>
   <v type="int" >        2        9       54       62       63 </v>
   <v type="int" >        2        9       53       54       62 </v>
   <v type="int" >        2       10       18       19       63 </v>
   <v type="int" >        2        9       10       18       63 </v>
   <v type="int" >        2        9       10       54       63 </v>
   <v type="int" >        2       10       19       63       64 </v>
   <v type="int" >        2       10       55       63       64 </v>
   <v type="int" >        2       10       54       55       63 </v>
   <v type="int" >        2       11       19       20       64 </v>
   <v type="int" >        2       10       11       19       64 </v>
   <v type="int" >        2       10       11       55       64 </v>
   <v type="int" >        2       11       20       64       65 </v>
   <v type="int" >        2       11       56       64       65 </v>
   <v type="int" >        2       11       55       56       64 </v>
   <v type="int" >        2       12       20       21       65 </v>
   <v type="int" >        2       11       12       20       65 </v>
   <v type="int" >        2       11       12       56       65 </v>
   <v type="int" >        2       12       21       65       66 </v>
   <v type="int" >        2       12       57       65       66 </v>
   <v type="int" >        2       12       56       57       65 </v>
   <v type="int" >        2       13       21       22       66 </v>
   <v type="int" >        2       12       13       21       66 </v>
   <v type="int" >        2       12       13       57       66 </v>
   <v type="int" >        2       13       22       66       67 </v>
   <v type="int" >        2       13       58       66       67 </v>
   <v type="int" >        2       13       57       58       66 </v>
   <v type="int" >        2       14       22       23       67 </v>
   <v type="int" >        2       13       14       22       67 </v>
   <v type="int" >        2       13       14       58       67 </v>
   <v type="int" >        2       14       23       67       68 </v>
   <v type="int" >        2       14       59       67       68 </v>
   <v type="int" >        2       14       58       59       67 </v>
   <v type="int" >        2        6       15       23       68 </v>
   <v type="int" >        2        6       14       23       68 </v>
   <v type="int" >        2        6       14       59       68 </v>
   <v type="int" >        2        6       15       60       68 </v>
   <v type="int" >        2        6       51       60       68 </v>
   <v type="int" >        2        6       51       59       68 </v>
   <v type="int" >        2       16       24       25       69 </v>
   <v type="int" >        2       15       16       24       69 </v>
   <v type="int" >        2       15       16       60       69 </v>
   <v type="int" >        2       16       25       69       70 </v>
   <v type="int" >        2       16       61       69       70 </v>
   <v type="int" >        2       16       60       61       69 </v>
   <v type="int" >        2       17       25       26       70 </v>
   <v type="int" >        2       16       17       25       70 </v>
   <v type="int" >        2       16       17       61       70 </v>
   <v type="int" >        2       17       26       70       71 </v>
   <v type="int" >        2       17       62       70       71 </v>
   <v type="int" >        2       17       61       62       70 </v>
   <v type="int" >        2       18       26       27       71 </v>
   <v type="int" >        2       17       18       26       71 </v>
   <v type="int" >        2       17       18       62       71 </v>
   <v type="int" >        2       18       27       71       72 </v>
   <v type="int" >        2       18       63       71       72 </v>
   <v type="int" >        2       18       62       63       71 </v>
   <v type="int" >        2       19       27       28       72 </v>
   <v type="int" >        2       18       19       27       72 </v>
   <v type="int" >        2       18       19       63       72 </v>
   <v type="int" >        2       19       28       72       73 </v>
   <v type="int" >        2       19       64       72       73 </v>
   <v type="int" >        2       19       63       64       72 </v>
   <v type="int" >        2       20       28       29       73 </v>
   <v type="int" >        2       19       20       28       73 </v>
   <v type="int" >        2       19       20       64       73 </v>
   <v type="int" >        2       20       29       73       74 </v>
   <v type="int" >        2       20       65       73       74 </v>
   <v type="int" >        2       20       64       65       73 </v>
   <v type="int" >        2       21       29       30       74 </v>
   <v type="int" >        2       20       21       29       74 </v>
   <v type="int" >        2       20       21       65       74 </v>
   <v type="int" >        2       21       30       74       75 </v>
   <v type="int" >        2       21       66       74       75 </v>
   <v type="int" >        2       21       65       66       74 </v>
   <v type="int" >        2       22       30       31       75 </v>
   <v type="int" >        2       21       22       30       75 </v>
   <v type="int" >        2       21       22       66       75 </v>
   <v type="int" >        2       22       31       75       76 </v>
   <v type="int" >        2       22       67       75       76 </v>
   <v type="int" >        2       22       66       67       75 </v>
   <v type="int" >        2       23       31       32       76 </v>
   <v type="int" >        2       22       23       31       76 </v>
   <v type="int" >        2       22       23       67       76 </v>
   <v type="int" >        2       23       32       76       77 </v>
   <v type="int" >        2       23       68       76       77 </v>
   <v type="int" >        2       23       67       68       76 </v>
   <v type="int" >        2       15       24       32       77 </v>
   <v type="int" >        2       15       23       32       77 </v>
   <v type="int" >        2       15       23       68       77 </v>
   <v type="int" >        2       15       24       69       77 </v>
   <v type="int" >        2       15       60       69       77 </v>
   <v type="int" >        2       15       60       68       77 </v>
   <v type="int" >        2       25       33       34       78 </v>
   <v type="int" >        2       24       25       33       78 </v>
   <v type="int" >        2       24       25       69       78 </v>
   <v type="int" >        2       25       34       78       79 </v>
   <v type="int" >        2       25       70       78       79 </v>
   <v type="int" >        2       25       69       70       78 </v>
   <v type="int" >        2       26       34       35       79 </v>
   <v type="int" >        2       25       26       34       79 </v>
   <v type="int" >        2       25       26       70       79 </v>
   <v type="int" >        2       26       35       79       80 </v>
   <v type="int" >        2       26       71       79       80 </v>
   <v type="int" >        2       26       70       71       79 </v>
   <v type="int" >        2       27       35       36       80 </v>
   <v type="int" >        2       26       27       35       80 </v>
   <v type="int" >        2       26       27       71       80 </v>
   <v type="int" >        2       27       36       80       81 </v>
   <v type="int" >        2       27       72       80       81 </v>
   <v type="int" >        2       27       71       72       80 </v>
   <v type="int" >        2       28       36       37       81 </v>
   <v type="int" >        2       27       28       36       81 </v>
   <v type="int" >        2       27       28       72       81 </v>
   <v type="int" >        2       28       37       81       82 </v>
   <v type="int" >        2       28       73       81       82 </v>
   <v type="int" >        2       28       72       73       81 </v>
   <v type="int" >        2       29       37       38       82 </v>
   <v type="int" >        2       28       29       37       82 </v>
   <v type="int" >        2       28       29       73       82 </v>
   <v type="int" >        2       29       38       82       83 </v>
   <v type="int" >        2       29       74       82       83 </v>
   <v type="int" >        2       29       73       74       82 </v>
   <v type="int" >        2       30       38       39       83 </v>
   <v type="int" >        2       29       30       38       83 </v>
   <v type="int" >        2       29       30       74       83 </v>
   <v type="int" >        2       30       39       83       84 </v>
   <v type="int" >        2       30       75       83       84 </v>
   <v type="int" >        2       30       74       75       83 </v>
   <v type="int" >        2       31       39       40       84 </v>
   <v type="int" >        2       30       31       39       84 </v>
   <v type="int" >        2       30       31       75       84 </v>
   <v type="int" >        2       31       40       84       85 </v>
   <v type="int" >        2       31       76       84       85 </v>
   <v type="int" >        2       31       75       76       84 </v>
   <v type="int" >        2       32       40       41       85 </v>
   <v type="int" >        2       31       32       40       85 </v>
   <v type="int" >        2       31       32       76       85 </v>
   <v type="int" >        2       32       41       85       86 </v>
   <v type="int" >        2       32       77       85       86 </v>
   <v type="int" >        2       32       76       77       85 </v>
   <v type="int" >        2       24       33       41       86 </v>
   <v type="int" >        2       24       32       41       86 </v>
   <v type="int" >        2       24       32       77       86 </v>
   <v type="int" >        2       24       33       78       86 </v>
   <v type="int" >        2       24       69       78       86 </v>
   <v type="int" >        2       24       69       77       86 </v>
   <v type="int" >        2       33       34       41       87 </v>
   <v type="int" >        2       33       33       34       87 </v>
   <v type="int" >        2       33       34       78       87 </v>
   <v type="int" >        2       34       41       87       88 </v>
   <v type="int" >        2       34       79       87       88 </v>
   <v type="int" >        2       34       78       79       87 </v>
   <v type="int" >        2       35       40       41       88 </v>
   <v type="int" >        2       34       35       41       88 </v>
   <v type="int" >        2       34       35       79       88 </v>
   <v type="int" >        2       35       40       88       89 </v>
   <v type="int" >        2       35       80       88       89 </v>
   <v type="int" >        2       35       79       80       88 </v>
   <v type="int" >        2       36       39       40       89 </v>
   <v type="int" >        2       35       36       40       89 </v>
   <v type="int" >        2       35       36       80       89 </v>
   <v type="int" >        2       36       39       89       90 </v>
   <v type="int" >        2       36       81       89       90 </v>
   <v type="int" >        2       36       80       81       89 </v>
   <v type="int" >        2       37       38       39       90 </v>
   <v type="int" >        2       36       37       39       90 </v>
   <v type="int" >        2       36       37       81       90 </v>
   <v type="int" >        2       37       38       90       91 </v>
   <v type="int" >        2       37       82       90       91 </v>
   <v type="int" >        2       37       81       82       90 </v>
   <v type="int" >        4       37       38       38       91 </v>
   <v type="int" >        2       37       38       82       91 </v>
   <v type="int" >        2       37       38       91       92 </v>
   <v type="int" >        2       38       83       91       92 </v>
   <v type="int" >        2       38       82       83       91 </v>
   <v type="int" >        2       36       37       39       92 </v>
   <v type="int" >        2       37       38       39       92 </v>
   <v type="int" >        2       38       39       83       92 </v>
   <v type="int" >        2       36       39       92       93 </v>
   <v type="int" >        2       39       84       92       93 </v>
   <v type="int" >        2       39       83       84       92 </v>
   <v type="int" >        2       35       36       40       93 </v>
   <v type="int" >        2       36       39       40       93 </v>
   <v type="int" >        2       39       40       84       93 </v>
   <v type="int" >        2       35       40       93       94 </v>
   <v type="int" >        2       40       85       93       94 </v>
   <v type="int" >        2       40       84       85       93 </v>
   <v type="int" >        2       34       35       41       94 </v>
   <v type="int" >        2       35       40       41       94 </v>
   <v type="int" >        2       40       41       85       94 </v>
   <v type="int" >        2       34       41       94       95 </v>
   <v type="int" >        2       41       86       94       95 </v>
   <v type="int" >        2       41       85       86       94 </v>
   <v type="int" >        2       33       33       34       95 </v>
   <v type="int" >        2       33       34       41       95 </v>
   <v type="int" >        2       33       41       86       95 </v>
   <v type="int" >        2       33       33       87       95 </v>
   <v type="int" >        2       33       78       87       95 </v>
   <v type="int" >        2       33       78       86       95 </v>
   <v type="int" >        2       24       32       41       96 </v>
   <v type="int" >        2       24       33       41       96 </v>
   <v type="int" >        2       33       41       87       96 </v>
   <v type="int" >        2       32       41       96       97 </v>
   <v type="int" >        2       41       88       96       97 </v>
   <v type="int" >        2       41       87       88       96 </v>
   <v type="int" >        2       31       32       40       97 </v>
   <v type="int" >        2       32       40       41       97 </v>
   <v type="int" >        2       40       41       88       97 </v>
   <v type="int" >        2       31       40       97       98 </v>
   <v type="int" >        2       40       89       97       98 </v>
   <v type="int" >        2       40       88       89       97 </v>
   <v type="int" >        2       30       31       39       98 </v>
   <v type="int" >        2       31       39       40       98 </v>
   <v type="int" >        2       39       40       89       98 </v>
   <v type="int" >        2       30       39       98       99 </v>
   <v type="int" >        2       39       90       98       99 </v>
   <v type="int" >        2       39       89       90       98 </v>
   <v type="int" >        2       29       30       38       99 </v>
   <v type="int" >        2       30       38       39       99 </v>
   <v type="int" >        2       38       39       90       99 </v>
   <v type="int" >        2       29       38       99      100 </v>
   <v type="int" >        2       38       91       99      100 </v>
   <v type="int" >        2       38       90       91       99 </v>
   <v type="int" >        2       28       29       37      100 </v>
   <v type="int" >        2       29       37       38      100 </v>
   <v type="int" >        2       37       38       91      100 </v>
   <v type="int" >        2       28       37      100      101 </v>
   <v type="int" >        2       37       92      100      101 </v>
   <v type="int" >        2       37       91       92      100 </v>
   <v type="int" >        2       27       28       36      101 </v>
   <v type="int" >        2       28       36       37      101 </v>
   <v type="int" >        2       36       37       92      101 </v>
   <v type="int" >        2       27       36      101      102 </v>
   <v type="int" >        2       36       93      101      102 </v>
   <v type="int" >        2       36       92       93      101 </v>
   <v type="int" >        2       26       27       35      102 </v>
   <v type="int" >        2       27       35       36      102 </v>
   <v type="int" >        2       35       36       93      102 </v>
   <v type="int" >        2       26       35      102      103 </v>
   <v type="int" >        2       35       94      102      103 </v>
   <v type="int" >        2       35       93       94      102 </v>
   <v type="int" >        2       25       26       34      103 </v>
   <v type="int" >        2       26       34       35      103 </v>
   <v type="int" >        2       34       35       94      103 </v>
   <v type="int" >        2       25       34      103      104 </v>
   <v type="int" >        2       34       95      103      104 </v>
   <v type="int" >        2       34       94       95      103 </v>
   <v type="int" >        2       24       25       33      104 </v>
   <v type="int" >        2       25       33       34      104 </v>
   <v type="int" >        2       33       34       95      104 </v>
   <v type="int" >        2       24       33       96      104 </v>
   <v type="int" >        2       33       87       96      104 </v>
   <v type="int" >        2       33       87       95      104 </v>
   <v type="int" >        2       15       23       32      105 </v>
   <v type="int" >        2       15       24       32      105 </v>
   <v type="int" >        2       24       32       96      105 </v>
   <v type="int" >        2       23       32      105      106 </v>
   <v type="int" >        2       32       97      105      106 </v>
   <v type="int" >        2       32       96       97      105 </v>
   <v type="int" >        2       22       23       31      106 </v>
   <v type="int" >        2       23       31       32      106 </v>
   <v type="int" >        2       31       32       97      106 </v>
   <v type="int" >        2       22       31      106      107 </v>
   <v type="int" >        2       31       98      106      107 </v>
   <v type="int" >        2       31       97       98      106 </v>
   <v type="int" >        2       21       22       30      107 </v>
   <v type="int" >        2       22       30       31      107 </v>
   <v type="int" >        2       30       31       98      107 </v>
   <v type="int" >        2       21       30      107      108 </v>
   <v type="int" >        2       30       99      107      108 </v>
   <v type="int" >        2       30       98       99      107 </v>
   <v type="int" >        2       20       21       29      108 </v>
   <v type="int" >        2       21       29       30      108 </v>
   <v type="int" >        2       29       30       99      108 </v>
   <v type="int" >        2       20       29      108      109 </v>
   <v type="int" >        2       29      100      108      109 </v>
   <v type="int" >        2       29       99      100      108 </v>
   <v type="int" >        2       19       20       28      109 </v>
   <v type="int" >        2       20       28       29      109 </v>
   <v type="int" >        2       28       29      100      109 </v>
   <v type="int" >        2       19       28      109      110 </v>
   <v type="int" >        2       28      101      109      110 </v>
   <v type="int" >        2       28      100      101      109 </v>
   <v type="int" >        2       18       19       27      110 </v>
   <v type="int" >        2       19       27       28      110 </v>
   <v type="int" >        2       27       28      101      110 </v>
   <v type="int" >        2       18       27      110      111 </v>
   <v type="int" >        2       27      102      110      111 </v>
   <v type="int" >        2       27      101      102      110 </v>
   <v type="int" >        2       17       18       26      111 </v>
   <v type="int" >        2       18       26       27      111 </v>
   <v type="int" >        2       26       27      102      111 </v>
   <v type="int" >        2       17       26      111      112 </v>
   <v type="int" >        2       26      103      111      112 </v>
   <v type="int" >        2       26      102      103      111 </v>
   <v type="int" >        2       16       17       25      112 </v>
   <v type="int" >        2       17       25       26      112 </v>
   <v type="int" >        2       25       26      103      112 </v>
   <v type="int" >        2       16       25      112      113 </v>
   <v type="int" >        2       25      104      112      113 </v>
   <v type="int" >        2       25      103      104      112 </v>
   <v type="int" >        2       15       16       24      113 </v>
   <v type="int" >        2       16       24       25      113 </v>
   <v type="int" >        2       24       25      104      113 </v>
   <v type="int" >        2       15       24      105      113 </v>
   <v type="int" >        2       24       96      105      113 </v>
   <v type="int" >        2       24       96      104      113 </v>
   <v type="int" >        2        6       14       23      114 </v>
   <v type="int" >        2        6       15       23      114 </v>
   <v type="int" >        2       15       23      105      114 </v>
   <v type="int" >        2       14       23      114      115 </v>
   <v type="int" >        2       23      106      114      115 </v>
   <v type="int" >        2       23      105      106      114 </v>
   <v type="int" >        2       13       14       22      115 </v>
   <v type="int" >        2       14       22       23      115 </v>
   <v type="int" >        2       22       23      106      115 </v>
   <v type="int" >        2       13       22      115      116 </v>
   <v type="int" >        2       22      107      115      116 </v>
   <v type="int" >        2       22      106      107      115 </v>
   <v type="int" >        2       12       13       21      116 </v>
   <v type="int" >        2       13       21       22      116 </v>
   <v type="int" >        2       21       22      107      116 </v>
   <v type="int" >        2       12       21      116      117 </v>
   <v type="int" >        2       21      108      116      117 </v>
   <v type="int" >        2       21      107      108      116 </v>
   <v type="int" >        2       11       12       20      117 </v>
   <v type="int" >        2       12       20       21      117 </v>
   <v type="int" >        2       20       21      108      117 </v>
   <v type="int" >        2       11       20      117      118 </v>
   <v type="int" >        2       20      109      117      118 </v>
   <v type="int" >        2       20      108      109      117 </v>
   <v type="int" >        2       10       11       19      118 </v>
   <v type="int" >        2       11       19       20      118 </v>
   <v type="int" >        2       19       20      109      118 </v>
   <v type="int" >        2       10       19      118      119 </v>
   <v type="int" >        2       19      110      118      119 </v>
   <v type="int" >        2       19      109      110      118 </v>
   <v type="int" >        2        9       10       18      119 </v>
   <v type="int" >        2       10       18       19      119 </v>
   <v type="int" >        2       18       19      110      119 </v>
   <v type="int" >        2        9       18      119      120 </v>
   <v type="int" >        2       18      111      119      120 </v>
   <v type="int" >        2       18      110      111      119 </v>
   <v type="int" >        2        8        9       17      120 </v>
   <v type="int" >        2        9       17       18      120 </v>
   <v type="int" >        2       17       18      111      120 </v>
   <v type="int" >        2        8       17      120      121 </v>
   <v type="int" >        2       17      112      120      121 </v>
   <v type="int" >        2       17      111      112      120 </v>
   <v type="int" >        2        7        8       16      121 </v>
   <v type="int" >        2        8       16       17      121 </v>
   <v type="int" >        2       16       17      112      121 </v>
   <v type="int" >        2        7       16      121      122 </v>
   <v type="int" >        2       16      113      121      122 </v>
   <v type="int" >        2       16      112      113      121 </v>
   <v type="int" >        2        6        7       15      122 </v>
   <v type="int" >        2        7       15       16      122 </v>
   <v type="int" >        2       15       16      113      122 </v>
   <v type="int" >        2        6       15      114      122 </v>
   <v type="int" >        2       15      105      114      122 </v>
   <v type="int" >        2       15      105      113      122 </v>
   <v type="int" >        2        1        2       14       42 </v>
   <v type="int" >        2        1        6       14       42 </v>
   <v type="int" >        2        6       14       42      114 </v>
   <v type="int" >        2        2       14       42       43 </v>
   <v type="int" >        2       14       42       43      115 </v>
   <v type="int" >        2       14       42      114      115 </v>
   <v type="int" >        2        2        3       13       43 </v>
   <v type="int" >        2        2       13       14       43 </v>
   <v type="int" >        2       13       14       43      115 </v>
   <v type="int" >        2        3       13       43       44 </v>
   <v type="int" >        2       13       43       44      116 </v>
   <v type="int" >        2       13       43      115      116 </v>
   <v type="int" >        2        3        4       12       44 </v>
   <v type="int" >        2        3       12       13       44 </v>
   <v type="int" >        2       12       13       44      116 </v>
   <v type="int" >        2        4       12       44       45 </v>
   <v type="int" >        2       12       44       45      117 </v>
   <v type="int" >        2       12       44      116      117 </v>
   <v type="int" >        2        4        5       11       45 </v>
   <v type="int" >        2        4       11       12       45 </v>
   <v type="int" >        2       11       12       45      117 </v>
   <v type="int" >        2        5       11       45       46 </v>
   <v type="int" >        2       11       45       46      118 </v>
   <v type="int" >        2       11       45      117      118 </v>
   <v type="int" >        2        5        5       10       46 </v>
   <v type="int" >        2        5       10       11       46 </v>
   <v type="int" >        2       10       11       46      118 </v>
   <v type="int" >        2        5       10       46       47 </v>
   <v type="int" >        2       10       46       47      119 </v>
   <v type="int" >        2       10       46      118      119 </v>
   <v type="int" >        2        4        5        9       47 </v>
   <v type="int" >        2        5        9       10       47 </v>
   <v type="int" >        2        9       10       47      119 </v>
   <v type="int" >        2        4        9       47       48 </v>
   <v type="int" >        2        9       47       48      120 </v>
   <v type="int" >        2        9       47      119      120 </v>
   <v type="int" >        2        3        4        8       48 </v>
   <v type="int" >        2        4        8        9       48 </v>
   <v type="int" >        2        8        9       48      120 </v>
   <v type="int" >        2        3        8       48       49 </v>
   <v type="int" >        2        8       48       49      121 </v>
   <v type="int" >        2        8       48      120      121 </v>
   <v type="int" >        2        2        3        7       49 </v>
   <v type="int" >        2        3        7        8       49 </v>
   <v type="int" >        2        7        8       49      121 </v>
   <v type="int" >        2        2        7       49       50 </v>
   <v type="int" >        2        7       49       50      122 </v>
   <v type="int" >        2        7       49      121      122 </v>
   <v type="int" >        2        1        2        6       50 </v>
   <v type="int" >        2        2        6        7       50 </v>
   <v type="int" >        2        6        7       50      122 </v>
   <v type="int" >        2        1        6       42       50 </v>
   <v type="int" >        2        6       42       50      114 </v>
   <v type="int" >        2        6       50      114      122 </v>
   <v type="int" >        2       43       51       52      128 </v>
   <v type="int" >        2       42       43       51      128 </v>
   <v type="int" >        2       42       43      123      128 </v>
   <v type="int" >        2       43       52      128      129 </v>
   <v type="int" >        2       43      124      128      129 </v>
   <v type="int" >        2       43      123      124      128 </v>
   <v type="int" >        2       44       52       53      129 </v>
   <v type="int" >        2       43       44       52      129 </v>
   <v type="int" >        2       43       44      124      129 </v>
   <v type="int" >        2       44       53      129      130 </v>
   <v type="int" >        2       44      125      129      130 </v>
   <v type="int" >        2       44      124      125      129 </v>
   <v type="int" >        2       45       53       54      130 </v>
   <v type="int" >        2       44       45       53      130 </v>
   <v type="int" >        2       44       45      125      130 </v>
   <v type="int" >        2       45       54      130      131 </v>
   <v type="int" >        2       45      126      130      131 </v>
   <v type="int" >        2       45      125      126      130 </v>
   <v type="int" >        2       46       54       55      131 </v>
   <v type="int" >        2       45       46       54      131 </v>
   <v type="int" >        2       45       46      126      131 </v>
   <v type="int" >        2       46       55      131      132 </v>
   <v type="int" >        2       46      127      131      132 </v>
   <v type="int" >        2       46      126      127      131 </v>
   <v type="int" >        2       47       55       56      132 </v>
   <v type="int" >        2       46       47       55      132 </v>
   <v type="int" >        2       46       47      127      132 </v>
   <v type="int" >        2       47       56      132      133 </v>
   <v type="int" >        2       47      127      132      133 </v>
   <v type="int" >        2       47      127      127      132 </v>
   <v type="int" >        2       48       56       57      133 </v>
   <v type="int" >        2       47       48       56      133 </v>
   <v type="int" >        2       47       48      127      133 </v>
   <v type="int" >        2       48       57      133      134 </v>
   <v type="int" >        2       48      126      133      134 </v>
   <v type="int" >        2       48      126      127      133 </v>
   <v type="int" >        2       49       57       58      134 </v>
   <v type="int" >        2       48       49       57      134 </v>
   <v type="int" >        2       48       49      126      134 </v>
   <v type="int" >        2       49       58      134      135 </v>
   <v type="int" >        2       49      125      134      135 </v>
   <v type="int" >        2       49      125      126      134 </v>
   <v type="int" >        2       50       58       59      135 </v>
   <v type="int" >        2       49       50       58      135 </v>
   <v type="int" >        2       49       50      125      135 </v>
   <v type="int" >        2       50       59      135      136 </v>
   <v type="int" >        2       50      124      135      136 </v>
   <v type="int" >        2       50      124      125      135 </v>
   <v type="int" >        2       42       51       59      136 </v>
   <v type="int" >        2       42       50       59      136 </v>
   <v type="int" >        2       42       50      124      136 </v>
   <v type="int" >        2       42       51      128      136 </v>
   <v type="int" >        2       42      123      128      136 </v>
   <v type="int" >        2       42      123      124      136 </v>
   <v type="int" >        2       52       60       61      137 </v>
   <v type="int" >        2       51       52       60      137 </v>
   <v type="int" >        2       51       52      128      137 </v>
   <v type="int" >        2       52       61      137      138 </v>
   <v type="int" >        2       52      129      137      138 </v>
   <v type="int" >        2       52      128      129      137 </v>
   <v type="int" >        2       53       61       62      138 </v>
   <v type="int" >        2       52       53       61      138 </v>
   <v type="int" >        2       52       53      129      138 </v>
   <v type="int" >        2       53       62      138      139 </v>
   <v type="int" >        2       53      130      138      139 </v>
   <v type="int" >        2       53      129      130      138 </v>
   <v type="int" >        2       54       62       63      139 </v>
   <v type="int" >        2       53       54       62      139 </v>
   <v type="int" >        2       53       54      130      139 </v>
   <v type="int" >        2       54       63      139      140 </v>
   <v type="int" >        2       54      131      139      140 </v>
   <v type="int" >        2       54      130      131      139 </v>
   <v type="int" >        2       55       63       64      140 </v>
   <v type="int" >        2       54       55       63      140 </v>
   <v type="int" >        2       54       55      131      140 </v>
   <v type="int" >        2       55       64      140      141 </v>
   <v type="int" >        2       55      132      140      141 </v>
   <v type="int" >        2       55      131      132      140 </v>
   <v type="int" >        2       56       64       65      141 </v>
   <v type="int" >        2       55       56       64      141 </v>
   <v type="int" >        2       55       56      132      141 </v>
   <v type="int" >        2       56       65      141      142 </v>
   <v type="int" >        2       56      133      141      142 </v>
   <v type="int" >        2       56      132      133      141 </v>
   <v type="int" >        2       57       65       66      142 </v>
   <v type="int" >        2       56       57       65      142 </v>
   <v type="int" >        2       56       57      133      142 </v>
   <v type="int" >        2       57       66      142      143 </v>
   <v type="int" >        2       57      134      142      143 </v>
   <v type="int" >        2       57      133      134      142 </v>
   <v type="int" >        2       58       66       67      143 </v>
   <v type="int" >        2       57       58       66      143 </v>
   <v type="int" >        2       57       58      134      143 </v>
   <v type="int" >        2       58       67      143      144 </v>
   <v type="int" >        2       58      135      143      144 </v>
   <v type="int" >        2       58      134      135      143 </v>
   <v type="int" >        2       59       67       68      144 </v>
   <v type="int" >        2       58       59       67      144 </v>
   <v type="int" >        2       58       59      135      144 </v>
   <v type="int" >        2       59       68      144      145 </v>
   <v type="int" >        2       59      136      144      145 </v>
   <v type="int" >        2       59      135      136      144 </v>
   <v type="int" >        2       51       60       68      145 </v>
   <v type="int" >        2       51       59       68      145 </v>
   <v type="int" >        2       51       59      136      145 </v>
   <v type="int" >        2       51       60      137      145 </v>
   <v type="int" >        2       51      128      137      145 </v>
   <v type="int" >        2       51      128      136      145 </v>
   <v type="int" >        2       61       69       70      146 </v>
   <v type="int" >        2       60       61       69      146 </v>
   <v type="int" >        2       60       61      137      146 </v>
   <v type="int" >        2       61       70      146      147 </v>
   <v type="int" >        2       61      138      146      147 </v>
   <v type="int" >        2       61      137      138      146 </v>
   <v type="int" >        2       62       70       71      147 </v>
   <v type="int" >        2       61       62       70      147 </v>
   <v type="int" >        2       61       62      138      147 </v>
   <v type="int" >        2       62       71      147      148 </v>
   <v type="int" >        2       62      139      147      148 </v>
   <v type="int" >        2       62      138      139      147 </v>
   <v type="int" >        2       63       71       72      148 </v>
   <v type="int" >        2       62       63       71      148 </v>
   <v type="int" >        2       62       63      139      148 </v>
   <v type="int" >        2       63       72      148      149 </v>
   <v type="int" >        2       63      140      148      149 </v>
   <v type="int" >        2       63      139      140      148 </v>
   <v type="int" >        2       64       72       73      149 </v>
   <v type="int" >        2       63       64       72      149 </v>
   <v type="int" >        2       63       64      140      149 </v>
   <v type="int" >        2       64       73      149      150 </v>
   <v type="int" >        2       64      141      149      150 </v>
   <v type="int" >        2       64      140      141      149 </v>
   <v type="int" >        2       65       73       74      150 </v>
   <v type="int" >        2       64       65       73      150 </v>
   <v type="int" >        2       64       65      141      150 </v>
   <v type="int" >        2       65       74      150      151 </v>
   <v type="int" >        2       65      142      150      151 </v>
   <v type="int" >        2       65      141      142      150 </v>
   <v type="int" >        2       66       74       75      151 </v>
   <v type="int" >        2       65       66       74      151 </v>
   <v type="int" >        2       65       66      142      151 </v>
   <v type="int" >        2       66       75      151      152 </v>
   <v type="int" >        2       66      143      151      152 </v>
   <v type="int" >        2       66      142      143      151 </v>
   <v type="int" >        2       67       75       76      152 </v>
   <v type="int" >        2       66       67       75      152 </v>
   <v type="int" >        2       66       67      143      152 </v>
   <v type="int" >        2       67       76      152      153 </v>
   <v type="int" >        2       67      144      152      153 </v>
   <v type="int" >        2       67      143      144      152 </v>
   <v type="int" >        2       68       76       77      153 </v>
   <v type="int" >        2       67       68       76      153 </v>
   <v type="int" >        2       67       68      144      153 </v>
   <v type="int" >        2       68       77      153      154 </v>
   <v type="int" >        2       68      145      153      154 </v>
   <v type="int" >        2       68      144      145      153 </v>
   <v type="int" >        2       60       69       77      154 </v>
   <v type="int" >        2       60       68       77      154 </v>
   <v type="int" >        2       60       68      145      154 </v>
   <v type="int" >        2       60       69      146      154 </v>
   <v type="int" >        2       60      137      146      154 </v>
   <v type="int" >        2       60      137      145      154 </v>
   <v type="int" >        2       70       78       79      155 </v>
   <v type="int" >        2       69       70       78      155 </v>
   <v type="int" >        2       69       70      146      155 </v>
   <v type="int" >        2       70       79      155      156 </v>
   <v type="int" >        2       70      147      155      156 </v>
   <v type="int" >        2       70      146      147      155 </v>
   <v type="int" >        2       71       79       80      156 </v>
   <v type="int" >        2       70       71       79      156 </v>
   <v type="int" >        2       70       71      147      156 </v>
   <v type="int" >        2       71       80      156      157 </v>
   <v type="int" >        2       71      148      156      157 </v>
   <v type="int" >        2       71      147      148      156 </v>
   <v type="int" >        2       72       80       81      157 </v>
   <v type="int" >        2       71       72       80      157 </v>
   <v type="int" >        2       71       72      148      157 </v>
   <v type="int" >        2       72       81      157      158 </v>
   <v type="int" >        2       72      149      157      158 </v>
   <v type="int" >        2       72      148      149      157 </v>
   <v type="int" >        2       73       81       82      158 </v>
   <v type="int" >        2       72       73       81      158 </v>
   <v type="int" >        2       72       73      149      158 </v>
   <v type="int" >        2       73       82      158      159 </v>
   <v type="int" >        2       73      150      158      159 </v>
   <v type="int" >        2       73      149      150      158 </v>
   <v type="int" >        2       74       82       83      159 </v>
   <v type="int" >        2       73       74       82      159 </v>
   <v type="int" >        2       73       74      150      159 </v>
   <v type="int" >        2       74       83      159      160 </v>
   <v type="int" >        2       74      151      159      160 </v>
   <v type="int" >        2       74      150      151      159 </v>
   <v type="int" >        2       75       83       84      160 </v>
   <v type="int" >        2       74       75       83      160 </v>
   <v type="int" >        2       74       75      151      160 </v>
   <v type="int" >        2       75       84      160      161 </v>
   <v type="int" >        2       75      152      160      161 </v>
   <v type="int" >        2       75      151      152      160 </v>
   <v type="int" >        2       76       84       85      161 </v>
   <v type="int" >        2       75       76       84      161 </v>
   <v type="int" >        2       75       76      152      161 </v>
   <v type="int" >        2       76       85      161      162 </v>
   <v type="int" >        2       76      153      161      162 </v>
   <v type="int" >        2       76      152      153      161 </v>
   <v type="int" >        2       77       85       86      162 </v>
   <v type="int" >        2       76       77       85      162 </v>
   <v type="int" >        2       76       77      153      162 </v>
   <v type="int" >        2       77       86      162      163 </v>
   <v type="int" >        2       77      154      162      163 </v>
   <v type="int" >        2       77      153      154      162 </v>
   <v type="int" >        2       69       78       86      163 </v>
   <v type="int" >        2       69       77       86      163 </v>
   <v type="int" >        2       69       77      154      163 </v>
   <v type="int" >        2       69       78      155      163 </v>
   <v type="int" >        2       69      146      155      163 </v>
   <v type="int" >        2       69      146      154      163 </v>
   <v type="int" >        2       79       87       88      155 </v>
   <v type="int" >        2       78       79       87      155 </v>
   <v type="int" >        2       78       79      155      155 </v>
   <v type="int" >        2       79       88      155      163 </v>
   <v type="int" >        2       79      155      156      163 </v>
   <v type="int" >        2       79      155      155      156 </v>
   <v type="int" >        2       80       88       89      163 </v>
   <v type="int" >        2       79       80       88      163 </v>
   <v type="int" >        2       79       80      156      163 </v>
   <v type="int" >        2       80       89      162      163 </v>
   <v type="int" >        2       80      157      162      163 </v>
   <v type="int" >        2       80      156      157      163 </v>
   <v type="int" >        2       81       89       90      162 </v>
   <v type="int" >        2       80       81       89      162 </v>
   <v type="int" >        2       80       81      157      162 </v>
   <v type="int" >        2       81       90      161      162 </v>
   <v type="int" >        2       81      158      161      162 </v>
   <v type="int" >        2       81      157      158      162 </v>
   <v type="int" >        2       82       90       91      161 </v>
   <v type="int" >        2       81       82       90      161 </v>
   <v type="int" >        2       81       82      158      161 </v>
   <v type="int" >        2       82       91      160      161 </v>
   <v type="int" >        2       82      159      160      161 </v>
   <v type="int" >        2       82      158      159      161 </v>
   <v type="int" >        2       83       91       92      160 </v>
   <v type="int" >        2       82       83       91      160 </v>
   <v type="int" >        2       82       83      159      160 </v>
   <v type="int" >        2       83       92      159      160 </v>
   <v type="int" >        4       83      159      160      160 </v>
   <v type="int" >        2       84       92       93      159 </v>
   <v type="int" >        2       83       84       92      159 </v>
   <v type="int" >        2       83       84      159      160 </v>
   <v type="int" >        2       84       93      158      159 </v>
   <v type="int" >        2       84      158      159      161 </v>
   <v type="int" >        2       84      159      160      161 </v>
   <v type="int" >        2       85       93       94      158 </v>
   <v type="int" >        2       84       85       93      158 </v>
   <v type="int" >        2       84       85      158      161 </v>
   <v type="int" >        2       85       94      157      158 </v>
   <v type="int" >        2       85      157      158      162 </v>
   <v type="int" >        2       85      158      161      162 </v>
   <v type="int" >        2       86       94       95      157 </v>
   <v type="int" >        2       85       86       94      157 </v>
   <v type="int" >        2       85       86      157      162 </v>
   <v type="int" >        2       86       95      156      157 </v>
   <v type="int" >        2       86      156      157      163 </v>
   <v type="int" >        2       86      157      162      163 </v>
   <v type="int" >        2       78       87       95      156 </v>
   <v type="int" >        2       78       86       95      156 </v>
   <v type="int" >        2       78       86      156      163 </v>
   <v type="int" >        2       78       87      155      156 </v>
   <v type="int" >        2       78      155      155      156 </v>
   <v type="int" >        2       78      155      156      163 </v>
   <v type="int" >        2       88       96       97      146 </v>
   <v type="int" >        2       87       88       96      146 </v>
   <v type="int" >        2       87       88      146      155 </v>
   <v type="int" >        2       88       97      146      154 </v>
   <v type="int" >        2       88      146      154      163 </v>
   <v type="int" >        2       88      146      155      163 </v>
   <v type="int" >        2       89       97       98      154 </v>
   <v type="int" >        2       88       89       97      154 </v>
   <v type="int" >        2       88       89      154      163 </v>
   <v type="int" >        2       89       98      153      154 </v>
   <v type="int" >        2       89      153      154      162 </v>
   <v type="int" >        2       89      154      162      163 </v>
   <v type="int" >        2       90       98       99      153 </v>
   <v type="int" >        2       89       90       98      153 </v>
   <v type="int" >        2       89       90      153      162 </v>
   <v type="int" >        2       90       99      152      153 </v>
   <v type="int" >        2       90      152      153      161 </v>
   <v type="int" >        2       90      153      161      162 </v>
   <v type="int" >        2       91       99      100      152 </v>
   <v type="int" >        2       90       91       99      152 </v>
   <v type="int" >        2       90       91      152      161 </v>
   <v type="int" >        2       91      100      151      152 </v>
   <v type="int" >        2       91      151      152      160 </v>
   <v type="int" >        2       91      152      160      161 </v>
   <v type="int" >        2       92      100      101      151 </v>
   <v type="int" >        2       91       92      100      151 </v>
   <v type="int" >        2       91       92      151      160 </v>
   <v type="int" >        2       92      101      150      151 </v>
   <v type="int" >        2       92      150      151      159 </v>
   <v type="int" >        2       92      151      159      160 </v>
   <v type="int" >        2       93      101      102      150 </v>
   <v type="int" >        2       92       93      101      150 </v>
   <v type="int" >        2       92       93      150      159 </v>
   <v type="int" >        2       93      102      149      150 </v>
   <v type="int" >        2       93      149      150      158 </v>
   <v type="int" >        2       93      150      158      159 </v>
   <v type="int" >        2       94      102      103      149 </v>
   <v type="int" >        2       93       94      102      149 </v>
   <v type="int" >        2       93       94      149      158 </v>
   <v type="int" >        2       94      103      148      149 </v>
   <v type="int" >        2       94      148      149      157 </v>
   <v type="int" >        2       94      149      157      158 </v>
   <v type="int" >        2       95      103      104      148 </v>
   <v type="int" >        2       94       95      103      148 </v>
   <v type="int" >        2       94       95      148      157 </v>
   <v type="int" >        2       95      104      147      148 </v>
   <v type="int" >        2       95      147      148      156 </v>
   <v type="int" >        2       95      148      156      157 </v>
   <v type="int" >        2       87       96      104      147 </v>
   <v type="int" >        2       87       95      104      147 </v>
   <v type="int" >        2       87       95      147      156 </v>
   <v type="int" >        2       87       96      146      147 </v>
   <v type="int" >        2       87      146      147      155 </v>
   <v type="int" >        2       87      147      155      156 </v>
   <v type="int" >        2       97      105      106      137 </v>
   <v type="int" >        2       96       97      105      137 </v>
   <v type="int" >        2       96       97      137      146 </v>
   <v type="int" >        2       97      106      137      145 </v>
   <v type="int" >        2       97      137      145      154 </v>
   <v type="int" >        2       97      137      146      154 </v>
   <v type="int" >        2       98      106      107      145 </v>
   <v type="int" >        2       97       98      106      145 </v>
   <v type="int" >        2       97       98      145      154 </v>
   <v type="int" >        2       98      107      144      145 </v>
   <v type="int" >        2       98      144      145      153 </v>
   <v type="int" >        2       98      145      153      154 </v>
   <v type="int" >        2       99      107      108      144 </v>
   <v type="int" >        2       98       99      107      144 </v>
   <v type="int" >        2       98       99      144      153 </v>
   <v type="int" >        2       99      108      143      144 </v>
   <v type="int" >        2       99      143      144      152 </v>
   <v type="int" >        2       99      144      152      153 </v>
   <v type="int" >        2      100      108      109      143 </v>
   <v type="int" >        2       99      100      108      143 </v>
   <v type="int" >        2       99      100      143      152 </v>
   <v type="int" >        2      100      109      142      143 </v>
   <v type="int" >        2      100      142      143      151 </v>
   <v type="int" >        2      100      143      151      152 </v>
   <v type="int" >        2      101      109      110      142 </v>
   <v type="int" >        2      100      101      109      142 </v>
   <v type="int" >        2      100      101      142      151 </v>
   <v type="int" >        2      101      110      141      142 </v>
   <v type="int" >        2      101      141      142      150 </v>
   <v type="int" >        2      101      142      150      151 </v>
   <v type="int" >        2      102      110      111      141 </v>
   <v type="int" >        2      101      102      110      141 </v>
   <v type="int" >        2      101      102      141      150 </v>
   <v type="int" >        2      102      111      140      141 </v>
   <v type="int" >        2      102      140      141      149 </v>
   <v type="int" >        2      102      141      149      150 </v>
   <v type="int" >        2      103      111      112      140 </v>
   <v type="int" >        2      102      103      111      140 </v>
   <v type="int" >        2      102      103      140      149 </v>
   <v type="int" >        2      103      112      139      140 </v>
   <v type="int" >        2      103      139      140      148 </v>
   <v type="int" >        2      103      140      148      149 </v>
   <v type="int" >        2      104      112      113      139 </v>
   <v type="int" >        2      103      104      112      139 </v>
   <v type="int" >        2      103      104      139      148 </v>
   <v type="int" >        2      104      113      138      139 </v>
   <v type="int" >        2      104      138      139      147 </v>
   <v type="int" >        2      104      139      147      148 </v>
   <v type="int" >        2       96      105      113      138 </v>
   <v type="int" >        2       96      104      113      138 </v>
   <v type="int" >        2       96      104      138      147 </v>
   <v type="int" >        2       96      105      137      138 </v>
   <v type="int" >        2       96      137      138      146 </v>
   <v type="int" >        2       96      138      146      147 </v>
   <v type="int" >        2      106      114      115      128 </v>
   <v type="int" >        2      105      106      114      128 </v>
   <v type="int" >        2      105      106      128      137 </v>
   <v type="int" >        2      106      115      128      136 </v>
   <v type="int" >        2      106      128      136      145 </v>
   <v type="int" >        2      106      128      137      145 </v>
   <v type="int" >        2      107      115      116      136 </v>
   <v type="int" >        2      106      107      115      136 </v>
   <v type="int" >        2      106      107      136      145 </v>
   <v type="int" >        2      107      116      135      136 </v>
   <v type="int" >        2      107      135      136      144 </v>
   <v type="int" >        2      107      136      144      145 </v>
   <v type="int" >        2      108      116      117      135 </v>
   <v type="int" >        2      107      108      116      135 </v>
   <v type="int" >        2      107      108      135      144 </v>
   <v type="int" >        2      108      117      134      135 </v>
   <v type="int" >        2      108      134      135      143 </v>
   <v type="int" >        2      108      135      143      144 </v>
   <v type="int" >        2      109      117      118      134 </v>
   <v type="int" >        2      108      109      117      134 </v>
   <v type="int" >        2      108      109      134      143 </v>
   <v type="int" >        2      109      118      133      134 </v>
   <v type="int" >        2      109      133      134      142 </v>
   <v type="int" >        2      109      134      142      143 </v>
   <v type="int" >        2      110      118      119      133 </v>
   <v type="int" >        2      109      110      118      133 </v>
   <v type="int" >        2      109      110      133      142 </v>
   <v type="int" >        2      110      119      132      133 </v>
   <v type="int" >        2      110      132      133      141 </v>
   <v type="int" >        2      110      133      141      142 </v>
   <v type="int" >        2      111      119      120      132 </v>
   <v type="int" >        2      110      111      119      132 </v>
   <v type="int" >        2      110      111      132      141 </v>
   <v type="int" >        2      111      120      131      132 </v>
   <v type="int" >        2      111      131      132      140 </v>
   <v type="int" >        2      111      132      140      141 </v>
   <v type="int" >        2      112      120      121      131 </v>
   <v type="int" >        2      111      112      120      131 </v>
   <v type="int" >        2      111      112      131      140 </v>
   <v type="int" >        2      112      121      130      131 </v>
   <v type="int" >        2      112      130      131      139 </v>
   <v type="int" >        2      112      131      139      140 </v>
   <v type="int" >        2      113      121      122      130 </v>
   <v type="int" >        2      112      113      121      130 </v>
   <v type="int" >        2      112      113      130      139 </v>
   <v type="int" >        2      113      122      129      130 </v>
   <v type="int" >        2      113      129      130      138 </v>
   <v type="int" >        2      113      130      138      139 </v>
   <v type="int" >        2      105      114      122      129 </v>
   <v type="int" >        2      105      113      122      129 </v>
   <v type="int" >        2      105      113      129      138 </v>
   <v type="int" >        2      105      114      128      129 </v>
   <v type="int" >        2      105      128      129      137 </v>
   <v type="int" >        2      105      129      137      138 </v>
   <v type="int" >        2       42       43      115      123 </v>
   <v type="int" >        2       42      114      115      123 </v>
[...]
       <r>    6.0905    1.0000 </r>
       <r>    6.1009    1.0000 </r>
       <r>    7.4857    1.0000 </r>
       <r>    7.4956    1.0000 </r>
       <r>   10.0650    1.0000 </r>
       <r>   10.0672    1.0000 </r>
       <r>   10.9555    1.0000 </r>
       <r>   10.9573    1.0000 </r>
       <r>   12.0207    1.0000 </r>
       <r>   12.0233    1.0000 </r>
       <r>   12.8736    1.0000 </r>
       <r>   12.8771    1.0000 </r>
       <r>   14.3806    1.0000 </r>
       <r>   14.3832    1.0000 </r>
       <r>   14.4957    1.0000 </r>
       <r>   14.5008    1.0000 </r>
       <r>   16.3718    1.0000 </r>
       <r>   16.3803    1.0000 </r>
       <r>   16.7396    1.0000 </r>
       <r>   16.7462    1.0000 </r>
       <r>   16.8294    1.0000 </r>
       <r>   16.8353    1.0000 </r>
       <r>   17.5846    1.0000 </r>
       <r>   17.5967    1.0000 </r>
       <r>   18.9635    1.0000 </r>
       <r>   18.9723    1.0000 </r>
       <r>   20.5886    1.0000 </r>
       <r>   20.5968    1.0000 </r>
       <r>   20.7556    1.0000 </r>
       <r>   20.7605    1.0000 </r>
       <r>   21.0318    1.0000 </r>
       <r>   21.0372    1.0000 </r>
       <r>   21.8059    1.0000 </r>
       <r>   21.8111    1.0000 </r>
       <r>   22.5203    0.6857 </r>
       <r>   22.5256    0.2605 </r>
       <r>   22.6552   -0.0024 </r>
       <r>   22.6588    0.0026 </r>
       <r>   23.5008    0.0000 </r>
       <r>   23.5106    0.0000 </r>
       <r>   24.1479    0.0000 </r>
       <r>   24.1565    0.0000 </r>
       <r>   24.4001    0.0000 </r>
       <r>   24.4103    0.0000 </r>
       <r>   26.2408    0.0000 </r>
       <r>   26.2499    0.0000 </r>
       <r>   27.0767    0.0000 </r>
       <r>   27.0872    0.0000 </r>
       <r>   27.3933    0.0000 </r>
       <r>   27.3965    0.0000 </r>
       <r>   27.7842    0.0000 </r>
       <r>   27.7877    0.0000 </r>
       <r>   27.8383    0.0000 </r>
       <r>   27.8468    0.0000 </r>
       <r>   28.5711    0.0000 </r>
       <r>   28.5786    0.0000 </r>
      </set>
     </set>
    </set>
   </array>
  </eigenvalues>
  <separator name="orbital magnetization" >
   <v name="MAGDIPOLOUT">      0.00000000      0.00000000      0.00000000</v>
  </separator>
  <dos>
   <i name="efermi">     22.37994918 </i>
   <total>
    <array>
     <dimension dim="1">gridpoints</dimension>
     <dimension dim="2">spin</dimension>
     <field>energy</field>
     <field>total</field>
     <field>integrated</field>
     <set>
      <set comment="spin 1">
       <r>   -13.0491     0.0000     0.0000 </r>
       <r>   -12.8992     0.0000     0.0000 </r>
       <r>   -12.7492     0.0000     0.0000 </r>
       <r>   -12.5993     0.0000     0.0000 </r>
       <r>   -12.4494     0.0000     0.0000 </r>
       <r>   -12.2995     0.0000     0.0000 </r>
       <r>   -12.1495     0.0000     0.0000 </r>
       <r>   -11.9996     0.0000     0.0000 </r>
       <r>   -11.8497     0.0000     0.0000 </r>
       <r>   -11.6998     0.0000     0.0000 </r>
       <r>   -11.5498     0.0000     0.0000 </r>
       <r>   -11.3999     0.0000     0.0000 </r>
       <r>   -11.2500     0.0000     0.0000 </r>
       <r>   -11.1001     0.0000     0.0000 </r>
       <r>   -10.9501     0.0604     0.0011 </r>
       <r>   -10.8002     0.3446     0.0321 </r>
       <r>   -10.6503     0.6046     0.1052 </r>
       <r>   -10.5004     0.7007     0.2023 </r>
       <r>   -10.3504     0.7937     0.3142 </r>
       <r>   -10.2005     0.8855     0.4401 </r>
       <r>   -10.0506     0.9873     0.5802 </r>
       <r>    -9.9007     1.0823     0.7355 </r>
       <r>    -9.7507     1.1936     0.9049 </r>
       <r>    -9.6008     1.2931     1.0921 </r>
       <r>    -9.4509     1.4138     1.2968 </r>
       <r>    -9.3010     1.2950     1.4988 </r>
       <r>    -9.1510     1.2670     1.6892 </r>
       <r>    -9.0011     1.4328     1.8915 </r>
       <r>    -8.8512     1.8967     2.1373 </r>
       <r>    -8.7013     2.1616     2.4429 </r>
       <r>    -8.5513     2.2027     2.7744 </r>
       <r>    -8.4014     1.9496     3.0879 </r>
       <r>    -8.2515     1.4308     3.3469 </r>
       <r>    -8.1016     1.3068     3.5451 </r>
       <r>    -7.9516     1.4923     3.7503 </r>
       <r>    -7.8017     1.9564     4.0125 </r>
       <r>    -7.6518     1.5764     4.2937 </r>
       <r>    -7.5019     1.8687     4.5472 </r>
       <r>    -7.3519     2.4317     4.8827 </r>
       <r>    -7.2020     2.4381     5.2509 </r>
       <r>    -7.0521     2.1855     5.6002 </r>
       <r>    -6.9022     2.1187     5.9211 </r>
       <r>    -6.7522     1.9609     6.2266 </r>
       <r>    -6.6023     1.9458     6.5180 </r>
       <r>    -6.4524     2.1369     6.8214 </r>
       <r>    -6.3025     2.3422     7.1572 </r>
       <r>    -6.1525     2.7014     7.5311 </r>
       <r>    -6.0026     2.8996     7.9666 </r>
       <r>    -5.8527     3.3221     8.4162 </r>
       <r>    -5.7028     3.6851     8.9546 </r>
       <r>    -5.5528     3.8318     9.5158 </r>
       <r>    -5.4029     3.9991    10.1001 </r>
       <r>    -5.2530     3.9987    10.7111 </r>
       <r>    -5.1030     2.5211    11.2069 </r>
       <r>    -4.9531     1.7040    11.5181 </r>
       <r>    -4.8032     1.3422    11.7441 </r>
       <r>    -4.6533     1.1923    11.9295 </r>
       <r>    -4.5033     2.5388    12.2115 </r>
       <r>    -4.3534     3.1866    12.6418 </r>
       <r>    -4.2035     2.9474    13.1099 </r>
       <r>    -4.0536     2.4610    13.5298 </r>
       <r>    -3.9036     2.2857    13.8815 </r>
       <r>    -3.7537     2.3485    14.2263 </r>
       <r>    -3.6038     2.5070    14.5927 </r>
       <r>    -3.4539     2.1690    14.9460 </r>
       <r>    -3.3039     2.2241    15.2718 </r>
       <r>    -3.1540     2.6044    15.6498 </r>
       <r>    -3.0041     3.0553    16.0797 </r>
       <r>    -2.8542     3.2270    16.5456 </r>
       <r>    -2.7042     3.3032    17.0351 </r>
       <r>    -2.5543     3.4287    17.5366 </r>
       <r>    -2.4044     3.4515    18.0571 </r>
       <r>    -2.2545     3.4252    18.5755 </r>
       <r>    -2.1045     3.2701    19.0720 </r>
       <r>    -1.9546     3.2948    19.5627 </r>
       <r>    -1.8047     3.1383    20.0511 </r>
       <r>    -1.6548     2.8857    20.4895 </r>
       <r>    -1.5048     2.9305    20.9321 </r>
       <r>    -1.3549     3.0583    21.3759 </r>
       <r>    -1.2050     3.2351    21.8480 </r>
       <r>    -1.0551     3.6170    22.3515 </r>
       <r>    -0.9051     4.2674    22.9685 </r>
       <r>    -0.7552     4.2203    23.6019 </r>
       <r>    -0.6053     4.6867    24.2677 </r>
       <r>    -0.4554     4.8209    24.9868 </r>
       <r>    -0.3054     4.4626    25.6786 </r>
       <r>    -0.1555     4.3852    26.3401 </r>
       <r>    -0.0056     3.7675    26.9807 </r>
       <r>     0.1443     3.2346    27.4915 </r>
       <r>     0.2943     3.0713    27.9626 </r>
       <r>     0.4442     3.5614    28.4451 </r>
       <r>     0.5941     3.3828    28.9608 </r>
       <r>     0.7440     2.7792    29.4472 </r>
       <r>     0.8940     2.8630    29.8550 </r>
       <r>     1.0439     4.6094    30.4454 </r>
       <r>     1.1938     5.1223    31.2119 </r>
       <r>     1.3437     2.6653    31.7124 </r>
       <r>     1.4937     3.1790    32.1433 </r>
       <r>     1.6436     4.2474    32.6995 </r>
       <r>     1.7935     4.1983    33.3316 </r>
       <r>     1.9434     4.0280    33.9523 </r>
       <r>     2.0934     4.3207    34.5707 </r>
       <r>     2.2433     5.2546    35.2789 </r>
       <r>     2.3932     5.3102    36.0665 </r>
       <r>     2.5431     5.3598    36.8769 </r>
       <r>     2.6931     4.7700    37.6303 </r>
       <r>     2.8430     4.7708    38.3444 </r>
       <r>     2.9929     5.7134    39.0976 </r>
       <r>     3.1428     6.1724    39.9825 </r>
       <r>     3.2928     5.7027    40.8844 </r>
       <r>     3.4427     5.3789    41.7004 </r>
       <r>     3.5926     5.7999    42.5484 </r>
       <r>     3.7426     6.6291    43.4825 </r>
       <r>     3.8925     6.0151    44.4412 </r>
       <r>     4.0424     5.8203    45.3233 </r>
       <r>     4.1923     5.8671    46.2039 </r>
       <r>     4.3423     5.6087    47.0514 </r>
       <r>     4.4922     6.0488    47.9138 </r>
       <r>     4.6421     6.6824    48.8786 </r>
       <r>     4.7920     5.9858    49.8528 </r>
       <r>     4.9420     5.0170    50.6714 </r>
       <r>     5.0919     5.5477    51.4570 </r>
       <r>     5.2418     5.7128    52.2977 </r>
       <r>     5.3917     4.9041    53.0675 </r>
       <r>     5.5417     5.8691    53.8732 </r>
       <r>     5.6916     5.6545    54.7410 </r>
       <r>     5.8415     5.0686    55.5597 </r>
       <r>     5.9914     4.7747    56.2986 </r>
       <r>     6.1414     4.8140    57.0243 </r>
       <r>     6.2913     3.9873    57.6713 </r>
       <r>     6.4412     4.3173    58.2894 </r>
       <r>     6.5911     3.5009    58.8693 </r>
       <r>     6.7411     3.2827    59.3785 </r>
       <r>     6.8910     3.1918    59.8624 </r>
       <r>     7.0409     3.3824    60.3554 </r>
       <r>     7.1908     4.0278    60.8804 </r>
       <r>     7.3408     3.4975    61.4745 </r>
       <r>     7.4907     3.3790    61.9850 </r>
       <r>     7.6406     3.1746    62.4859 </r>
       <r>     7.7905     2.8802    62.9348 </r>
       <r>     7.9405     3.0805    63.3778 </r>
       <r>     8.0904     3.3289    63.8592 </r>
       <r>     8.2403     3.2897    64.3635 </r>
       <r>     8.3902     3.0063    64.8356 </r>
       <r>     8.5402     2.7417    65.2631 </r>
       <r>     8.6901     2.9100    65.6859 </r>
       <r>     8.8400     3.1224    66.1393 </r>
       <r>     8.9899     3.0931    66.6104 </r>
       <r>     9.1399     2.7489    67.0553 </r>
       <r>     9.2898     2.7375    67.4619 </r>
       <r>     9.4397     2.7913    67.8767 </r>
       <r>     9.5896     2.8161    68.2963 </r>
       <r>     9.7396     2.8595    68.7213 </r>
       <r>     9.8895     3.1358    69.1687 </r>
       <r>    10.0394     3.5956    69.6731 </r>
       <r>    10.1893     3.7613    70.2289 </r>
       <r>    10.3393     3.5511    70.7815 </r>
       <r>    10.4892     3.1317    71.2781 </r>
       <r>    10.6391     3.0355    71.7391 </r>
       <r>    10.7890     2.9378    72.1872 </r>
       <r>    10.9390     2.8204    72.6193 </r>
       <r>    11.0889     2.6007    73.0262 </r>
       <r>    11.2388     2.4548    73.4075 </r>
       <r>    11.3887     2.3498    73.7646 </r>
       <r>    11.5387     2.3485    74.1150 </r>
       <r>    11.6886     2.4207    74.4734 </r>
       <r>    11.8385     2.4663    74.8394 </r>
       <r>    11.9884     2.4338    75.2103 </r>
       <r>    12.1384     1.9803    75.5447 </r>
       <r>    12.2883     1.6591    75.8140 </r>
       <r>    12.4382     1.5311    76.0523 </r>
       <r>    12.5882     1.7320    76.2886 </r>
       <r>    12.7381     2.4714    76.6050 </r>
       <r>    12.8880     2.2040    76.9642 </r>
       <r>    13.0379     2.1619    77.2882 </r>
       <r>    13.1879     2.7477    77.6357 </r>
       <r>    13.3378     3.2198    78.0899 </r>
       <r>    13.4877     3.0632    78.5675 </r>
       <r>    13.6376     2.5971    78.9812 </r>
       <r>    13.7876     2.6935    79.3768 </r>
       <r>    13.9375     2.8107    79.7891 </r>
       <r>    14.0874     2.9522    80.2150 </r>
       <r>    14.2373     3.7636    80.7312 </r>
       <r>    14.3873     4.3734    81.3445 </r>
       <r>    14.5372     4.8234    82.0490 </r>
       <r>    14.6871     4.9943    82.8009 </r>
       <r>    14.8370     4.7589    83.5333 </r>
       <r>    14.9870     4.7488    84.2315 </r>
       <r>    15.1369     5.1483    84.9863 </r>
       <r>    15.2868     5.1039    85.7706 </r>
       <r>    15.4367     4.4482    86.4925 </r>
       <r>    15.5867     3.8352    87.1126 </r>
       <r>    15.7366     3.3052    87.6450 </r>
       <r>    15.8865     3.4302    88.1527 </r>
       <r>    16.0364     3.6096    88.6922 </r>
       <r>    16.1864     3.6738    89.2310 </r>
       <r>    16.3363     4.8445    89.8806 </r>
       <r>    16.4862     5.4887    90.6539 </r>
       <r>    16.6361     5.4549    91.4862 </r>
       <r>    16.7861     6.0235    92.3385 </r>
       <r>    16.9360     6.0448    93.2513 </r>
       <r>    17.0859     6.0739    94.1596 </r>
       <r>    17.2358     6.0410    95.0748 </r>
       <r>    17.3858     6.0751    95.9798 </r>
       <r>    17.5357     6.3139    96.9087 </r>
       <r>    17.6856     6.2207    97.8504 </r>
       <r>    17.8355     6.1888    98.7778 </r>
       <r>    17.9855     6.0747    99.6959 </r>
       <r>    18.1354     6.6270   100.6213 </r>
       <r>    18.2853     6.2966   101.6076 </r>
       <r>    18.4352     5.7838   102.5055 </r>
       <r>    18.5852     5.6753   103.3555 </r>
       <r>    18.7351     5.9029   104.2200 </r>
       <r>    18.8850     5.8093   105.1092 </r>
       <r>    19.0349     5.6731   105.9572 </r>
       <r>    19.1849     5.1052   106.7559 </r>
       <r>    19.3348     5.7485   107.5844 </r>
       <r>    19.4847     6.6069   108.5100 </r>
       <r>    19.6346     6.4980   109.4739 </r>
       <r>    19.7846     6.0163   110.4370 </r>
       <r>    19.9345     5.7893   111.3054 </r>
       <r>    20.0844     8.1418   112.3206 </r>
       <r>    20.2343     7.4280   113.4405 </r>
       <r>    20.3843     8.1125   114.5964 </r>
       <r>    20.5342     9.9466   115.9334 </r>
       <r>    20.6841    10.7856   117.4600 </r>
       <r>    20.8340    10.1154   119.0908 </r>
       <r>    20.9840    10.3496   120.6576 </r>
       <r>    21.1339     7.4535   121.9812 </r>
       <r>    21.2838     6.5610   123.0351 </r>
       <r>    21.4338     4.7949   123.8310 </r>
       <r>    21.5837     4.9116   124.5525 </r>
       <r>    21.7336     4.7943   125.2860 </r>
       <r>    21.8835     4.7627   126.0057 </r>
       <r>    22.0335     3.7281   126.6312 </r>
       <r>    22.1834     3.8654   127.1877 </r>
       <r>    22.3333     4.2863   127.7924 </r>
       <r>    22.4832     5.3814   128.5204 </r>
       <r>    22.6332     6.2080   129.4530 </r>
       <r>    22.7831     6.0814   130.3436 </r>
       <r>    22.9330     6.3065   131.2628 </r>
       <r>    23.0829     5.8558   132.1793 </r>
       <r>    23.2329     5.7748   133.0323 </r>
       <r>    23.3828     6.0701   133.9294 </r>
       <r>    23.5327     4.9742   134.7887 </r>
       <r>    23.6826     3.9022   135.4301 </r>
       <r>    23.8326     4.4749   136.0322 </r>
       <r>    23.9825     5.8987   136.9196 </r>
       <r>    24.1324     4.2157   137.5959 </r>
       <r>    24.2823     4.5021   138.2459 </r>
       <r>    24.4323     4.8884   138.9509 </r>
       <r>    24.5822     5.1917   139.7064 </r>
       <r>    24.7321     5.5391   140.5093 </r>
       <r>    24.8820     5.5061   141.3653 </r>
       <r>    25.0320     5.4031   142.1838 </r>
       <r>    25.1819     6.0716   143.0458 </r>
       <r>    25.3318     4.8285   143.8588 </r>
       <r>    25.4817     4.6994   144.5632 </r>
       <r>    25.6317     4.3774   145.2477 </r>
       <r>    25.7816     5.7461   145.9386 </r>
       <r>    25.9315     6.3505   146.8921 </r>
       <r>    26.0814     5.2079   147.7501 </r>
       <r>    26.2314     6.1886   148.5519 </r>
       <r>    26.3813     7.2645   149.5672 </r>
       <r>    26.5312     7.7402   150.7005 </r>
       <r>    26.6811     8.0121   151.9206 </r>
       <r>    26.8311     7.4392   153.0570 </r>
       <r>    26.9810     8.3047   154.2453 </r>
       <r>    27.1309     8.6995   155.5155 </r>
       <r>    27.2808     9.3409   156.8788 </r>
       <r>    27.4308     9.6711   158.2954 </r>
       <r>    27.5807     9.9889   159.7630 </r>
       <r>    27.7306    10.4931   161.3211 </r>
       <r>    27.8805     8.3196   162.7708 </r>
       <r>    28.0305     6.5996   163.8782 </r>
       <r>    28.1804     5.8965   164.8165 </r>
       <r>    28.3303     4.5078   165.6133 </r>
       <r>    28.4802     3.2870   166.1798 </r>
       <r>    28.6302     2.6822   166.6247 </r>
       <r>    28.7801     2.1140   166.9800 </r>
       <r>    28.9300     1.9864   167.2865 </r>
       <r>    29.0799     1.6822   167.5637 </r>
       <r>    29.2299     1.2553   167.7844 </r>
       <r>    29.3798     0.4503   167.9079 </r>
       <r>    29.5297     0.2600   167.9593 </r>
       <r>    29.6796     0.1491   167.9892 </r>
       <r>    29.8296     0.0114   167.9998 </r>
       <r>    29.9795     0.0000   168.0000 </r>
       <r>    30.1294     0.0000   168.0000 </r>
       <r>    30.2794     0.0000   168.0000 </r>
       <r>    30.4293     0.0000   168.0000 </r>
       <r>    30.5792     0.0000   168.0000 </r>
       <r>    30.7291     0.0000   168.0000 </r>
       <r>    30.8791     0.0000   168.0000 </r>
       <r>    31.0290     0.0000   168.0000 </r>
       <r>    31.1789     0.0000   168.0000 </r>
       <r>    31.3288     0.0000   168.0000 </r>
       <r>    31.4788     0.0000   168.0000 </r>
       <r>    31.6287     0.0000   168.0000 </r>
       <r>    31.7786     0.0000   168.0000 </r>
       <r>    31.9285     0.0000   168.0000 </r>
      </set>
     </set>
    </array>
   </total>
  </dos>
 </calculation>
 <structure name="finalpos" >
  <crystal>
   <varray name="basis" >
    <v>       4.93431088      -0.00022240       0.00000000 </v>
    <v>      -2.46734805       4.27312738       0.00000000 </v>
    <v>       0.00000000       0.00000000       4.70801961 </v>
   </varray>
   <i name="volume">     99.26572255 </i>
   <varray name="rec_basis" >
    <v>       0.20266782       0.11702250       0.00000000 </v>
    <v>       0.00001055       0.23402673       0.00000000 </v>
    <v>       0.00000000       0.00000000       0.21240353 </v>
   </varray>
  </crystal>
  <varray name="positions" >
   <v>       0.49999985       0.00000017       0.12500000 </v>
   <v>       0.99999985       0.00000017       0.12500000 </v>
   <v>       0.49999985       0.50000017       0.12500000 </v>
   <v>       0.99999985       0.50000017       0.12500000 </v>
   <v>       0.49999985       0.00000017       0.62500000 </v>
   <v>       0.99999985       0.00000017       0.62500000 </v>
   <v>       0.49999985       0.50000017       0.62500000 </v>
   <v>       0.99999985       0.50000017       0.62500000 </v>
   <v>       0.00000017       0.49999985       0.37500000 </v>
   <v>       0.50000017       0.49999985       0.37500000 </v>
   <v>       0.00000017       0.99999985       0.37500000 </v>
   <v>       0.50000017       0.99999985       0.37500000 </v>
   <v>       0.00000017       0.49999985       0.87500000 </v>
   <v>       0.50000017       0.49999985       0.87500000 </v>
   <v>       0.00000017       0.99999985       0.87500000 </v>
   <v>       0.50000017       0.99999985       0.87500000 </v>
   <v>       0.16518320       0.33335053       0.12353373 </v>
   <v>       0.66664946       0.33335053       0.12500000 </v>
   <v>       0.16664946       0.83335053       0.12500000 </v>
   <v>       0.66664946       0.83335053       0.12500000 </v>
   <v>       0.16664946       0.33335053       0.62500000 </v>
   <v>       0.66664946       0.33335053       0.62500000 </v>
   <v>       0.16664946       0.83335053       0.62500000 </v>
   <v>       0.66664946       0.83335053       0.62500000 </v>
   <v>       0.33335053       0.16664946       0.37500000 </v>
   <v>       0.83335053       0.16664946       0.37500000 </v>
   <v>       0.33335053       0.66664946       0.37500000 </v>
   <v>       0.83335053       0.66664946       0.37500000 </v>
   <v>       0.33335053       0.16664946       0.87500000 </v>
   <v>       0.83335053       0.16664946       0.87500000 </v>
   <v>       0.33335053       0.66664946       0.87500000 </v>
   <v>       0.83335053       0.66664946       0.87500000 </v>
  </varray>
 </structure>
</modeling>
