 vasp.5.3.5 31Mar14 (build Nov 02 2014 15:17:37) complex                        
  
 executed on        ion-Intel-MKL date 2016.10.18  01:54:51
 running on    6 total cores
 distrk:  each k-point on    6 cores,    1 groups
 distr:  one band on NCORES_PER_BAND=   1 cores,    6 groups


--------------------------------------------------------------------------------------------------------


 INCAR:
 POTCAR:   PAW_PBE C 08Apr2002                    

 ----------------------------------------------------------------------------- 
|                                                                             |
|           W    W    AA    RRRRR   N    N  II  N    N   GGGG   !!!           |
|           W    W   A  A   R    R  NN   N  II  NN   N  G    G  !!!           |
|           W    W  A    A  R    R  N N  N  II  N N  N  G       !!!           |
|           W WW W  AAAAAA  RRRRR   N  N N  II  N  N N  G  GGG   !            |
|           WW  WW  A    A  R   R   N   NN  II  N   NN  G    G                |
|           W    W  A    A  R    R  N    N  II  N    N   GGGG   !!!           |
|                                                                             |
|      For optimal performance we recommend to set                            |
|        NCORE= 4 - approx SQRT( number of cores)                             |
|      NCORE specifies how many cores store one orbital (NPAR=cpu/NCORE).     |
|      This setting can  greatly improve the performance of VASP for DFT.     |
|      The default, NPAR=number of cores might be grossly inefficient         |
|      on modern multi-core architectures or massively parallel machines.     |
|      Do your own testing !!!!                                               |
|      Unfortunately you need to use the default for GW and RPA calculations. |
|      (for HF NCORE is supported but not extensively tested yet)             |
|                                                                             |
 ----------------------------------------------------------------------------- 

 POTCAR:   PAW_PBE C 08Apr2002                    
   VRHFIN =C: s2p2                                                              
   LEXCH  = PE                                                                  
   EATOM  =   147.1560 eV,   10.8157 Ry                                         
                                                                                
   TITEL  = PAW_PBE C 08Apr2002                                                 
   LULTRA =        F    use ultrasoft PP ?                                      
   IUNSCR =        0    unscreen: 0-lin 1-nonlin 2-no                           
   RPACOR =     .000    partial core radius                                     
   POMASS =   12.011; ZVAL   =    4.000    mass and valenz                      
   RCORE  =    1.500    outmost cutoff radius                                   
   RWIGS  =    1.630; RWIGS  =     .863    wigner-seitz radius (au A)           
   ENMAX  =  400.000; ENMIN  =  300.000 eV                                      
   ICORE  =        2    local potential                                         
   LCOR   =        T    correct aug charges                                     
   LPAW   =        T    paw PP                                                  
   EAUG   =  644.873                                                            
   DEXC   =     .000                                                            
   RMAX   =    2.266    core radius for proj-oper                               
   RAUG   =    1.300    factor for augmentation sphere                          
   RDEP   =    1.501    radius for radial grids                                 
   RDEPT  =    1.300    core radius for aug-charge                              
   QCUT   =   -5.516; QGAM   =   11.032    optimization parameters              
                                                                                
   Description                                                                  
     l     E      TYP  RCUT    TYP  RCUT                                        
     0   .000     23  1.200                                                     
     0   .000     23  1.200                                                     
     1   .000     23  1.500                                                     
     1  2.500     23  1.500                                                     
     2   .000      7  1.500                                                     
  local pseudopotential read in
  atomic valenz-charges read in
  non local Contribution for L=           0  read in
    real space projection operators read in
  non local Contribution for L=           0  read in
    real space projection operators read in
  non local Contribution for L=           1  read in
    real space projection operators read in
  non local Contribution for L=           1  read in
    real space projection operators read in
    PAW grid and wavefunctions read in
 
   number of l-projection  operators is LMAX  =           4
   number of lm-projection operators is LMMAX =           8
 

 ----------------------------------------------------------------------------- 
|                                                                             |
|  ADVICE TO THIS USER RUNNING 'VASP/VAMP'   (HEAR YOUR MASTER'S VOICE ...):  |
|                                                                             |
|      You have a (more or less) 'large supercell' and for larger cells       |
|      it might be more efficient to use real space projection operators      |
|      So try LREAL= Auto  in the INCAR   file.                               |
|      Mind: If you want to do a very accurate calculations keep the          |
|      reciprocal projection scheme          (i.e. LREAL=.FALSE.)             |
|                                                                             |
 ----------------------------------------------------------------------------- 

 PAW_PBE C 08Apr2002                    :
 energy of atom  1       EATOM= -147.1560
 kinetic energy error for atom=    0.0016 (will be added to EATOM!!)
 
 
 POSCAR: C                                       
  positions in direct lattice
  No initial velocities read in
 exchange correlation table for  LEXCH =        8
   RHO(1)=    0.500       N(1)  =     2000
   RHO(2)=  100.500       N(2)  =     4000
 


--------------------------------------------------------------------------------------------------------


 ion  position               nearest neighbor table
   1  0.500  0.000  0.125-  18 1.42  19 1.42  20 1.42
   2  1.000  0.000  0.125-  20 1.42  17 1.42  19 1.42
   3  0.500  0.500  0.125-  20 1.42  18 1.42  17 1.43
   4  1.000  0.500  0.125-  17 1.42  19 1.42  18 1.42
   5  0.500  0.000  0.625-  22 1.42  23 1.42  24 1.42
   6  1.000  0.000  0.625-  21 1.42  24 1.42  23 1.42
   7  0.500  0.500  0.625-  24 1.42  21 1.42  22 1.42
   8  1.000  0.500  0.625-  23 1.42  22 1.42  21 1.42
   9  0.000  0.500  0.375-  27 1.42  26 1.42  28 1.42
  10  0.500  0.500  0.375-  28 1.42  25 1.42  27 1.42
  11  0.000  1.000  0.375-  25 1.42  28 1.42  26 1.42
  12  0.500  1.000  0.375-  26 1.42  27 1.42  25 1.42
  13  0.000  0.500  0.875-  31 1.42  30 1.42  32 1.42
  14  0.500  0.500  0.875-  32 1.42  29 1.42  31 1.42
  15  0.000  1.000  0.875-  29 1.42  32 1.42  30 1.42
  16  0.500  1.000  0.875-  30 1.42  31 1.42  29 1.42
  17  0.166  0.334  0.124-   4 1.42   2 1.42   3 1.43
  18  0.666  0.334  0.125-   1 1.42   4 1.42   3 1.42
  19  0.166  0.834  0.125-   4 1.42   1 1.42   2 1.42
  20  0.666  0.834  0.125-   3 1.42   2 1.42   1 1.42
  21  0.166  0.334  0.625-   6 1.42   7 1.42   8 1.42
  22  0.666  0.334  0.625-   5 1.42   8 1.42   7 1.42
  23  0.166  0.834  0.625-   8 1.42   5 1.42   6 1.42
  24  0.666  0.834  0.625-   7 1.42   6 1.42   5 1.42
  25  0.334  0.166  0.375-  11 1.42  10 1.42  12 1.42
  26  0.834  0.166  0.375-  12 1.42   9 1.42  11 1.42
  27  0.334  0.666  0.375-   9 1.42  12 1.42  10 1.42
  28  0.834  0.666  0.375-  10 1.42  11 1.42   9 1.42
  29  0.334  0.166  0.875-  15 1.42  14 1.42  16 1.42
  30  0.834  0.166  0.875-  16 1.42  13 1.42  15 1.42
  31  0.334  0.666  0.875-  13 1.42  16 1.42  14 1.42
  32  0.834  0.666  0.875-  14 1.42  15 1.42  13 1.42
 
  LATTYP: Found a base centered orthorhombic cell.
 ALAT       =     4.9295501972
 B/A-ratio  =     1.7336081796
 C/A-ratio  =     2.6906108926
  
  Lattice vectors:
  
 A1 = (   4.9328744980,  -0.0019192860,   0.0000000000)
 A2 = (  -2.4680993993,   4.2710349859,   0.0000000000)
 A3 = (   0.0000000000,   0.0000000000,  13.2635014563)


Analysis of symmetry for initial positions (statically):
=====================================================================
 Subroutine PRICEL returns:
 Original cell was already a primitive cell.
 

 Routine SETGRP: Setting up the symmetry group for a 
 base centered orthorhombic supercell.


 Subroutine GETGRP returns: Found  1 space group operations
 (whereof  1 operations were pure point group operations)
 out of a pool of  8 trial point group operations.


The static configuration has the point symmetry C_1 .


Analysis of symmetry for dynamics (positions and initial velocities):
=====================================================================
 Subroutine PRICEL returns:
 Original cell was already a primitive cell.
 

 Routine SETGRP: Setting up the symmetry group for a 
 base centered orthorhombic supercell.


 Subroutine GETGRP returns: Found  1 space group operations
 (whereof  1 operations were pure point group operations)
 out of a pool of  8 trial point group operations.


The dynamic configuration has the point symmetry C_1 .
 
 
 KPOINTS: B4C B11C-CBC                            

Automatic generation of k-mesh.
Space group operators:
 irot       det(A)        alpha          n_x          n_y          n_z        tau_x        tau_y        tau_z
    1     1.000000     0.000000     1.000000     0.000000     0.000000     0.000000     0.000000     0.000000
 
 Subroutine IBZKPT returns following result:
 ===========================================
 
 Found     76 irreducible k-points:
 
 Following reciprocal coordinates:
            Coordinates               Weight
  0.000000  0.000000  0.000000      1.000000
  0.166667  0.000000  0.000000      2.000000
  0.333333  0.000000  0.000000      2.000000
  0.500000  0.000000  0.000000      1.000000
  0.000000  0.166667  0.000000      2.000000
  0.166667  0.166667  0.000000      2.000000
  0.333333  0.166667  0.000000      2.000000
  0.500000  0.166667  0.000000      2.000000
 -0.333333  0.166667  0.000000      2.000000
 -0.166667  0.166667  0.000000      2.000000
 -0.000000  0.333333  0.000000      2.000000
  0.166667  0.333333  0.000000      2.000000
  0.333333  0.333333  0.000000      2.000000
  0.500000  0.333333  0.000000      2.000000
 -0.333333  0.333333  0.000000      2.000000
 -0.166667  0.333333  0.000000      2.000000
  0.000000  0.500000  0.000000      1.000000
  0.166667  0.500000  0.000000      2.000000
  0.333333  0.500000  0.000000      2.000000
  0.500000  0.500000  0.000000      1.000000
  0.000000  0.000000  0.250000      2.000000
  0.166667  0.000000  0.250000      2.000000
  0.333333  0.000000  0.250000      2.000000
  0.500000  0.000000  0.250000      2.000000
 -0.333333  0.000000  0.250000      2.000000
 -0.166667  0.000000  0.250000      2.000000
  0.000000  0.166667  0.250000      2.000000
  0.166667  0.166667  0.250000      2.000000
  0.333333  0.166667  0.250000      2.000000
  0.500000  0.166667  0.250000      2.000000
 -0.333333  0.166667  0.250000      2.000000
 -0.166667  0.166667  0.250000      2.000000
 -0.000000  0.333333  0.250000      2.000000
  0.166667  0.333333  0.250000      2.000000
  0.333333  0.333333  0.250000      2.000000
  0.500000  0.333333  0.250000      2.000000
 -0.333333  0.333333  0.250000      2.000000
 -0.166667  0.333333  0.250000      2.000000
  0.000000  0.500000  0.250000      2.000000
  0.166667  0.500000  0.250000      2.000000
  0.333333  0.500000  0.250000      2.000000
  0.500000  0.500000  0.250000      2.000000
 -0.333333  0.500000  0.250000      2.000000
 -0.166667  0.500000  0.250000      2.000000
  0.000000 -0.333333  0.250000      2.000000
  0.166667 -0.333333  0.250000      2.000000
  0.333333 -0.333333  0.250000      2.000000
  0.500000 -0.333333  0.250000      2.000000
 -0.333333 -0.333333  0.250000      2.000000
 -0.166667 -0.333333  0.250000      2.000000
  0.000000 -0.166667  0.250000      2.000000
  0.166667 -0.166667  0.250000      2.000000
  0.333333 -0.166667  0.250000      2.000000
  0.500000 -0.166667  0.250000      2.000000
 -0.333333 -0.166667  0.250000      2.000000
 -0.166667 -0.166667  0.250000      2.000000
  0.000000  0.000000  0.500000      1.000000
  0.166667  0.000000  0.500000      2.000000
  0.333333  0.000000  0.500000      2.000000
  0.500000  0.000000  0.500000      1.000000
  0.000000  0.166667  0.500000      2.000000
  0.166667  0.166667  0.500000      2.000000
  0.333333  0.166667  0.500000      2.000000
  0.500000  0.166667  0.500000      2.000000
 -0.333333  0.166667  0.500000      2.000000
 -0.166667  0.166667  0.500000      2.000000
 -0.000000  0.333333  0.500000      2.000000
  0.166667  0.333333  0.500000      2.000000
  0.333333  0.333333  0.500000      2.000000
  0.500000  0.333333  0.500000      2.000000
 -0.333333  0.333333  0.500000      2.000000
 -0.166667  0.333333  0.500000      2.000000
  0.000000  0.500000  0.500000      1.000000
  0.166667  0.500000  0.500000      2.000000
  0.333333  0.500000  0.500000      2.000000
  0.500000  0.500000  0.500000      1.000000
 
 Following cartesian coordinates:
            Coordinates               Weight
  0.000000  0.000000  0.000000      1.000000
  0.033795  0.019529  0.000000      2.000000
  0.067589  0.039058  0.000000      2.000000
  0.101384  0.058586  0.000000      1.000000
  0.000015  0.039031  0.000000      2.000000
  0.033810  0.058560  0.000000      2.000000
  0.067604  0.078089  0.000000      2.000000
  0.101399  0.097618  0.000000      2.000000
 -0.067574 -0.000026  0.000000      2.000000
 -0.033779  0.019503  0.000000      2.000000
  0.000030  0.078063  0.000000      2.000000
  0.033825  0.097591  0.000000      2.000000
  0.067619  0.117120  0.000000      2.000000
  0.101414  0.136649  0.000000      2.000000
 -0.067559  0.039005  0.000000      2.000000
 -0.033764  0.058534  0.000000      2.000000
  0.000046  0.117094  0.000000      1.000000
  0.033840  0.136623  0.000000      2.000000
  0.067635  0.156152  0.000000      2.000000
  0.101429  0.175680  0.000000      1.000000
  0.000000  0.000000  0.018849      2.000000
  0.033795  0.019529  0.018849      2.000000
  0.067589  0.039058  0.018849      2.000000
  0.101384  0.058586  0.018849      2.000000
 -0.067589 -0.039058  0.018849      2.000000
 -0.033795 -0.019529  0.018849      2.000000
  0.000015  0.039031  0.018849      2.000000
  0.033810  0.058560  0.018849      2.000000
  0.067604  0.078089  0.018849      2.000000
  0.101399  0.097618  0.018849      2.000000
 -0.067574 -0.000026  0.018849      2.000000
 -0.033779  0.019503  0.018849      2.000000
  0.000030  0.078063  0.018849      2.000000
  0.033825  0.097591  0.018849      2.000000
  0.067619  0.117120  0.018849      2.000000
  0.101414  0.136649  0.018849      2.000000
 -0.067559  0.039005  0.018849      2.000000
 -0.033764  0.058534  0.018849      2.000000
  0.000046  0.117094  0.018849      2.000000
  0.033840  0.136623  0.018849      2.000000
  0.067635  0.156152  0.018849      2.000000
  0.101429  0.175680  0.018849      2.000000
 -0.067543  0.078036  0.018849      2.000000
 -0.033749  0.097565  0.018849      2.000000
 -0.000030 -0.078063  0.018849      2.000000
  0.033764 -0.058534  0.018849      2.000000
  0.067559 -0.039005  0.018849      2.000000
  0.101353 -0.019476  0.018849      2.000000
 -0.067619 -0.117120  0.018849      2.000000
 -0.033825 -0.097591  0.018849      2.000000
 -0.000015 -0.039031  0.018849      2.000000
  0.033779 -0.019503  0.018849      2.000000
  0.067574  0.000026  0.018849      2.000000
  0.101368  0.019555  0.018849      2.000000
 -0.067604 -0.078089  0.018849      2.000000
 -0.033810 -0.058560  0.018849      2.000000
  0.000000  0.000000  0.037697      1.000000
  0.033795  0.019529  0.037697      2.000000
  0.067589  0.039058  0.037697      2.000000
  0.101384  0.058586  0.037697      1.000000
  0.000015  0.039031  0.037697      2.000000
  0.033810  0.058560  0.037697      2.000000
  0.067604  0.078089  0.037697      2.000000
  0.101399  0.097618  0.037697      2.000000
 -0.067574 -0.000026  0.037697      2.000000
 -0.033779  0.019503  0.037697      2.000000
  0.000030  0.078063  0.037697      2.000000
  0.033825  0.097591  0.037697      2.000000
  0.067619  0.117120  0.037697      2.000000
  0.101414  0.136649  0.037697      2.000000
 -0.067559  0.039005  0.037697      2.000000
 -0.033764  0.058534  0.037697      2.000000
  0.000046  0.117094  0.037697      1.000000
  0.033840  0.136623  0.037697      2.000000
  0.067635  0.156152  0.037697      2.000000
  0.101429  0.175680  0.037697      1.000000
 
 TETIRR: Found    432 inequivalent tetrahedra from      864


--------------------------------------------------------------------------------------------------------




 Dimension of arrays:
   k-points           NKPTS =     76   k-points in BZ     NKDIM =     76   number of bands    NBANDS=     84
   number of dos      NEDOS =    301   number of ions     NIONS =     32
   non local maximal  LDIM  =      4   non local SUM 2l+1 LMDIM =      8
   total plane-waves  NPLWV = 290304
   max r-space proj   IRMAX =      1   max aug-charges    IRDMAX=  12460
   dimension x,y,z NGX =    48 NGY =   48 NGZ =  126
   dimension x,y,z NGXF=    96 NGYF=   96 NGZF=  252
   support grid    NGXF=    96 NGYF=   96 NGZF=  252
   ions per type =              32
 NGX,Y,Z   is equivalent  to a cutoff of  16.18, 16.18, 15.79 a.u.
 NGXF,Y,Z  is equivalent  to a cutoff of  32.35, 32.35, 31.59 a.u.


 I would recommend the setting:
   dimension x,y,z NGX =    46 NGY =   46 NGZ =  122
 SYSTEM =  graphite                                
 POSCAR =  C                                       

 Startparameter for this run:
   NWRITE =      2    write-flag & timer
   PREC   = accura    normal or accurate (medium, high low for compatibility)
   ISTART =      0    job   : 0-new  1-cont  2-samecut
   ICHARG =      2    charge: 1-file 2-atom 10-const
   ISPIN  =      1    spin polarized calculation?
   LNONCOLLINEAR =      F non collinear calculations
   LSORBIT =      F    spin-orbit coupling
   INIWAV =      1    electr: 0-lowe 1-rand  2-diag
   LASPH  =      F    aspherical Exc in radial PAW
   METAGGA=      F    non-selfconsistent MetaGGA calc.

 Electronic Relaxation 1
   ENCUT  =  800.0 eV  58.80 Ry    7.67 a.u.  11.38 11.38 30.59*2*pi/ulx,y,z
   ENINI  =  800.0     initial cutoff
   ENAUG  =  644.9 eV  augmentation charge cutoff
   NELM   =    200;   NELMIN=  2; NELMDL=  0     # of ELM steps 
   EDIFF  = 0.1E-07   stopping-criterion for ELM
   LREAL  =      F    real-space projection
   NLSPLINE    = F    spline interpolate recip. space projectors
   LCOMPAT=      F    compatible to vasp.4.4
   GGA_COMPAT  = T    GGA compatible to vasp.4.4-vasp.4.6
   LMAXPAW     = -100 max onsite density
   LMAXMIX     =    2 max onsite mixed and CHGCAR
   VOSKOWN=      0    Vosko Wilk Nusair interpolation
   ROPT   =    0.00000
 Ionic relaxation
   EDIFFG = 0.1E-02   stopping-criterion for IOM
   NSW    =      0    number of steps for IOM
   NBLOCK =      1;   KBLOCK =      1    inner block; outer block 
   IBRION =     -1    ionic relax: 0-MD 1-quasi-New 2-CG
   NFREE  =      0    steps in history (QN), initial steepest desc. (CG)
   ISIF   =      2    stress and relaxation
   IWAVPR =     10    prediction:  0-non 1-charg 2-wave 3-comb
   ISYM   =      2    0-nonsym 1-usesym 2-fastsym
   LCORR  =      T    Harris-Foulkes like correction to forces

   POTIM  = 0.5000    time-step for ionic-motion
   TEIN   =    0.0    initial temperature
   TEBEG  =    0.0;   TEEND  =   0.0 temperature during run
   SMASS  =  -3.00    Nose mass-parameter (am)
   estimated Nose-frequenzy (Omega)   =  0.10E-29 period in steps =****** mass=  -0.556E-27a.u.
   SCALEE = 1.0000    scale energy and forces
   NPACO  =    256;   APACO  = 16.0  distance and # of slots for P.C.
   PSTRESS=    0.0 pullay stress

  Mass of Ions in am
   POMASS =  12.01
  Ionic Valenz
   ZVAL   =   4.00
  Atomic Wigner-Seitz radii
   RWIGS  =  -1.00
  virtual crystal weights 
   VCA    =   1.00
   NELECT =     128.0000    total number of electrons
   NUPDOWN=      -1.0000    fix difference up-down

 DOS related values:
   EMIN   =  10.00;   EMAX   =-10.00  energy-range for DOS
   EFERMI =   0.00
   ISMEAR =    -5;   SIGMA  =   0.20  broadening in eV -4-tet -1-fermi 0-gaus

 Electronic relaxation 2 (details)
   IALGO  =     38    algorithm
   LDIAG  =      T    sub-space diagonalisation (order eigenvalues)
   LSUBROT=      F    optimize rotation matrix (better conditioning)
   TURBO    =      0    0=normal 1=particle mesh
   IRESTART =      0    0=no restart 2=restart with 2 vectors
   NREBOOT  =      0    no. of reboots
   NMIN     =      0    reboot dimension
   EREF     =   0.00    reference energy to select bands
   IMIX   =      4    mixing-type and parameters
     AMIX     =   0.40;   BMIX     =  1.00
     AMIX_MAG =   1.60;   BMIX_MAG =  1.00
     AMIN     =   0.10
     WC   =   100.;   INIMIX=   1;  MIXPRE=   1;  MAXMIX= -45

 Intra band minimization:
   WEIMIN = 0.0000     energy-eigenvalue tresh-hold
   EBREAK =  0.30E-10  absolut break condition
   DEPER  =   0.30     relativ break condition  

   TIME   =   0.40     timestep for ELM

  volume/ion in A,a.u.               =       8.73        58.92
  Fermi-wavevector in a.u.,A,eV,Ry     =   1.262061  2.384949 21.671322  1.592797
  Thomas-Fermi vector in A             =   2.395488
 
 Write flags
   LWAVE  =      F    write WAVECAR
   LCHARG =      F    write CHGCAR
   LVTOT  =      F    write LOCPOT, total local potential
   LVHAR  =      F    write LOCPOT, Hartree potential only
   LELF   =      F    write electronic localiz. function (ELF)
   LORBIT =      0    0 simple, 1 ext, 2 COOP (PROOUT)


 Dipole corrections
   LMONO  =      F    monopole corrections only (constant potential shift)
   LDIPOL =      F    correct potential (dipole corrections)
   IDIPOL =      0    1-x, 2-y, 3-z, 4-all directions 
   EPSILON=  1.0000000 bulk dielectric constant

 Exchange correlation treatment:
   GGA     =    PE    GGA type
   LEXCH   =     8    internal setting for exchange type
   VOSKOWN=      0    Vosko Wilk Nusair interpolation
   LHFCALC =     F    Hartree Fock is set to
   LHFONE  =     F    Hartree Fock one center treatment
   AEXX    =    0.0000 exact exchange contribution

 Linear response parameters
   LEPSILON=     F    determine dielectric tensor
   LRPA    =     F    only Hartree local field effects (RPA)
   LNABLA  =     F    use nabla operator in PAW spheres
   LVEL    =     F    velocity operator in full k-point grid
   LINTERFAST=   F  fast interpolation
   KINTER  =     0    interpolate to denser k-point grid
   CSHIFT  =0.1000    complex shift for real part using Kramers Kronig
   OMEGAMAX=  -1.0    maximum frequency
   DEG_THRESHOLD= 0.2000000E-02 threshold for treating states as degnerate
   RTIME   =    0.100 relaxation time in fs

 Orbital magnetization related:
   ORBITALMAG=     F  switch on orbital magnetization
   LCHIMAG   =     F  perturbation theory with respect to B field
   DQ        =  0.001000  dq finite difference perturbation B field



--------------------------------------------------------------------------------------------------------


 Static calculation
 charge density and potential will be updated during run
 non-spin polarized calculation
 Variant of blocked Davidson
 Davidson routine will perform the subspace rotation
 perform sub-space diagonalisation
    after iterative eigenvector-optimisation
 modified Broyden-mixing scheme, WC =      100.0
 initial mixing is a Kerker type mixing with AMIX =  0.4000 and BMIX =      1.0000
 Hartree-type preconditioning will be used
 using additional bands           20
 reciprocal scheme for non local part
 calculate Harris-corrections to forces 
   (improved forces if not selfconsistent)
 use gradient corrections 
 use of overlap-Matrix (Vanderbilt PP)
 Fermi weights with tetrahedron method with Bloechl corrections


--------------------------------------------------------------------------------------------------------


  energy-cutoff  :      800.00
  volume of cell :      279.38
      direct lattice vectors                 reciprocal lattice vectors
     4.932874498 -0.001919286  0.000000000     0.202767147  0.117172881  0.000000000
    -2.468099399  4.271034986  0.000000000     0.000091118  0.234187941  0.000000000
     0.000000000  0.000000000 13.263501456     0.000000000  0.000000000  0.075394872

  length of vectors
     4.932874871  4.932874871 13.263501456     0.234187958  0.234187958  0.075394872


 
 k-points in units of 2pi/SCALE and weight: B4C B11C-CBC                            
   0.00000000  0.00000000  0.00000000       0.007
   0.03379452  0.01952881  0.00000000       0.014
   0.06758905  0.03905763  0.00000000       0.014
   0.10138357  0.05858644  0.00000000       0.007
   0.00001519  0.03903132  0.00000000       0.014
   0.03380971  0.05856014  0.00000000       0.014
   0.06760424  0.07808895  0.00000000       0.014
   0.10139876  0.09761776  0.00000000       0.014
  -0.06757386 -0.00002630  0.00000000       0.014
  -0.03377934  0.01950251  0.00000000       0.014
   0.00003037  0.07806265  0.00000000       0.014
   0.03382490  0.09759146  0.00000000       0.014
   0.06761942  0.11712027  0.00000000       0.014
   0.10141395  0.13664909  0.00000000       0.014
  -0.06755868  0.03900502  0.00000000       0.014
  -0.03376415  0.05853383  0.00000000       0.014
   0.00004556  0.11709397  0.00000000       0.007
   0.03384008  0.13662278  0.00000000       0.014
   0.06763461  0.15615160  0.00000000       0.014
   0.10142913  0.17568041  0.00000000       0.007
   0.00000000  0.00000000  0.01884872       0.014
   0.03379452  0.01952881  0.01884872       0.014
   0.06758905  0.03905763  0.01884872       0.014
   0.10138357  0.05858644  0.01884872       0.014
  -0.06758905 -0.03905763  0.01884872       0.014
  -0.03379452 -0.01952881  0.01884872       0.014
   0.00001519  0.03903132  0.01884872       0.014
   0.03380971  0.05856014  0.01884872       0.014
   0.06760424  0.07808895  0.01884872       0.014
   0.10139876  0.09761776  0.01884872       0.014
  -0.06757386 -0.00002630  0.01884872       0.014
  -0.03377934  0.01950251  0.01884872       0.014
   0.00003037  0.07806265  0.01884872       0.014
   0.03382490  0.09759146  0.01884872       0.014
   0.06761942  0.11712027  0.01884872       0.014
   0.10141395  0.13664909  0.01884872       0.014
  -0.06755868  0.03900502  0.01884872       0.014
  -0.03376415  0.05853383  0.01884872       0.014
   0.00004556  0.11709397  0.01884872       0.014
   0.03384008  0.13662278  0.01884872       0.014
   0.06763461  0.15615160  0.01884872       0.014
   0.10142913  0.17568041  0.01884872       0.014
  -0.06754349  0.07803634  0.01884872       0.014
  -0.03374897  0.09756516  0.01884872       0.014
  -0.00003037 -0.07806265  0.01884872       0.014
   0.03376415 -0.05853383  0.01884872       0.014
   0.06755868 -0.03900502  0.01884872       0.014
   0.10135320 -0.01947621  0.01884872       0.014
  -0.06761942 -0.11712027  0.01884872       0.014
  -0.03382490 -0.09759146  0.01884872       0.014
  -0.00001519 -0.03903132  0.01884872       0.014
   0.03377934 -0.01950251  0.01884872       0.014
   0.06757386  0.00002630  0.01884872       0.014
   0.10136839  0.01955512  0.01884872       0.014
  -0.06760424 -0.07808895  0.01884872       0.014
  -0.03380971 -0.05856014  0.01884872       0.014
   0.00000000  0.00000000  0.03769744       0.007
   0.03379452  0.01952881  0.03769744       0.014
   0.06758905  0.03905763  0.03769744       0.014
   0.10138357  0.05858644  0.03769744       0.007
   0.00001519  0.03903132  0.03769744       0.014
   0.03380971  0.05856014  0.03769744       0.014
   0.06760424  0.07808895  0.03769744       0.014
   0.10139876  0.09761776  0.03769744       0.014
  -0.06757386 -0.00002630  0.03769744       0.014
  -0.03377934  0.01950251  0.03769744       0.014
   0.00003037  0.07806265  0.03769744       0.014
   0.03382490  0.09759146  0.03769744       0.014
   0.06761942  0.11712027  0.03769744       0.014
   0.10141395  0.13664909  0.03769744       0.014
  -0.06755868  0.03900502  0.03769744       0.014
  -0.03376415  0.05853383  0.03769744       0.014
   0.00004556  0.11709397  0.03769744       0.007
   0.03384008  0.13662278  0.03769744       0.014
   0.06763461  0.15615160  0.03769744       0.014
   0.10142913  0.17568041  0.03769744       0.007
 
 k-points in reciprocal lattice and weights: B4C B11C-CBC                            
   0.00000000  0.00000000  0.00000000       0.007
   0.16666667  0.00000000  0.00000000       0.014
   0.33333333  0.00000000  0.00000000       0.014
   0.50000000  0.00000000  0.00000000       0.007
   0.00000000  0.16666667  0.00000000       0.014
   0.16666667  0.16666667  0.00000000       0.014
   0.33333333  0.16666667  0.00000000       0.014
   0.50000000  0.16666667  0.00000000       0.014
  -0.33333333  0.16666667  0.00000000       0.014
  -0.16666667  0.16666667  0.00000000       0.014
  -0.00000000  0.33333333  0.00000000       0.014
   0.16666667  0.33333333  0.00000000       0.014
   0.33333333  0.33333333  0.00000000       0.014
   0.50000000  0.33333333  0.00000000       0.014
  -0.33333333  0.33333333  0.00000000       0.014
  -0.16666667  0.33333333  0.00000000       0.014
   0.00000000  0.50000000  0.00000000       0.007
   0.16666667  0.50000000  0.00000000       0.014
   0.33333333  0.50000000  0.00000000       0.014
   0.50000000  0.50000000  0.00000000       0.007
   0.00000000  0.00000000  0.25000000       0.014
   0.16666667  0.00000000  0.25000000       0.014
   0.33333333  0.00000000  0.25000000       0.014
   0.50000000  0.00000000  0.25000000       0.014
  -0.33333333  0.00000000  0.25000000       0.014
  -0.16666667  0.00000000  0.25000000       0.014
   0.00000000  0.16666667  0.25000000       0.014
   0.16666667  0.16666667  0.25000000       0.014
   0.33333333  0.16666667  0.25000000       0.014
   0.50000000  0.16666667  0.25000000       0.014
  -0.33333333  0.16666667  0.25000000       0.014
  -0.16666667  0.16666667  0.25000000       0.014
  -0.00000000  0.33333333  0.25000000       0.014
   0.16666667  0.33333333  0.25000000       0.014
   0.33333333  0.33333333  0.25000000       0.014
   0.50000000  0.33333333  0.25000000       0.014
  -0.33333333  0.33333333  0.25000000       0.014
  -0.16666667  0.33333333  0.25000000       0.014
   0.00000000  0.50000000  0.25000000       0.014
   0.16666667  0.50000000  0.25000000       0.014
   0.33333333  0.50000000  0.25000000       0.014
   0.50000000  0.50000000  0.25000000       0.014
  -0.33333333  0.50000000  0.25000000       0.014
  -0.16666667  0.50000000  0.25000000       0.014
   0.00000000 -0.33333333  0.25000000       0.014
   0.16666667 -0.33333333  0.25000000       0.014
   0.33333333 -0.33333333  0.25000000       0.014
   0.50000000 -0.33333333  0.25000000       0.014
  -0.33333333 -0.33333333  0.25000000       0.014
  -0.16666667 -0.33333333  0.25000000       0.014
   0.00000000 -0.16666667  0.25000000       0.014
   0.16666667 -0.16666667  0.25000000       0.014
   0.33333333 -0.16666667  0.25000000       0.014
   0.50000000 -0.16666667  0.25000000       0.014
  -0.33333333 -0.16666667  0.25000000       0.014
  -0.16666667 -0.16666667  0.25000000       0.014
   0.00000000  0.00000000  0.50000000       0.007
   0.16666667  0.00000000  0.50000000       0.014
   0.33333333  0.00000000  0.50000000       0.014
   0.50000000  0.00000000  0.50000000       0.007
   0.00000000  0.16666667  0.50000000       0.014
   0.16666667  0.16666667  0.50000000       0.014
   0.33333333  0.16666667  0.50000000       0.014
   0.50000000  0.16666667  0.50000000       0.014
  -0.33333333  0.16666667  0.50000000       0.014
  -0.16666667  0.16666667  0.50000000       0.014
  -0.00000000  0.33333333  0.50000000       0.014
   0.16666667  0.33333333  0.50000000       0.014
   0.33333333  0.33333333  0.50000000       0.014
   0.50000000  0.33333333  0.50000000       0.014
  -0.33333333  0.33333333  0.50000000       0.014
  -0.16666667  0.33333333  0.50000000       0.014
   0.00000000  0.50000000  0.50000000       0.007
   0.16666667  0.50000000  0.50000000       0.014
   0.33333333  0.50000000  0.50000000       0.014
   0.50000000  0.50000000  0.50000000       0.007
 
 position of ions in fractional coordinates (direct lattice) 
   0.49967330  0.00032672  0.12500000
   0.99967330  0.00032672  0.12500000
   0.49967330  0.50032672  0.12500000
   0.99967330  0.50032672  0.12500000
   0.49967330  0.00032672  0.62500000
   0.99967330  0.00032672  0.62500000
   0.49967330  0.50032672  0.62500000
   0.99967330  0.50032672  0.62500000
   0.00032672  0.49967330  0.37500000
   0.50032672  0.49967330  0.37500000
   0.00032672  0.99967330  0.37500000
   0.50032672  0.99967330  0.37500000
   0.00032672  0.49967330  0.87500000
   0.50032672  0.49967330  0.87500000
   0.00032672  0.99967330  0.87500000
   0.50032672  0.99967330  0.87500000
   0.16558580  0.33370753  0.12429334
   0.66629246  0.33370753  0.12500000
   0.16629246  0.83370753  0.12500000
   0.66629246  0.83370753  0.12500000
   0.16629246  0.33370753  0.62500000
   0.66629246  0.33370753  0.62500000
   0.16629246  0.83370753  0.62500000
   0.66629246  0.83370753  0.62500000
   0.33370753  0.16629246  0.37500000
   0.83370753  0.16629246  0.37500000
   0.33370753  0.66629246  0.37500000
   0.83370753  0.66629246  0.37500000
   0.33370753  0.16629246  0.87500000
   0.83370753  0.16629246  0.87500000
   0.33370753  0.66629246  0.87500000
   0.83370753  0.66629246  0.87500000
 
 position of ions in cartesian coordinates  (Angst):
   2.46401933  0.00043641  1.65793768
   4.93045658 -0.00052323  1.65793768
   1.22996963  2.13595390  1.65793768
   3.69640688  2.13499426  1.65793768
   2.46401933  0.00043641  8.28968841
   4.93045658 -0.00052323  8.28968841
   1.22996963  2.13595390  8.28968841
   3.69640688  2.13499426  8.28968841
  -1.23163172  2.13412154  4.97381305
   1.23480553  2.13316189  4.97381305
  -2.46568142  4.26963903  4.97381305
   0.00075583  4.26867939  4.97381305
  -1.23163172  2.13412154 11.60556377
   1.23480553  2.13316189 11.60556377
  -2.46568142  4.26963903 11.60556377
   0.00075583  4.26867939 11.60556377
  -0.00680936  1.42495872  1.64856491
   2.46311374  1.42399773  1.65793768
  -1.23737320  3.56047486  1.65793768
   1.22906405  3.55951522  1.65793768
  -0.00332350  1.42495737  8.28968841
   2.46311374  1.42399773  8.28968841
  -1.23737320  3.56047486  8.28968841
   1.22906405  3.55951522  8.28968841
   1.23571103  0.70960044  4.97381305
   3.70214828  0.70864080  4.97381305
   0.00166133  2.84511794  4.97381305
   2.46809858  2.84415829  4.97381305
   1.23571103  0.70960044 11.60556377
   3.70214828  0.70864080 11.60556377
   0.00166133  2.84511794 11.60556377
   2.46809858  2.84415829 11.60556377
 


--------------------------------------------------------------------------------------------------------


 k-point  1 :   0.0000 0.0000 0.0000  plane waves:   14397
 k-point  2 :   0.1667 0.0000 0.0000  plane waves:   14412
 k-point  3 :   0.3333 0.0000 0.0000  plane waves:   14336
 k-point  4 :   0.5000 0.0000 0.0000  plane waves:   14344
 k-point  5 :   0.0000 0.1667 0.0000  plane waves:   14412
 k-point  6 :   0.1667 0.1667 0.0000  plane waves:   14359
 k-point  7 :   0.3333 0.1667 0.0000  plane waves:   14337
 k-point  8 :   0.5000 0.1667 0.0000  plane waves:   14341
 k-point  9 :  -0.3333 0.1667 0.0000  plane waves:   14361
 k-point 10 :  -0.1667 0.1667 0.0000  plane waves:   14420
 k-point 11 :  -0.0000 0.3333 0.0000  plane waves:   14336
 k-point 12 :   0.1667 0.3333 0.0000  plane waves:   14337
 k-point 13 :   0.3333 0.3333 0.0000  plane waves:   14346
 k-point 14 :   0.5000 0.3333 0.0000  plane waves:   14341
 k-point 15 :  -0.3333 0.3333 0.0000  plane waves:   14332
 k-point 16 :  -0.1667 0.3333 0.0000  plane waves:   14361
 k-point 17 :   0.0000 0.5000 0.0000  plane waves:   14344
 k-point 18 :   0.1667 0.5000 0.0000  plane waves:   14341
 k-point 19 :   0.3333 0.5000 0.0000  plane waves:   14341
 k-point 20 :   0.5000 0.5000 0.0000  plane waves:   14344
 k-point 21 :   0.0000 0.0000 0.2500  plane waves:   14337
 k-point 22 :   0.1667 0.0000 0.2500  plane waves:   14380
 k-point 23 :   0.3333 0.0000 0.2500  plane waves:   14356
 k-point 24 :   0.5000 0.0000 0.2500  plane waves:   14360
 k-point 25 :  -0.3333 0.0000 0.2500  plane waves:   14356
 k-point 26 :  -0.1667 0.0000 0.2500  plane waves:   14380
 k-point 27 :   0.0000 0.1667 0.2500  plane waves:   14380
 k-point 28 :   0.1667 0.1667 0.2500  plane waves:   14364
 k-point 29 :   0.3333 0.1667 0.2500  plane waves:   14329
 k-point 30 :   0.5000 0.1667 0.2500  plane waves:   14332
 k-point 31 :  -0.3333 0.1667 0.2500  plane waves:   14359
 k-point 32 :  -0.1667 0.1667 0.2500  plane waves:   14379
 k-point 33 :  -0.0000 0.3333 0.2500  plane waves:   14356
 k-point 34 :   0.1667 0.3333 0.2500  plane waves:   14329
 k-point 35 :   0.3333 0.3333 0.2500  plane waves:   14333
 k-point 36 :   0.5000 0.3333 0.2500  plane waves:   14326
 k-point 37 :  -0.3333 0.3333 0.2500  plane waves:   14359
 k-point 38 :  -0.1667 0.3333 0.2500  plane waves:   14359
 k-point 39 :   0.0000 0.5000 0.2500  plane waves:   14360
 k-point 40 :   0.1667 0.5000 0.2500  plane waves:   14332
 k-point 41 :   0.3333 0.5000 0.2500  plane waves:   14326
 k-point 42 :   0.5000 0.5000 0.2500  plane waves:   14352
 k-point 43 :  -0.3333 0.5000 0.2500  plane waves:   14326
 k-point 44 :  -0.1667 0.5000 0.2500  plane waves:   14332
 k-point 45 :   0.0000-0.3333 0.2500  plane waves:   14356
 k-point 46 :   0.1667-0.3333 0.2500  plane waves:   14359
 k-point 47 :   0.3333-0.3333 0.2500  plane waves:   14359
 k-point 48 :   0.5000-0.3333 0.2500  plane waves:   14326
 k-point 49 :  -0.3333-0.3333 0.2500  plane waves:   14333
 k-point 50 :  -0.1667-0.3333 0.2500  plane waves:   14329
 k-point 51 :   0.0000-0.1667 0.2500  plane waves:   14380
 k-point 52 :   0.1667-0.1667 0.2500  plane waves:   14379
 k-point 53 :   0.3333-0.1667 0.2500  plane waves:   14359
 k-point 54 :   0.5000-0.1667 0.2500  plane waves:   14332
 k-point 55 :  -0.3333-0.1667 0.2500  plane waves:   14329
 k-point 56 :  -0.1667-0.1667 0.2500  plane waves:   14364
 k-point 57 :   0.0000 0.0000 0.5000  plane waves:   14362
 k-point 58 :   0.1667 0.0000 0.5000  plane waves:   14368
 k-point 59 :   0.3333 0.0000 0.5000  plane waves:   14348
 k-point 60 :   0.5000 0.0000 0.5000  plane waves:   14348
 k-point 61 :   0.0000 0.1667 0.5000  plane waves:   14368
 k-point 62 :   0.1667 0.1667 0.5000  plane waves:   14370
 k-point 63 :   0.3333 0.1667 0.5000  plane waves:   14344
 k-point 64 :   0.5000 0.1667 0.5000  plane waves:   14346
 k-point 65 :  -0.3333 0.1667 0.5000  plane waves:   14366
 k-point 66 :  -0.1667 0.1667 0.5000  plane waves:   14366
 k-point 67 :  -0.0000 0.3333 0.5000  plane waves:   14348
 k-point 68 :   0.1667 0.3333 0.5000  plane waves:   14344
 k-point 69 :   0.3333 0.3333 0.5000  plane waves:   14326
 k-point 70 :   0.5000 0.3333 0.5000  plane waves:   14348
 k-point 71 :  -0.3333 0.3333 0.5000  plane waves:   14350
 k-point 72 :  -0.1667 0.3333 0.5000  plane waves:   14366
 k-point 73 :   0.0000 0.5000 0.5000  plane waves:   14348
 k-point 74 :   0.1667 0.5000 0.5000  plane waves:   14346
 k-point 75 :   0.3333 0.5000 0.5000  plane waves:   14348
 k-point 76 :   0.5000 0.5000 0.5000  plane waves:   14360

 maximum and minimum number of plane-waves per node :     14420    14326

 maximum number of plane-waves:     14420
 maximum index in each direction: 
   IXMAX=   11   IYMAX=   11   IZMAX=   30
   IXMIN=  -11   IYMIN=  -11   IZMIN=  -31

 NGX is ok and might be reduce to  46
 NGY is ok and might be reduce to  46
 NGZ is ok and might be reduce to 124

 serial   3D FFT for wavefunctions
 parallel 3D FFT for charge:
    minimum data exchange during FFTs selected (reduces bandwidth)


 total amount of memory used by VASP on root node   402160. kBytes
========================================================================

   base      :      30000. kBytes
   nonl-proj :      77543. kBytes
   fftplans  :      14247. kBytes
   grid      :      30326. kBytes
   one-center:         98. kBytes
   wavefun   :     249946. kBytes
 
     INWAV:  cpu time    0.00: real time    0.00
 Broyden mixing: mesh for mixing (old mesh)
   NGX = 23   NGY = 23   NGZ = 61
  (NGX  = 96   NGY  = 96   NGZ  =252)
  gives a total of  32269 points

 initial charge density was supplied:
 charge density of overlapping atoms calculated
 number of electron     128.0000000 magnetization 
 keeping initial charge density in first step


--------------------------------------------------------------------------------------------------------


 Maximum index for augmentation-charges         2006 (set IRDMAX)


--------------------------------------------------------------------------------------------------------


 First call to EWALD:  gamma=   0.271
 Maximum number of real-space cells 4x 4x 2
 Maximum number of reciprocal cells 2x 2x 5

 FEWALD executed in parallel
    FEWALD:  cpu time    0.02: real time    0.05


----------------------------------------- Iteration    1(   1)  ---------------------------------------


    POTLOK:  cpu time    1.31: real time    2.61
    SETDIJ:  cpu time    0.04: real time    0.07
     EDDAV:  cpu time  235.98: real time  472.19
 BZINTS: Fermi energy: 17.369431;128.000000 electrons
         Band energy: 182.632778;  BLOECHL correction: -0.122278
       DOS:  cpu time    0.10: real time    0.19
    --------------------------------------------
      LOOP:  cpu time  237.43: real time  475.09

 eigenvalue-minimisations  : 12768
 total energy-change (2. order) : 0.7022490E+03  (-0.8419840E+04)
 number of electron     128.0000000 magnetization 
 augmentation part      128.0000000 magnetization 

 Free energy of the ion-electron system (eV)
  ---------------------------------------------------
  alpha Z        PSCENC =       298.64697712
  Ewald energy   TEWEN  =     -3743.02484786
  -Hartree energ DENC   =     -1151.40087297
  -exchange      EXHF   =         0.00000000
  -V(xc)+E(xc)   XCENC  =       443.26880668
  PAW double counting   =      1210.60617908    -1247.42152856
  entropy T*S    EENTRO =         0.00000000
  eigenvalues    EBANDS =       182.63277796
  atomic energy  EATOM  =      4708.94155045
  ---------------------------------------------------
  free energy    TOTEN  =       702.24904190 eV

  energy without entropy =      702.24904190  energy(sigma->0) =      702.24904190


--------------------------------------------------------------------------------------------------------




----------------------------------------- Iteration    1(   2)  ---------------------------------------


     EDDAV:  cpu time  270.54: real time  541.28
 BZINTS: Fermi energy:  4.096055;128.000000 electrons
         Band energy:-774.470715;  BLOECHL correction: -0.004807
       DOS:  cpu time    0.07: real time    0.15
    --------------------------------------------
      LOOP:  cpu time  270.61: real time  541.44

 eigenvalue-minimisations  : 15840
 total energy-change (2. order) :-0.9571035E+03  (-0.9217110E+03)
 number of electron     128.0000000 magnetization 
 augmentation part      128.0000000 magnetization 

 Free energy of the ion-electron system (eV)
  ---------------------------------------------------
  alpha Z        PSCENC =       298.64697712
  Ewald energy   TEWEN  =     -3743.02484786
  -Hartree energ DENC   =     -1151.40087297
  -exchange      EXHF   =         0.00000000
  -V(xc)+E(xc)   XCENC  =       443.26880668
  PAW double counting   =      1210.60617908    -1247.42152856
  entropy T*S    EENTRO =         0.00000000
  eigenvalues    EBANDS =      -774.47071456
  atomic energy  EATOM  =      4708.94155045
  ---------------------------------------------------
  free energy    TOTEN  =      -254.85445062 eV

  energy without entropy =     -254.85445062  energy(sigma->0) =     -254.85445062


--------------------------------------------------------------------------------------------------------




----------------------------------------- Iteration    1(   3)  ---------------------------------------


     EDDAV:  cpu time  268.98: real time  538.18
 BZINTS: Fermi energy:  3.321945;128.000000 electrons
         Band energy:-832.073133;  BLOECHL correction: -0.000080
       DOS:  cpu time    0.07: real time    0.13
    --------------------------------------------
      LOOP:  cpu time  269.06: real time  538.35

 eigenvalue-minimisations  : 15516
 total energy-change (2. order) :-0.5760242E+02  (-0.5697592E+02)
 number of electron     128.0000000 magnetization 
 augmentation part      128.0000000 magnetization 

 Free energy of the ion-electron system (eV)
  ---------------------------------------------------
  alpha Z        PSCENC =       298.64697712
  Ewald energy   TEWEN  =     -3743.02484786
  -Hartree energ DENC   =     -1151.40087297
  -exchange      EXHF   =         0.00000000
  -V(xc)+E(xc)   XCENC  =       443.26880668
  PAW double counting   =      1210.60617908    -1247.42152856
  entropy T*S    EENTRO =         0.00000000
  eigenvalues    EBANDS =      -832.07313299
  atomic energy  EATOM  =      4708.94155045
  ---------------------------------------------------
  free energy    TOTEN  =      -312.45686904 eV

  energy without entropy =     -312.45686904  energy(sigma->0) =     -312.45686904


--------------------------------------------------------------------------------------------------------




----------------------------------------- Iteration    1(   4)  ---------------------------------------


     EDDAV:  cpu time  269.84: real time  539.95
 BZINTS: Fermi energy:  3.311848;128.000000 electrons
         Band energy:-833.201819;  BLOECHL correction:  0.000000
       DOS:  cpu time    0.03: real time    0.06
    --------------------------------------------
      LOOP:  cpu time  269.89: real time  540.05

 eigenvalue-minimisations  : 15948
 total energy-change (2. order) :-0.1128686E+01  (-0.1126349E+01)
 number of electron     128.0000000 magnetization 
 augmentation part      128.0000000 magnetization 

 Free energy of the ion-electron system (eV)
  ---------------------------------------------------
  alpha Z        PSCENC =       298.64697712
  Ewald energy   TEWEN  =     -3743.02484786
  -Hartree energ DENC   =     -1151.40087297
  -exchange      EXHF   =         0.00000000
  -V(xc)+E(xc)   XCENC  =       443.26880668
  PAW double counting   =      1210.60617908    -1247.42152856
  entropy T*S    EENTRO =         0.00000000
  eigenvalues    EBANDS =      -833.20181916
  atomic energy  EATOM  =      4708.94155045
  ---------------------------------------------------
  free energy    TOTEN  =      -313.58555522 eV

  energy without entropy =     -313.58555522  energy(sigma->0) =     -313.58555522


--------------------------------------------------------------------------------------------------------




----------------------------------------- Iteration    1(   5)  ---------------------------------------


     EDDAV:  cpu time  275.14: real time  550.58
 BZINTS: Fermi energy:  3.312742;128.000000 electrons
         Band energy:-833.234935;  BLOECHL correction:  0.000000
       DOS:  cpu time    0.03: real time    0.07
    CHARGE:  cpu time    6.49: real time   12.98
    MIXING:  cpu time    0.05: real time    0.10
    --------------------------------------------
      LOOP:  cpu time  281.72: real time  563.78

 eigenvalue-minimisations  : 16380
 total energy-change (2. order) :-0.3311614E-01  (-0.3310404E-01)
 number of electron     127.9999989 magnetization 
 augmentation part        3.3910238 magnetization 

 Broyden mixing:
  rms(total) = 0.22082E+01    rms(broyden)= 0.22082E+01
  rms(prec ) = 0.26163E+01
  weight for this iteration     100.00

 Free energy of the ion-electron system (eV)
  ---------------------------------------------------
  alpha Z        PSCENC =       298.64697712
  Ewald energy   TEWEN  =     -3743.02484786
  -Hartree energ DENC   =     -1151.40087297
  -exchange      EXHF   =         0.00000000
  -V(xc)+E(xc)   XCENC  =       443.26880668
  PAW double counting   =      1210.60617908    -1247.42152856
  entropy T*S    EENTRO =         0.00000000
  eigenvalues    EBANDS =      -833.23493530
  atomic energy  EATOM  =      4708.94155045
  ---------------------------------------------------
  free energy    TOTEN  =      -313.61867135 eV

  energy without entropy =     -313.61867135  energy(sigma->0) =     -313.61867135


--------------------------------------------------------------------------------------------------------




----------------------------------------- Iteration    1(   6)  ---------------------------------------


    POTLOK:  cpu time    1.07: real time    2.14
    SETDIJ:  cpu time    0.03: real time    0.06
     EDDAV:  cpu time  253.69: real time  507.63
 BZINTS: Fermi energy:  4.056483;128.000000 electrons
         Band energy:-694.793614;  BLOECHL correction:  0.000000
       DOS:  cpu time    0.03: real time    0.07
    CHARGE:  cpu time    6.68: real time   13.36
    MIXING:  cpu time    0.07: real time    0.13
    --------------------------------------------
      LOOP:  cpu time  261.57: real time  523.39

 eigenvalue-minimisations  : 14592
 total energy-change (2. order) : 0.1437355E+02  (-0.1482556E+01)
 number of electron     127.9999989 magnetization 
 augmentation part        3.2357401 magnetization 

 Broyden mixing:
  rms(total) = 0.11584E+01    rms(broyden)= 0.11584E+01
  rms(prec ) = 0.13625E+01
  weight for this iteration     100.00

 eigenvalues of (default mixing * dielectric matrix)
  average eigenvalue GAMMA=   2.0347
  2.0347

 Free energy of the ion-electron system (eV)
  ---------------------------------------------------
  alpha Z        PSCENC =       298.64697712
  Ewald energy   TEWEN  =     -3743.02484786
  -Hartree energ DENC   =     -1280.93652442
  -exchange      EXHF   =         0.00000000
  -V(xc)+E(xc)   XCENC  =       451.61620088
  PAW double counting   =      1641.69175970    -1681.38662163
  entropy T*S    EENTRO =         0.00000000
  eigenvalues    EBANDS =      -694.79361384
  atomic energy  EATOM  =      4708.94155045
  ---------------------------------------------------
  free energy    TOTEN  =      -299.24511959 eV

  energy without entropy =     -299.24511959  energy(sigma->0) =     -299.24511959


--------------------------------------------------------------------------------------------------------




----------------------------------------- Iteration    1(   7)  ---------------------------------------


    POTLOK:  cpu time    0.98: real time    1.95
    SETDIJ:  cpu time    0.03: real time    0.06
     EDDAV:  cpu time  253.60: real time  507.43
 BZINTS: Fermi energy:  4.781368;128.000000 electrons
         Band energy:-553.760289;  BLOECHL correction:  0.000000
       DOS:  cpu time    0.04: real time    0.08
    CHARGE:  cpu time    7.41: real time   14.85
    MIXING:  cpu time    0.04: real time    0.09
    --------------------------------------------
      LOOP:  cpu time  262.12: real time  524.50

 eigenvalue-minimisations  : 14532
 total energy-change (2. order) : 0.4542302E+01  (-0.1555669E+01)
 number of electron     127.9999990 magnetization 
 augmentation part        3.0708403 magnetization 

 Broyden mixing:
  rms(total) = 0.19552E+00    rms(broyden)= 0.19551E+00
  rms(prec ) = 0.21405E+00
  weight for this iteration     100.00

 eigenvalues of (default mixing * dielectric matrix)
  average eigenvalue GAMMA=   2.0722
  2.0722  2.0722

 Free energy of the ion-electron system (eV)
  ---------------------------------------------------
  alpha Z        PSCENC =       298.64697712
  Ewald energy   TEWEN  =     -3743.02484786
  -Hartree energ DENC   =     -1424.58285147
  -exchange      EXHF   =         0.00000000
  -V(xc)+E(xc)   XCENC  =       461.10745637
  PAW double counting   =      2180.06757834    -2222.09839196
  entropy T*S    EENTRO =         0.00000000
  eigenvalues    EBANDS =      -553.76028894
  atomic energy  EATOM  =      4708.94155045
  ---------------------------------------------------
  free energy    TOTEN  =      -294.70281795 eV

  energy without entropy =     -294.70281795  energy(sigma->0) =     -294.70281795


--------------------------------------------------------------------------------------------------------




----------------------------------------- Iteration    1(   8)  ---------------------------------------


    POTLOK:  cpu time    1.08: real time    2.14
    SETDIJ:  cpu time    0.02: real time    0.05
     EDDAV:  cpu time  261.83: real time  523.92
 BZINTS: Fermi energy:  4.751525;128.000000 electrons
         Band energy:-556.142293;  BLOECHL correction:  0.000000
       DOS:  cpu time    0.03: real time    0.05
    CHARGE:  cpu time    6.66: real time   13.33
    MIXING:  cpu time    0.02: real time    0.04
    --------------------------------------------
      LOOP:  cpu time  269.64: real time  539.54

 eigenvalue-minimisations  : 15024
 total energy-change (2. order) :-0.6886652E-01  (-0.7367632E-01)
 number of electron     127.9999990 magnetization 
 augmentation part        3.0646601 magnetization 

 Broyden mixing:
  rms(total) = 0.81332E-01    rms(broyden)= 0.81330E-01
  rms(prec ) = 0.10541E+00
  weight for this iteration     100.00

 eigenvalues of (default mixing * dielectric matrix)
  average eigenvalue GAMMA=   1.6515
  2.3584  2.0395  0.5566

 Free energy of the ion-electron system (eV)
  ---------------------------------------------------
  alpha Z        PSCENC =       298.64697712
  Ewald energy   TEWEN  =     -3743.02484786
  -Hartree energ DENC   =     -1422.78711791
  -exchange      EXHF   =         0.00000000
  -V(xc)+E(xc)   XCENC  =       461.01133644
  PAW double counting   =      2205.76724582    -2247.18453507
  entropy T*S    EENTRO =         0.00000000
  eigenvalues    EBANDS =      -556.14229348
  atomic energy  EATOM  =      4708.94155045
  ---------------------------------------------------
  free energy    TOTEN  =      -294.77168448 eV

  energy without entropy =     -294.77168448  energy(sigma->0) =     -294.77168448


--------------------------------------------------------------------------------------------------------




----------------------------------------- Iteration    1(   9)  ---------------------------------------


    POTLOK:  cpu time    0.95: real time    1.91
    SETDIJ:  cpu time    0.03: real time    0.05
     EDDAV:  cpu time  260.43: real time  521.15
 BZINTS: Fermi energy:  4.755991;128.000000 electrons
         Band energy:-555.599077;  BLOECHL correction:  0.000000
       DOS:  cpu time    0.02: real time    0.04
    CHARGE:  cpu time    6.80: real time   13.61
    MIXING:  cpu time    0.04: real time    0.07
    --------------------------------------------
      LOOP:  cpu time  268.28: real time  536.85

 eigenvalue-minimisations  : 14808
 total energy-change (2. order) : 0.3877953E-02  (-0.5309541E-02)
 number of electron     127.9999990 magnetization 
 augmentation part        3.0623360 magnetization 

 Broyden mixing:
  rms(total) = 0.44480E-01    rms(broyden)= 0.44480E-01
  rms(prec ) = 0.69020E-01
  weight for this iteration     100.00

 eigenvalues of (default mixing * dielectric matrix)
  average eigenvalue GAMMA=   1.4890
  2.4109  2.0155  0.7649  0.7649

 Free energy of the ion-electron system (eV)
  ---------------------------------------------------
  alpha Z        PSCENC =       298.64697712
  Ewald energy   TEWEN  =     -3743.02484786
  -Hartree energ DENC   =     -1423.58601346
  -exchange      EXHF   =         0.00000000
  -V(xc)+E(xc)   XCENC  =       461.08086450
  PAW double counting   =      2218.73439292    -2259.96165337
  entropy T*S    EENTRO =         0.00000000
  eigenvalues    EBANDS =      -555.59907683
  atomic energy  EATOM  =      4708.94155045
  ---------------------------------------------------
  free energy    TOTEN  =      -294.76780652 eV

  energy without entropy =     -294.76780652  energy(sigma->0) =     -294.76780652


--------------------------------------------------------------------------------------------------------




----------------------------------------- Iteration    1(  10)  ---------------------------------------


    POTLOK:  cpu time    0.93: real time    1.85
    SETDIJ:  cpu time    0.03: real time    0.07
     EDDAV:  cpu time  318.17: real time  636.69
 BZINTS: Fermi energy:  4.763615;128.000000 electrons
         Band energy:-554.804061;  BLOECHL correction:  0.000000
       DOS:  cpu time    0.03: real time    0.05
    CHARGE:  cpu time    6.49: real time   12.99
    MIXING:  cpu time    0.03: real time    0.06
    --------------------------------------------
      LOOP:  cpu time  325.68: real time  651.71

 eigenvalue-minimisations  : 19896
 total energy-change (2. order) : 0.7329947E-02  (-0.4930587E-02)
 number of electron     127.9999990 magnetization 
 augmentation part        3.0618304 magnetization 

 Broyden mixing:
  rms(total) = 0.12922E-01    rms(broyden)= 0.12920E-01
  rms(prec ) = 0.18206E-01
  weight for this iteration     100.00

 eigenvalues of (default mixing * dielectric matrix)
  average eigenvalue GAMMA=   1.4595
  2.5573  1.9292  1.3709  0.7200  0.7200

 Free energy of the ion-electron system (eV)
  ---------------------------------------------------
  alpha Z        PSCENC =       298.64697712
  Ewald energy   TEWEN  =     -3743.02484786
  -Hartree energ DENC   =     -1424.43773200
  -exchange      EXHF   =         0.00000000
  -V(xc)+E(xc)   XCENC  =       461.14271325
  PAW double counting   =      2221.26992370    -2262.49500002
  entropy T*S    EENTRO =         0.00000000
  eigenvalues    EBANDS =      -554.80406121
  atomic energy  EATOM  =      4708.94155045
  ---------------------------------------------------
  free energy    TOTEN  =      -294.76047658 eV

  energy without entropy =     -294.76047658  energy(sigma->0) =     -294.76047658


--------------------------------------------------------------------------------------------------------




----------------------------------------- Iteration    1(  11)  ---------------------------------------


    POTLOK:  cpu time    0.95: real time    1.91
    SETDIJ:  cpu time    0.06: real time    0.13
     EDDAV:  cpu time  260.94: real time  522.12
 BZINTS: Fermi energy:  4.769318;128.000000 electrons
         Band energy:-553.953001;  BLOECHL correction:  0.000000
       DOS:  cpu time    0.03: real time    0.06
    CHARGE:  cpu time    6.79: real time   13.60
    MIXING:  cpu time    0.04: real time    0.07
    --------------------------------------------
      LOOP:  cpu time  268.82: real time  537.91

 eigenvalue-minimisations  : 14616
 total energy-change (2. order) :-0.9764716E-03  (-0.1141900E-02)
 number of electron     127.9999990 magnetization 
 augmentation part        3.0609152 magnetization 

 Broyden mixing:
  rms(total) = 0.10242E-01    rms(broyden)= 0.10242E-01
  rms(prec ) = 0.17132E-01
  weight for this iteration     100.00

 eigenvalues of (default mixing * dielectric matrix)
  average eigenvalue GAMMA=   1.3264
  2.5478  1.9435  1.4567  0.7669  0.7669  0.4768

 Free energy of the ion-electron system (eV)
  ---------------------------------------------------
  alpha Z        PSCENC =       298.64697712
  Ewald energy   TEWEN  =     -3743.02484786
  -Hartree energ DENC   =     -1425.35635627
  -exchange      EXHF   =         0.00000000
  -V(xc)+E(xc)   XCENC  =       461.20848894
  PAW double counting   =      2223.88048602    -2265.10475061
  entropy T*S    EENTRO =         0.00000000
  eigenvalues    EBANDS =      -553.95300084
  atomic energy  EATOM  =      4708.94155045
  ---------------------------------------------------
  free energy    TOTEN  =      -294.76145305 eV

  energy without entropy =     -294.76145305  energy(sigma->0) =     -294.76145305


--------------------------------------------------------------------------------------------------------




----------------------------------------- Iteration    1(  12)  ---------------------------------------


    POTLOK:  cpu time    1.02: real time    2.02
    SETDIJ:  cpu time    0.02: real time    0.05
     EDDAV:  cpu time  280.44: real time  561.18
 BZINTS: Fermi energy:  4.771261;128.000000 electrons
         Band energy:-553.806525;  BLOECHL correction:  0.000000
       DOS:  cpu time    0.02: real time    0.04
    CHARGE:  cpu time    6.90: real time   13.80
    MIXING:  cpu time    0.04: real time    0.09
    --------------------------------------------
      LOOP:  cpu time  288.46: real time  577.20

 eigenvalue-minimisations  : 15660
 total energy-change (2. order) :-0.2316087E-04  (-0.1210657E-03)
 number of electron     127.9999990 magnetization 
 augmentation part        3.0606309 magnetization 

 Broyden mixing:
  rms(total) = 0.92777E-02    rms(broyden)= 0.92776E-02
  rms(prec ) = 0.16281E-01
  weight for this iteration     100.00

 eigenvalues of (default mixing * dielectric matrix)
  average eigenvalue GAMMA=   1.2807
  2.4338  2.0863  1.3774  1.3774  0.6861  0.6861  0.3178

 Free energy of the ion-electron system (eV)
  ---------------------------------------------------
  alpha Z        PSCENC =       298.64697712
  Ewald energy   TEWEN  =     -3743.02484786
  -Hartree energ DENC   =     -1425.51564638
  -exchange      EXHF   =         0.00000000
  -V(xc)+E(xc)   XCENC  =       461.22050139
  PAW double counting   =      2223.80508257    -2265.02856838
  entropy T*S    EENTRO =         0.00000000
  eigenvalues    EBANDS =      -553.80652512
  atomic energy  EATOM  =      4708.94155045
  ---------------------------------------------------
  free energy    TOTEN  =      -294.76147621 eV

  energy without entropy =     -294.76147621  energy(sigma->0) =     -294.76147621


--------------------------------------------------------------------------------------------------------




----------------------------------------- Iteration    1(  13)  ---------------------------------------


    POTLOK:  cpu time    1.25: real time    2.48
    SETDIJ:  cpu time    0.04: real time    0.09
     EDDAV:  cpu time  282.71: real time  565.70
 BZINTS: Fermi energy:  4.770864;128.000000 electrons
         Band energy:-553.836274;  BLOECHL correction:  0.000000
       DOS:  cpu time    0.04: real time    0.09
    CHARGE:  cpu time    6.53: real time   13.06
    MIXING:  cpu time    0.04: real time    0.08
    --------------------------------------------
      LOOP:  cpu time  290.61: real time  581.52

 eigenvalue-minimisations  : 16176
 total energy-change (2. order) :-0.2032209E-05  (-0.2753697E-03)
 number of electron     127.9999990 magnetization 
 augmentation part        3.0607053 magnetization 

 Broyden mixing:
  rms(total) = 0.86026E-02    rms(broyden)= 0.86023E-02
  rms(prec ) = 0.13921E-01
  weight for this iteration     100.00

 eigenvalues of (default mixing * dielectric matrix)
  average eigenvalue GAMMA=   1.3118
  2.9235  2.4791  1.9499  0.9366  0.7813  0.7813  0.4569  0.1855

 Free energy of the ion-electron system (eV)
  ---------------------------------------------------
  alpha Z        PSCENC =       298.64697712
  Ewald energy   TEWEN  =     -3743.02484786
  -Hartree energ DENC   =     -1425.48640820
  -exchange      EXHF   =         0.00000000
  -V(xc)+E(xc)   XCENC  =       461.21930749
  PAW double counting   =      2223.02329849    -2264.24508163
  entropy T*S    EENTRO =         0.00000000
  eigenvalues    EBANDS =      -553.83627412
  atomic energy  EATOM  =      4708.94155045
  ---------------------------------------------------
  free energy    TOTEN  =      -294.76147824 eV

  energy without entropy =     -294.76147824  energy(sigma->0) =     -294.76147824


--------------------------------------------------------------------------------------------------------




----------------------------------------- Iteration    1(  14)  ---------------------------------------


    POTLOK:  cpu time    1.11: real time    2.22
    SETDIJ:  cpu time    0.03: real time    0.06
     EDDAV:  cpu time  331.05: real time  662.44
 BZINTS: Fermi energy:  4.776896;128.000000 electrons
         Band energy:-553.477792;  BLOECHL correction:  0.000000
       DOS:  cpu time    0.03: real time    0.05
    CHARGE:  cpu time    6.79: real time   13.60
    MIXING:  cpu time    0.05: real time    0.09
    --------------------------------------------
      LOOP:  cpu time  339.07: real time  678.48

 eigenvalue-minimisations  : 19908
 total energy-change (2. order) :-0.6751053E-03  (-0.4916563E-03)
 number of electron     127.9999990 magnetization 
 augmentation part        3.0605185 magnetization 

 Broyden mixing:
  rms(total) = 0.10755E-01    rms(broyden)= 0.10755E-01
  rms(prec ) = 0.18325E-01
  weight for this iteration     100.00

 eigenvalues of (default mixing * dielectric matrix)
  average eigenvalue GAMMA=   1.2295
  2.9192  2.4677  1.9470  0.9233  0.8315  0.8315  0.4787  0.4787  0.1879

 Free energy of the ion-electron system (eV)
  ---------------------------------------------------
  alpha Z        PSCENC =       298.64697712
  Ewald energy   TEWEN  =     -3743.02484786
  -Hartree energ DENC   =     -1425.87491496
  -exchange      EXHF   =         0.00000000
  -V(xc)+E(xc)   XCENC  =       461.24828055
  PAW double counting   =      2223.14085750    -2264.36226368
  entropy T*S    EENTRO =         0.00000000
  eigenvalues    EBANDS =      -553.47779247
  atomic energy  EATOM  =      4708.94155045
  ---------------------------------------------------
  free energy    TOTEN  =      -294.76215335 eV

  energy without entropy =     -294.76215335  energy(sigma->0) =     -294.76215335


--------------------------------------------------------------------------------------------------------




----------------------------------------- Iteration    1(  15)  ---------------------------------------


    POTLOK:  cpu time    1.22: real time    2.43
    SETDIJ:  cpu time    0.05: real time    0.12
     EDDAV:  cpu time  268.68: real time  537.62
 BZINTS: Fermi energy:  4.776823;128.000000 electrons
         Band energy:-553.477831;  BLOECHL correction:  0.000000
       DOS:  cpu time    0.02: real time    0.04
    CHARGE:  cpu time    6.51: real time   13.03
    MIXING:  cpu time    0.06: real time    0.14
    --------------------------------------------
      LOOP:  cpu time  276.56: real time  553.40

 eigenvalue-minimisations  : 14856
 total energy-change (2. order) : 0.1640087E-03  (-0.2279868E-04)
 number of electron     127.9999990 magnetization 
 augmentation part        3.0604728 magnetization 

 Broyden mixing:
  rms(total) = 0.10389E-01    rms(broyden)= 0.10389E-01
  rms(prec ) = 0.17516E-01
  weight for this iteration     100.00

 eigenvalues of (default mixing * dielectric matrix)
  average eigenvalue GAMMA=   1.2033
  2.8974  2.4739  1.8710  1.3097  0.9132  0.8257  0.6636  0.6636  0.1872  0.2277

 Free energy of the ion-electron system (eV)
  ---------------------------------------------------
  alpha Z        PSCENC =       298.64697712
  Ewald energy   TEWEN  =     -3743.02484786
  -Hartree energ DENC   =     -1425.87505395
  -exchange      EXHF   =         0.00000000
  -V(xc)+E(xc)   XCENC  =       461.24825836
  PAW double counting   =      2223.13884590    -2264.35988876
  entropy T*S    EENTRO =         0.00000000
  eigenvalues    EBANDS =      -553.47783060
  atomic energy  EATOM  =      4708.94155045
  ---------------------------------------------------
  free energy    TOTEN  =      -294.76198934 eV

  energy without entropy =     -294.76198934  energy(sigma->0) =     -294.76198934


--------------------------------------------------------------------------------------------------------




----------------------------------------- Iteration    1(  16)  ---------------------------------------


    POTLOK:  cpu time    1.24: real time    2.47
    SETDIJ:  cpu time    0.02: real time    0.04
     EDDAV:  cpu time  363.91: real time  728.19
 BZINTS: Fermi energy:  4.771960;128.000000 electrons
         Band energy:-553.515229;  BLOECHL correction:  0.000000
       DOS:  cpu time    0.04: real time    0.08
    CHARGE:  cpu time    7.41: real time   14.82
    MIXING:  cpu time    0.11: real time    0.24
    --------------------------------------------
      LOOP:  cpu time  372.73: real time  745.84

 eigenvalue-minimisations  : 22536
 total energy-change (2. order) : 0.4779810E-03  (-0.1681412E-03)
 number of electron     127.9999990 magnetization 
 augmentation part        3.0605069 magnetization 

 Broyden mixing:
  rms(total) = 0.44401E-02    rms(broyden)= 0.44398E-02
  rms(prec ) = 0.62282E-02
  weight for this iteration     100.00

 eigenvalues of (default mixing * dielectric matrix)
  average eigenvalue GAMMA=   1.1219
  2.8853  2.4743  1.8465  1.4747  0.9685  0.7183  0.7183  0.4827  0.1865  0.2926
  0.2926

 Free energy of the ion-electron system (eV)
  ---------------------------------------------------
  alpha Z        PSCENC =       298.64697712
  Ewald energy   TEWEN  =     -3743.02484786
  -Hartree energ DENC   =     -1425.83635300
  -exchange      EXHF   =         0.00000000
  -V(xc)+E(xc)   XCENC  =       461.24538410
  PAW double counting   =      2223.01374144    -2264.23273432
  entropy T*S    EENTRO =         0.00000000
  eigenvalues    EBANDS =      -553.51522929
  atomic energy  EATOM  =      4708.94155045
  ---------------------------------------------------
  free energy    TOTEN  =      -294.76151136 eV

  energy without entropy =     -294.76151136  energy(sigma->0) =     -294.76151136


--------------------------------------------------------------------------------------------------------




----------------------------------------- Iteration    1(  17)  ---------------------------------------


    POTLOK:  cpu time    0.98: real time    1.95
    SETDIJ:  cpu time    0.03: real time    0.07
     EDDAV:  cpu time  259.75: real time  519.76
 BZINTS: Fermi energy:  4.771932;128.000000 electrons
         Band energy:-553.513958;  BLOECHL correction:  0.000000
       DOS:  cpu time    0.03: real time    0.06
    CHARGE:  cpu time    6.77: real time   13.54
    MIXING:  cpu time    0.09: real time    0.16
    --------------------------------------------
      LOOP:  cpu time  267.66: real time  535.57

 eigenvalue-minimisations  : 14304
 total energy-change (2. order) : 0.4266583E-05  (-0.1021677E-04)
 number of electron     127.9999990 magnetization 
 augmentation part        3.0605051 magnetization 

 Broyden mixing:
  rms(total) = 0.27977E-02    rms(broyden)= 0.27977E-02
  rms(prec ) = 0.45182E-02
  weight for this iteration     100.00

 eigenvalues of (default mixing * dielectric matrix)
  average eigenvalue GAMMA=   1.0834
  2.8876  2.4785  1.8205  1.5586  0.9254  0.7263  0.7263  0.5971  0.4224  0.4224
  0.1875  0.2477

 Free energy of the ion-electron system (eV)
  ---------------------------------------------------
  alpha Z        PSCENC =       298.64697712
  Ewald energy   TEWEN  =     -3743.02484786
  -Hartree energ DENC   =     -1425.83765881
  -exchange      EXHF   =         0.00000000
  -V(xc)+E(xc)   XCENC  =       461.24541089
  PAW double counting   =      2223.00904136    -2264.22802246
  entropy T*S    EENTRO =         0.00000000
  eigenvalues    EBANDS =      -553.51395778
  atomic energy  EATOM  =      4708.94155045
  ---------------------------------------------------
  free energy    TOTEN  =      -294.76150709 eV

  energy without entropy =     -294.76150709  energy(sigma->0) =     -294.76150709


--------------------------------------------------------------------------------------------------------




----------------------------------------- Iteration    1(  18)  ---------------------------------------


    POTLOK:  cpu time    1.16: real time    2.31
    SETDIJ:  cpu time    0.03: real time    0.06
     EDDAV:  cpu time  289.42: real time  579.13
 BZINTS: Fermi energy:  4.771930;128.000000 electrons
         Band energy:-553.511654;  BLOECHL correction:  0.000000
       DOS:  cpu time    0.03: real time    0.07
    CHARGE:  cpu time    6.69: real time   13.39
    MIXING:  cpu time    0.04: real time    0.09
    --------------------------------------------
      LOOP:  cpu time  297.38: real time  595.06

 eigenvalue-minimisations  : 16380
 total energy-change (2. order) : 0.1924114E-05  (-0.2831430E-05)
 number of electron     127.9999990 magnetization 
 augmentation part        3.0605043 magnetization 

 Broyden mixing:
  rms(total) = 0.11230E-02    rms(broyden)= 0.11229E-02
  rms(prec ) = 0.13447E-02
  weight for this iteration     100.00

 eigenvalues of (default mixing * dielectric matrix)
  average eigenvalue GAMMA=   1.0678
  2.8605  2.4919  1.7572  1.7572  0.8967  0.7865  0.7865  0.5862  0.5862  0.4664
  0.4664  0.1874  0.2527

 Free energy of the ion-electron system (eV)
  ---------------------------------------------------
  alpha Z        PSCENC =       298.64697712
  Ewald energy   TEWEN  =     -3743.02484786
  -Hartree energ DENC   =     -1425.84012642
  -exchange      EXHF   =         0.00000000
  -V(xc)+E(xc)   XCENC  =       461.24552958
  PAW double counting   =      2223.00334650    -2264.22228034
  entropy T*S    EENTRO =         0.00000000
  eigenvalues    EBANDS =      -553.51165420
  atomic energy  EATOM  =      4708.94155045
  ---------------------------------------------------
  free energy    TOTEN  =      -294.76150517 eV

  energy without entropy =     -294.76150517  energy(sigma->0) =     -294.76150517


--------------------------------------------------------------------------------------------------------




----------------------------------------- Iteration    1(  19)  ---------------------------------------


    POTLOK:  cpu time    1.07: real time    2.13
    SETDIJ:  cpu time    0.03: real time    0.06
     EDDAV:  cpu time  323.84: real time  648.00
 BZINTS: Fermi energy:  4.771874;128.000000 electrons
         Band energy:-553.507070;  BLOECHL correction:  0.000000
       DOS:  cpu time    0.04: real time    0.08
    CHARGE:  cpu time    6.68: real time   13.38
    MIXING:  cpu time    0.11: real time    0.22
    --------------------------------------------
      LOOP:  cpu time  331.77: real time  663.88

 eigenvalue-minimisations  : 19548
 total energy-change (2. order) :-0.1574628E-04  (-0.1840410E-04)
 number of electron     127.9999990 magnetization 
 augmentation part        3.0604999 magnetization 

 Broyden mixing:
  rms(total) = 0.44397E-02    rms(broyden)= 0.44396E-02
  rms(prec ) = 0.72038E-02
  weight for this iteration     100.00

 eigenvalues of (default mixing * dielectric matrix)
  average eigenvalue GAMMA=   1.0928
  2.8845  2.5172  1.9004  1.9004  1.0584  1.0584  0.8533  0.6497  0.6497  0.5093
  0.4385  0.4385  0.1874  0.2531

 Free energy of the ion-electron system (eV)
  ---------------------------------------------------
  alpha Z        PSCENC =       298.64697712
  Ewald energy   TEWEN  =     -3743.02484786
  -Hartree energ DENC   =     -1425.84482742
  -exchange      EXHF   =         0.00000000
  -V(xc)+E(xc)   XCENC  =       461.24577759
  PAW double counting   =      2223.00618305    -2264.22526364
  entropy T*S    EENTRO =         0.00000000
  eigenvalues    EBANDS =      -553.50707020
  atomic energy  EATOM  =      4708.94155045
  ---------------------------------------------------
  free energy    TOTEN  =      -294.76152091 eV

  energy without entropy =     -294.76152091  energy(sigma->0) =     -294.76152091


--------------------------------------------------------------------------------------------------------




----------------------------------------- Iteration    1(  20)  ---------------------------------------


    POTLOK:  cpu time    1.02: real time    2.04
    SETDIJ:  cpu time    0.02: real time    0.05
     EDDAV:  cpu time  356.45: real time  713.26
 BZINTS: Fermi energy:  4.771965;128.000000 electrons
         Band energy:-553.498654;  BLOECHL correction:  0.000000
       DOS:  cpu time    0.03: real time    0.07
    CHARGE:  cpu time    6.36: real time   12.72
    MIXING:  cpu time    0.12: real time    0.25
    --------------------------------------------
      LOOP:  cpu time  364.03: real time  728.42

 eigenvalue-minimisations  : 21828
 total energy-change (2. order) : 0.1589329E-04  (-0.1147003E-04)
 number of electron     127.9999990 magnetization 
 augmentation part        3.0604965 magnetization 

 Broyden mixing:
  rms(total) = 0.16677E-02    rms(broyden)= 0.16676E-02
  rms(prec ) = 0.26282E-02
  weight for this iteration     100.00

 eigenvalues of (default mixing * dielectric matrix)
  average eigenvalue GAMMA=   1.1036
  2.9463  2.5392  1.8010  1.8010  1.3804  1.3804  0.9039  0.6646  0.6646  0.6105
  0.5465  0.4379  0.4379  0.1874  0.2531

 Free energy of the ion-electron system (eV)
  ---------------------------------------------------
  alpha Z        PSCENC =       298.64697712
  Ewald energy   TEWEN  =     -3743.02484786
  -Hartree energ DENC   =     -1425.85372470
  -exchange      EXHF   =         0.00000000
  -V(xc)+E(xc)   XCENC  =       461.24625692
  PAW double counting   =      2222.99674749    -2264.21581002
  entropy T*S    EENTRO =         0.00000000
  eigenvalues    EBANDS =      -553.49865443
  atomic energy  EATOM  =      4708.94155045
  ---------------------------------------------------
  free energy    TOTEN  =      -294.76150502 eV

  energy without entropy =     -294.76150502  energy(sigma->0) =     -294.76150502


--------------------------------------------------------------------------------------------------------




----------------------------------------- Iteration    1(  21)  ---------------------------------------


    POTLOK:  cpu time    1.50: real time    2.99
    SETDIJ:  cpu time    0.04: real time    0.08
     EDDAV:  cpu time  268.24: real time  536.75
 BZINTS: Fermi energy:  4.771958;128.000000 electrons
         Band energy:-553.493534;  BLOECHL correction:  0.000000
       DOS:  cpu time    0.03: real time    0.07
    CHARGE:  cpu time    6.44: real time   12.90
    MIXING:  cpu time    0.04: real time    0.07
    --------------------------------------------
      LOOP:  cpu time  276.30: real time  552.87

 eigenvalue-minimisations  : 14832
 total energy-change (2. order) :-0.2150827E-05  (-0.6403062E-05)
 number of electron     127.9999990 magnetization 
 augmentation part        3.0604925 magnetization 

 Broyden mixing:
  rms(total) = 0.28981E-02    rms(broyden)= 0.28980E-02
  rms(prec ) = 0.47811E-02
  weight for this iteration     100.00

 eigenvalues of (default mixing * dielectric matrix)
  average eigenvalue GAMMA=   1.0950
  3.0777  2.5692  2.3481  1.9195  1.3496  1.0246  1.0246  0.6640  0.6640  0.5901
  0.5901  0.4402  0.4402  0.3775  0.1874  0.2530

 Free energy of the ion-electron system (eV)
  ---------------------------------------------------
  alpha Z        PSCENC =       298.64697712
  Ewald energy   TEWEN  =     -3743.02484786
  -Hartree energ DENC   =     -1425.85910631
  -exchange      EXHF   =         0.00000000
  -V(xc)+E(xc)   XCENC  =       461.24655696
[...]
     79      12.4417      0.00000
     80      12.4447      0.00000
     81      12.6937      0.00000
     82      12.6954      0.00000
     83      13.0213      0.00000
     84      13.0230      0.00000

 k-point    75 :       0.3333    0.5000    0.5000
  band No.  band energies     occupation 
      1     -13.6694      2.00000
      2     -13.6691      2.00000
      3     -13.4532      2.00000
      4     -13.4529      2.00000
      5     -12.6979      2.00000
      6     -12.6977      2.00000
      7     -12.4951      2.00000
      8     -12.4948      2.00000
      9     -11.7378      2.00000
     10     -11.7375      2.00000
     11     -11.5482      2.00000
     12     -11.5479      2.00000
     13      -9.0593      2.00000
     14      -9.0589      2.00000
     15      -8.9189      2.00000
     16      -8.9184      2.00000
     17      -7.1809      2.00000
     18      -7.1783      2.00000
     19      -7.0864      2.00000
     20      -7.0838      2.00000
     21      -4.8794      2.00000
     22      -4.8771      2.00000
     23      -4.8049      2.00000
     24      -4.8028      2.00000
     25      -4.7125      2.00000
     26      -4.7111      2.00000
     27      -4.6313      2.00000
     28      -4.6297      2.00000
     29      -3.7379      2.00000
     30      -3.7359      2.00000
     31      -3.6512      2.00000
     32      -3.6493      2.00000
     33      -2.6774      2.00000
     34      -2.6757      2.00000
     35      -2.6208      2.00000
     36      -2.6192      2.00000
     37      -2.1326      2.00000
     38      -2.1315      2.00000
     39      -1.6485      2.00000
     40      -1.6442      2.00000
     41      -1.5933      2.00000
     42      -1.5896      2.00000
     43      -1.1252      2.00000
     44      -1.1227      2.00000
     45      -1.0784      2.00000
     46      -1.0757      2.00000
     47      -0.9866      2.00000
     48      -0.9856      2.00000
     49      -0.7468      2.00000
     50      -0.7455      2.00000
     51      -0.2352      2.00000
     52      -0.2312      2.00000
     53      -0.2001      2.00000
     54      -0.1950      2.00000
     55       0.1278      2.00000
     56       0.1287      2.00000
     57       0.3220      2.00000
     58       0.3232      2.00000
     59       1.3484      2.00000
     60       1.3496      2.00000
     61       3.0360      2.00000
     62       3.0381      2.00000
     63       3.8029      2.00000
     64       3.8053      2.00000
     65       5.8997      0.00000
     66       5.9033      0.00000
     67       6.3036      0.00000
     68       6.3065      0.00000
     69       8.9740      0.00000
     70       8.9757      0.00000
     71       9.4445      0.00000
     72       9.4460      0.00000
     73      10.4396      0.00000
     74      10.4428      0.00000
     75      10.9771      0.00000
     76      10.9792      0.00000
     77      11.2989      0.00000
     78      11.3019      0.00000
     79      12.4393      0.00000
     80      12.4422      0.00000
     81      12.6897      0.00000
     82      12.6919      0.00000
     83      13.0195      0.00000
     84      13.0215      0.00000

 k-point    76 :       0.5000    0.5000    0.5000
  band No.  band energies     occupation 
      1     -13.3468      2.00000
      2     -13.3439      2.00000
      3     -13.3439      2.00000
      4     -13.3412      2.00000
      5     -13.1351      2.00000
      6     -13.1322      2.00000
      7     -13.1322      2.00000
      8     -13.1293      2.00000
      9     -10.4998      2.00000
     10     -10.4981      2.00000
     11     -10.4981      2.00000
     12     -10.4963      2.00000
     13     -10.3283      2.00000
     14     -10.3267      2.00000
     15     -10.3266      2.00000
     16     -10.3248      2.00000
     17      -5.7418      2.00000
     18      -5.7418      2.00000
     19      -5.7413      2.00000
     20      -5.7375      2.00000
     21      -5.6829      2.00000
     22      -5.6829      2.00000
     23      -5.6825      2.00000
     24      -5.6781      2.00000
     25      -4.1560      2.00000
     26      -4.1530      2.00000
     27      -4.1516      2.00000
     28      -4.1516      2.00000
     29      -4.1117      2.00000
     30      -4.1092      2.00000
     31      -4.1080      2.00000
     32      -4.1080      2.00000
     33      -2.6575      2.00000
     34      -2.6514      2.00000
     35      -2.6513      2.00000
     36      -2.6509      2.00000
     37      -2.5785      2.00000
     38      -2.5733      2.00000
     39      -2.5733      2.00000
     40      -2.5729      2.00000
     41      -1.7489      2.00000
     42      -1.7467      2.00000
     43      -1.7466      2.00000
     44      -1.7437      2.00000
     45      -0.3882      2.00000
     46      -0.3859      2.00000
     47      -0.3858      2.00000
     48      -0.3825      2.00000
     49      -0.2310      2.00000
     50      -0.2294      2.00000
     51      -0.2294      2.00000
     52      -0.2227      2.00000
     53      -0.1928      2.00000
     54      -0.1914      2.00000
     55      -0.1914      2.00000
     56      -0.1814      2.00000
     57       1.5283      2.00000
     58       1.5314      2.00000
     59       1.5316      2.00000
     60       1.5328      2.00000
     61       2.6057      2.00000
     62       2.6093      2.00000
     63       2.6095      2.00000
     64       2.6107      2.00000
     65       7.3694      0.00000
     66       7.3697      0.00000
     67       7.3697      0.00000
     68       7.3746      0.00000
     69       7.8171      0.00000
     70       7.8177      0.00000
     71       7.8178      0.00000
     72       7.8223      0.00000
     73      11.5240      0.00000
     74      11.5362      0.00000
     75      11.5373      0.00000
     76      11.5472      0.00000
     77      11.9014      0.00000
     78      11.9111      0.00000
     79      11.9137      0.00000
     80      11.9224      0.00000
     81      12.2395      0.00000
     82      12.2447      0.00000
     83      12.2456      0.00000
     84      12.2476      0.00000


--------------------------------------------------------------------------------------------------------


 soft charge-density along one line, spin component           1
         0         1         2         3         4         5         6         7         8         9
 total charge-density along one line
 
 pseudopotential strength for first ion, spin component:           1
  9.766   0.005  -0.000   0.000   0.000   0.000  -0.000   0.000
  0.005  -0.002   0.000   0.000  -0.000   0.000  -0.000   0.000
 -0.000   0.000  -3.939   0.000   0.000  -0.015  -0.000  -0.000
  0.000   0.000   0.000  -3.933  -0.000  -0.000  -0.012   0.000
  0.000  -0.000   0.000  -0.000  -3.939  -0.000   0.000  -0.015
  0.000   0.000  -0.015  -0.000  -0.000  -0.763   0.000   0.000
 -0.000  -0.000  -0.000  -0.012   0.000   0.000  -0.763  -0.000
  0.000   0.000  -0.000   0.000  -0.015   0.000  -0.000  -0.763
 total augmentation occupancy for first ion, spin component:           1
  1.469  -1.121   0.000   0.000  -0.000   0.000  -0.000  -0.000
 -1.121   1.058  -0.000   0.000   0.000  -0.000   0.000   0.000
  0.000  -0.000   1.222   0.000   0.000   0.228   0.000  -0.000
  0.000   0.000   0.000   0.926  -0.000   0.000   0.105  -0.000
 -0.000   0.000   0.000  -0.000   1.222  -0.000  -0.000   0.228
  0.000  -0.000   0.228   0.000  -0.000   0.048   0.000  -0.000
 -0.000   0.000   0.000   0.105  -0.000   0.000   0.013  -0.000
 -0.000   0.000  -0.000  -0.000   0.228  -0.000  -0.000   0.048


------------------------ aborting loop because EDIFF is reached ----------------------------------------


    CHARGE:  cpu time    6.62: real time   13.25
    FORLOC:  cpu time    0.08: real time    0.16
    FORNL :  cpu time   35.44: real time   70.91
    STRESS:  cpu time   63.22: real time  126.52
    FORHAR:  cpu time    0.26: real time    0.51
    MIXING:  cpu time    0.03: real time    0.07
    OFIELD:  cpu time    0.00: real time    0.00

 ---------------------------------------------------------------------------------------------

         DFTD3 V3.0 Rev 1        
 IVDW         = 12
 DF pbe       
 parameters
 VDW_S6       =    1.0000
 VDW_S8       =    0.7875
 VDW_A1       =    0.4289
 VDW_A2       =    4.4407
 k1-k3        =   16.0000    1.3333   -4.0000
 VDW_RADIUS   =   50.2022 A
 VDW_CNRADIUS =   21.1671 A
 Edisp (eV)   -5.07268

 E6    (eV) :    -3.6329
 E8    (eV) :    -1.4398
 % E8        : 28.38
    FORVDW:  cpu time    0.26: real time    0.50

  FORCE on cell =-STRESS in cart. coord.  units (eV):
  Direction    XX          YY          ZZ          XY          YZ          ZX
  --------------------------------------------------------------------------------------
  Alpha Z   298.64698   298.64698   298.64698
  Ewald     560.75497   560.27381 -4864.07405    -1.18145    -0.00062    -0.00702
  Hartree  1245.53952  1245.54445 -1065.22066    -0.10345    -0.00024    -0.00134
  E(xc)    -467.74921  -467.75604  -484.71740    -0.00890    -0.00004     0.00004
  Local   -3435.44991 -3435.07441  4031.50101     1.05490     0.00008     0.00737
  n-local  -111.67957  -111.79220  -102.53879    -0.10292    -0.00070     0.00080
  augment   -12.36604   -12.36513   -11.33600     0.00199     0.00001     0.00000
  Kinetic  1922.40943  1923.17980  2204.31976     0.79482     0.00911    -0.00912
  Fock        0.00000     0.00000     0.00000     0.00000     0.00000     0.00000
  vdW        -0.74341    -0.73333    -6.02915     0.00913     0.00000    -0.00002
  -------------------------------------------------------------------------------------
  Total      -0.63724    -0.07608     0.55170     0.46411     0.00760    -0.00929
  in kB      -3.65442    -0.43629     3.16390     2.66157     0.04361    -0.05327
  external pressure =       -0.31 kB  Pullay stress =        0.00 kB


 VOLUME and BASIS-vectors are now :
 -----------------------------------------------------------------------------
  energy-cutoff  :      800.00
  volume of cell :      279.38
      direct lattice vectors                 reciprocal lattice vectors
     4.932874498 -0.001919286  0.000000000     0.202767147  0.117172881  0.000000000
    -2.468099399  4.271034986  0.000000000     0.000091118  0.234187941  0.000000000
     0.000000000  0.000000000 13.263501456     0.000000000  0.000000000  0.075394872

  length of vectors
     4.932874871  4.932874871 13.263501456     0.234187958  0.234187958  0.075394872


 FORCES acting on ions
    electron-ion (+dipol)            ewald-force                    non-local-force                 convergence-correction
 -----------------------------------------------------------------------------------------------
   -.332E-01 0.668E-01 -.321E+00   0.298E-01 -.622E-01 0.320E+00   -.457E-02 0.289E-02 -.613E-02   -.186E-04 0.671E-05 -.116E-03
   -.348E+00 0.584E-01 -.844E+00   0.342E+00 -.530E-01 0.875E+00   -.299E-01 0.271E-02 -.737E-01   -.194E-04 0.711E-05 -.117E-03
   0.227E+00 0.398E+00 -.840E+00   -.288E+00 -.424E+00 0.871E+00   -.216E-01 0.757E-02 -.734E-01   -.188E-04 0.746E-05 -.117E-03
   0.217E+00 -.260E+00 -.847E+00   -.276E+00 0.296E+00 0.880E+00   -.226E-01 -.138E-02 -.739E-01   -.184E-04 0.640E-05 -.117E-03
   -.117E+00 0.663E-01 0.974E-01   0.107E+00 -.619E-01 -.968E-01   -.546E-02 0.284E-02 0.427E-02   0.197E-04 0.751E-05 0.181E-06
   -.117E+00 0.663E-01 0.979E-01   0.107E+00 -.619E-01 -.972E-01   -.547E-02 0.284E-02 0.421E-02   0.198E-04 0.770E-05 0.175E-06
   -.117E+00 0.663E-01 0.979E-01   0.107E+00 -.620E-01 -.972E-01   -.547E-02 0.284E-02 0.421E-02   0.197E-04 0.742E-05 0.235E-06
   -.117E+00 0.663E-01 0.979E-01   0.107E+00 -.619E-01 -.972E-01   -.547E-02 0.284E-02 0.422E-02   0.201E-04 0.766E-05 0.159E-06
   0.944E-01 -.574E-01 0.949E-01   -.860E-01 0.520E-01 -.955E-01   0.510E-02 -.318E-02 -.488E-02   -.132E-04 0.970E-05 0.110E-03
   0.137E+00 -.526E-01 0.110E+00   -.129E+00 0.471E-01 -.111E+00   0.509E-02 -.316E-02 -.466E-02   -.133E-04 0.969E-05 0.110E-03
   0.112E+00 -.921E-01 0.102E+00   -.103E+00 0.867E-01 -.103E+00   0.508E-02 -.316E-02 -.476E-02   -.134E-04 0.975E-05 0.110E-03
   0.119E+00 -.672E-01 0.764E-01   -.111E+00 0.618E-01 -.773E-01   0.514E-02 -.315E-02 -.385E-02   -.133E-04 0.968E-05 0.110E-03
   0.137E+00 -.807E-01 0.111E+00   -.129E+00 0.771E-01 -.112E+00   0.499E-02 -.264E-02 -.467E-02   -.129E-04 0.635E-05 0.809E-05
   0.939E-01 -.756E-01 0.946E-01   -.858E-01 0.718E-01 -.951E-01   0.501E-02 -.261E-02 -.490E-02   -.130E-04 0.645E-05 0.836E-05
   0.111E+00 -.406E-01 0.103E+00   -.103E+00 0.368E-01 -.103E+00   0.498E-02 -.265E-02 -.478E-02   -.129E-04 0.657E-05 0.828E-05
   0.119E+00 -.657E-01 0.763E-01   -.111E+00 0.619E-01 -.772E-01   0.510E-02 -.265E-02 -.385E-02   -.130E-04 0.662E-05 0.809E-05
   -.653E+00 -.619E-01 0.167E+01   0.773E+00 0.574E-01 -.172E+01   0.998E-01 -.266E-02 0.180E+00   0.189E-04 -.722E-05 -.101E-03
   0.311E+00 -.653E-01 -.382E+00   -.327E+00 0.617E-01 0.366E+00   -.154E-01 -.256E-02 0.229E-01   0.175E-04 -.687E-05 -.117E-03
   0.135E+00 -.168E+00 -.383E+00   -.126E+00 0.178E+00 0.366E+00   -.436E-02 0.387E-02 0.229E-01   0.186E-04 -.631E-05 -.117E-03
   0.135E+00 0.369E-01 -.383E+00   -.126E+00 -.548E-01 0.367E+00   -.445E-02 -.879E-02 0.229E-01   0.188E-04 -.785E-05 -.117E-03
   0.115E+00 -.652E-01 0.983E-01   -.107E+00 0.616E-01 -.978E-01   0.478E-02 -.245E-02 -.131E-02   -.203E-04 -.695E-05 0.572E-06
   0.115E+00 -.652E-01 0.973E-01   -.107E+00 0.616E-01 -.969E-01   0.479E-02 -.245E-02 -.107E-02   -.204E-04 -.723E-05 0.676E-06
   0.115E+00 -.653E-01 0.973E-01   -.107E+00 0.617E-01 -.969E-01   0.478E-02 -.245E-02 -.107E-02   -.200E-04 -.714E-05 0.722E-06
   0.115E+00 -.651E-01 0.973E-01   -.107E+00 0.616E-01 -.969E-01   0.478E-02 -.245E-02 -.107E-02   -.205E-04 -.700E-05 0.614E-06
   -.916E-01 0.512E-01 0.110E+00   0.849E-01 -.467E-01 -.111E+00   -.471E-02 0.284E-02 0.114E-02   0.143E-04 -.982E-05 0.109E-03
   -.135E+00 0.561E-01 0.950E-01   0.128E+00 -.517E-01 -.955E-01   -.436E-02 0.292E-02 0.759E-03   0.143E-04 -.992E-05 0.109E-03
   -.118E+00 0.915E-01 0.103E+00   0.111E+00 -.865E-01 -.103E+00   -.460E-02 0.257E-02 0.980E-03   0.143E-04 -.100E-04 0.109E-03
   -.110E+00 0.662E-01 0.769E-01   0.103E+00 -.616E-01 -.773E-01   -.443E-02 0.278E-02 0.108E-02   0.142E-04 -.996E-05 0.109E-03
   -.135E+00 0.747E-01 0.945E-01   0.128E+00 -.715E-01 -.950E-01   -.401E-02 0.208E-02 0.670E-03   0.128E-04 -.633E-05 0.786E-05
   -.905E-01 0.799E-01 0.111E+00   0.847E-01 -.768E-01 -.112E+00   -.438E-02 0.216E-02 0.121E-02   0.131E-04 -.612E-05 0.775E-05
   -.117E+00 0.390E-01 0.103E+00   0.111E+00 -.365E-01 -.103E+00   -.426E-02 0.243E-02 0.980E-03   0.129E-04 -.666E-05 0.784E-05
   -.109E+00 0.644E-01 0.768E-01   0.103E+00 -.615E-01 -.771E-01   -.406E-02 0.222E-02 0.111E-02   0.130E-04 -.634E-05 0.782E-05
 -----------------------------------------------------------------------------------------------
   0.547E-04 -.349E-04 -.598E-02   0.208E-14 -.242E-13 0.291E-13   -.735E-04 0.334E-04 0.593E-02   0.497E-06 0.104E-05 0.255E-04
 
 
 POSITION                                       TOTAL-FORCE (eV/Angst)
 -----------------------------------------------------------------------------------
      2.46402      0.00044      1.65794        -0.008193      0.007490     -0.007622
      4.93046     -0.00052      1.65794        -0.035844      0.008192     -0.042338
      1.22997      2.13595      1.65794        -0.081770     -0.018903     -0.042752
      3.69641      2.13499      1.65794        -0.081952      0.034147     -0.041852
      2.46402      0.00044      8.28969        -0.014854      0.007276      0.004901
      4.93046     -0.00052      8.28969        -0.014854      0.007277      0.004880
      1.22997      2.13595      8.28969        -0.014856      0.007275      0.004876
      3.69641      2.13499      8.28969        -0.014856      0.007277      0.004881
     -1.23163      2.13412      4.97381         0.013553     -0.008611     -0.005334
      1.23481      2.13316      4.97381         0.013396     -0.008673     -0.005547
     -2.46568      4.26964      4.97381         0.013523     -0.008557     -0.005430
      0.00076      4.26868      4.97381         0.013385     -0.008618     -0.004635
     -1.23163      2.13412     11.60556         0.012936     -0.006302     -0.005562
      1.23481      2.13316     11.60556         0.013083     -0.006496     -0.005339
     -2.46568      4.26964     11.60556         0.013172     -0.006469     -0.005444
      0.00076      4.26868     11.60556         0.012944     -0.006415     -0.004628
     -0.00681      1.42496      1.64856         0.221736     -0.007225      0.135502
      2.46311      1.42400      1.65794        -0.032143     -0.006223      0.006726
     -1.23737      3.56047      1.65794         0.004222      0.014795      0.006659
      1.22906      3.55952      1.65794         0.004332     -0.027376      0.006898
     -0.00332      1.42496      8.28969         0.012809     -0.006094     -0.000837
      2.46311      1.42400      8.28969         0.012815     -0.006093     -0.000627
     -1.23737      3.56047      8.28969         0.012812     -0.006096     -0.000627
      1.22906      3.55952      8.28969         0.012811     -0.006092     -0.000628
      1.23571      0.70960      4.97381        -0.011472      0.007335      0.000418
      3.70215      0.70864      4.97381        -0.011824      0.007373      0.000350
      0.00166      2.84512      4.97381        -0.011685      0.007655      0.000409
      2.46810      2.84416      4.97381        -0.011642      0.007470      0.000746
      1.23571      0.70960     11.60556        -0.010599      0.005279      0.000279
      3.70215      0.70864     11.60556        -0.010233      0.005274      0.000483
      0.00166      2.84512     11.60556        -0.010415      0.004972      0.000416
      2.46810      2.84416     11.60556        -0.010339      0.005158      0.000779
 -----------------------------------------------------------------------------------
    total drift:                               -0.000018     -0.000000     -0.000020


--------------------------------------------------------------------------------------------------------



  FREE ENERGIE OF THE ION-ELECTRON SYSTEM (eV)
  ---------------------------------------------------
  free  energy   TOTEN  =      -299.83418453 eV

  energy  without entropy=     -299.83418453  energy(sigma->0) =     -299.83418453
 


--------------------------------------------------------------------------------------------------------


    POTLOK:  cpu time    1.17: real time    2.35


--------------------------------------------------------------------------------------------------------


     LOOP+:  cpu time 8724.83: real time17456.39
    4ORBIT:  cpu time    0.00: real time    0.00
 BZINTS: Fermi energy:  4.771777;128.000000 electrons
         Band energy:-553.489557;  BLOECHL correction:  0.000000

 total amount of memory used by VASP on root node   402160. kBytes
========================================================================

   base      :      30000. kBytes
   nonl-proj :      77543. kBytes
   fftplans  :      14247. kBytes
   grid      :      30326. kBytes
   one-center:         98. kBytes
   wavefun   :     249946. kBytes
 
  
  
 General timing and accounting informations for this job:
 ========================================================
  
                  Total CPU time used (sec):     8811.933
                            User time (sec):     4815.868
                          System time (sec):     3996.065
                         Elapsed time (sec):    17630.821
  
                   Maximum memory used (kb):      491396.
                   Average memory used (kb):           0.
  
                          Minor page faults:     61619651
                          Major page faults:            0
                 Voluntary context switches:         1081
