  32  32   0   0
  0.8555981E+01  0.4932875E-09  0.4932875E-09  0.1299823E-08  0.5000000E-15
  1.000000000000000E-004
  CAR 
 graphite                                
     16.33570595    -16.70545015  301      4.95414626      1.00000000
    -16.705  0.0000E+00  0.0000E+00
    -16.595  0.0000E+00  0.0000E+00
    -16.485  0.0000E+00  0.0000E+00
    -16.375  0.0000E+00  0.0000E+00
    -16.265  0.0000E+00  0.0000E+00
    -16.155  0.0000E+00  0.0000E+00
    -16.045  0.0000E+00  0.0000E+00
    -15.934  0.0000E+00  0.0000E+00
    -15.824  0.0000E+00  0.0000E+00
    -15.714  0.0000E+00  0.0000E+00
    -15.604  0.0000E+00  0.0000E+00
    -15.494  0.0000E+00  0.0000E+00
    -15.384  0.0000E+00  0.0000E+00
    -15.274  0.0000E+00  0.0000E+00
    -15.164  0.0000E+00  0.0000E+00
    -15.053  0.0000E+00  0.0000E+00
    -14.943  0.0000E+00  0.0000E+00
    -14.833  0.0000E+00  0.0000E+00
    -14.723  0.0000E+00  0.0000E+00
    -14.613  0.1446E+01  0.7082E-01
    -14.503  0.2459E+01  0.2833E+00
    -14.393  0.3381E+01  0.6083E+00
    -14.282  0.5000E+01  0.1061E+01
    -14.172  0.4986E+01  0.1605E+01
    -14.062  0.4861E+01  0.2151E+01
    -13.952  0.4932E+01  0.2688E+01
    -13.842  0.4997E+01  0.3236E+01
    -13.732  0.4927E+01  0.3782E+01
    -13.622  0.4961E+01  0.4326E+01
    -13.511  0.5285E+01  0.4880E+01
    -13.401  0.5615E+01  0.5483E+01
    -13.291  0.6497E+01  0.6126E+01
    -13.181  0.6793E+01  0.6868E+01
    -13.071  0.4223E+01  0.7399E+01
    -12.961  0.2056E+01  0.7740E+01
    -12.851  0.3699E+01  0.8055E+01
    -12.741  0.4123E+01  0.8466E+01
    -12.630  0.8174E+01  0.9100E+01
    -12.520  0.5423E+01  0.9762E+01
    -12.410  0.6189E+01  0.1040E+02
    -12.300  0.4430E+01  0.1099E+02
    -12.190  0.4680E+01  0.1149E+02
    -12.080  0.4862E+01  0.1202E+02
    -11.970  0.4994E+01  0.1256E+02
    -11.859  0.5094E+01  0.1311E+02
    -11.749  0.5359E+01  0.1368E+02
    -11.639  0.5729E+01  0.1432E+02
    -11.529  0.5102E+01  0.1491E+02
    -11.419  0.5035E+01  0.1547E+02
    -11.309  0.5002E+01  0.1602E+02
    -11.199  0.5053E+01  0.1657E+02
    -11.088  0.5139E+01  0.1713E+02
    -10.978  0.5191E+01  0.1770E+02
    -10.868  0.5446E+01  0.1829E+02
    -10.758  0.5621E+01  0.1890E+02
    -10.648  0.5943E+01  0.1953E+02
    -10.538  0.5885E+01  0.2018E+02
    -10.428  0.5915E+01  0.2083E+02
    -10.317  0.5587E+01  0.2148E+02
    -10.207  0.4441E+01  0.2204E+02
    -10.097  0.4404E+01  0.2251E+02
     -9.987  0.5132E+01  0.2305E+02
     -9.877  0.5358E+01  0.2363E+02
     -9.767  0.5537E+01  0.2423E+02
     -9.657  0.5779E+01  0.2485E+02
     -9.547  0.6829E+01  0.2553E+02
     -9.436  0.8490E+01  0.2636E+02
     -9.326  0.8840E+01  0.2739E+02
     -9.216  0.6883E+01  0.2819E+02
     -9.106  0.5549E+01  0.2891E+02
     -8.996  0.3747E+01  0.2951E+02
     -8.886  0.3366E+01  0.2990E+02
     -8.776  0.2985E+01  0.3025E+02
     -8.665  0.2604E+01  0.3056E+02
     -8.555  0.2487E+01  0.3083E+02
     -8.445  0.2767E+01  0.3114E+02
     -8.335  0.2206E+01  0.3142E+02
     -8.225  0.1569E+01  0.3161E+02
     -8.115  0.2423E+01  0.3183E+02
     -8.005  0.6323E+01  0.3224E+02
     -7.894  0.4521E+01  0.3296E+02
     -7.784  0.3924E+01  0.3343E+02
     -7.674  0.4236E+01  0.3387E+02
     -7.564  0.6161E+01  0.3449E+02
     -7.454  0.6856E+01  0.3527E+02
     -7.344  0.7219E+01  0.3601E+02
     -7.234  0.8415E+01  0.3687E+02
     -7.124  0.8016E+01  0.3782E+02
     -7.013  0.6295E+01  0.3860E+02
     -6.903  0.6017E+01  0.3928E+02
     -6.793  0.5749E+01  0.3993E+02
     -6.683  0.5525E+01  0.4055E+02
     -6.573  0.5329E+01  0.4115E+02
     -6.463  0.5148E+01  0.4172E+02
     -6.353  0.4950E+01  0.4228E+02
     -6.242  0.4842E+01  0.4282E+02
     -6.132  0.4818E+01  0.4335E+02
     -6.022  0.4785E+01  0.4388E+02
     -5.912  0.4597E+01  0.4440E+02
     -5.802  0.4437E+01  0.4489E+02
     -5.692  0.3660E+01  0.4536E+02
     -5.582  0.4108E+01  0.4577E+02
     -5.471  0.4509E+01  0.4623E+02
     -5.361  0.5219E+01  0.4677E+02
     -5.251  0.5995E+01  0.4739E+02
     -5.141  0.8078E+01  0.4812E+02
     -5.031  0.1045E+02  0.4914E+02
     -4.921  0.7985E+01  0.5015E+02
     -4.811  0.5517E+01  0.5090E+02
     -4.700  0.3072E+01  0.5137E+02
     -4.590  0.2523E+01  0.5166E+02
     -4.480  0.3434E+01  0.5198E+02
     -4.370  0.4828E+01  0.5243E+02
     -4.260  0.6344E+01  0.5304E+02
     -4.150  0.7935E+01  0.5384E+02
     -4.040  0.7616E+01  0.5472E+02
     -3.930  0.6322E+01  0.5548E+02
     -3.819  0.5387E+01  0.5612E+02
     -3.709  0.7646E+01  0.5685E+02
     -3.599  0.7510E+01  0.5767E+02
     -3.489  0.7247E+01  0.5849E+02
     -3.379  0.7111E+01  0.5928E+02
     -3.269  0.8516E+01  0.6012E+02
     -3.159  0.9996E+01  0.6111E+02
     -3.048  0.7772E+01  0.6213E+02
     -2.938  0.8904E+01  0.6309E+02
     -2.828  0.7770E+01  0.6401E+02
     -2.718  0.6837E+01  0.6480E+02
     -2.608  0.7567E+01  0.6559E+02
     -2.498  0.8654E+01  0.6648E+02
     -2.388  0.1086E+02  0.6755E+02
     -2.277  0.1324E+02  0.6887E+02
     -2.167  0.1195E+02  0.7033E+02
     -2.057  0.1064E+02  0.7154E+02
     -1.947  0.1252E+02  0.7282E+02
     -1.837  0.1307E+02  0.7420E+02
     -1.727  0.1426E+02  0.7580E+02
     -1.617  0.1435E+02  0.7731E+02
     -1.507  0.1127E+02  0.7900E+02
     -1.396  0.1442E+02  0.8018E+02
     -1.286  0.1827E+02  0.8226E+02
     -1.176  0.1955E+02  0.8431E+02
     -1.066  0.1469E+02  0.8617E+02
     -0.956  0.1269E+02  0.8767E+02
     -0.846  0.1185E+02  0.8901E+02
     -0.736  0.7834E+01  0.9012E+02
     -0.625  0.8162E+01  0.9097E+02
     -0.515  0.1043E+02  0.9199E+02
     -0.405  0.1408E+02  0.9344E+02
     -0.295  0.1855E+02  0.9509E+02
     -0.185  0.8687E+01  0.9635E+02
     -0.075  0.8945E+01  0.9734E+02
      0.035  0.9970E+01  0.9837E+02
      0.146  0.1076E+02  0.9951E+02
      0.256  0.1108E+02  0.1007E+03
      0.366  0.9766E+01  0.1019E+03
      0.476  0.9545E+01  0.1030E+03
      0.586  0.9442E+01  0.1040E+03
      0.696  0.9665E+01  0.1051E+03
      0.806  0.1000E+02  0.1061E+03
      0.916  0.9283E+01  0.1072E+03
      1.027  0.9275E+01  0.1082E+03
      1.137  0.9215E+01  0.1092E+03
      1.247  0.9311E+01  0.1103E+03
      1.357  0.9388E+01  0.1113E+03
      1.467  0.9785E+01  0.1123E+03
      1.577  0.9021E+01  0.1134E+03
      1.687  0.9256E+01  0.1144E+03
      1.798  0.9380E+01  0.1154E+03
      1.908  0.8539E+01  0.1164E+03
      2.018  0.6645E+01  0.1173E+03
      2.128  0.5805E+01  0.1180E+03
      2.238  0.5904E+01  0.1186E+03
      2.348  0.4449E+01  0.1192E+03
      2.458  0.4523E+01  0.1197E+03
      2.569  0.7260E+01  0.1203E+03
      2.679  0.8074E+01  0.1211E+03
      2.789  0.7224E+01  0.1220E+03
      2.899  0.3699E+01  0.1226E+03
      3.009  0.6430E+01  0.1233E+03
      3.119  0.7302E+01  0.1240E+03
      3.229  0.5193E+01  0.1247E+03
      3.340  0.4258E+01  0.1252E+03
      3.450  0.3645E+01  0.1256E+03
      3.560  0.3186E+01  0.1260E+03
      3.670  0.2883E+01  0.1264E+03
      3.780  0.2574E+01  0.1267E+03
      3.890  0.2155E+01  0.1269E+03
      4.000  0.1853E+01  0.1271E+03
      4.110  0.1604E+01  0.1273E+03
      4.221  0.1353E+01  0.1275E+03
      4.331  0.1141E+01  0.1276E+03
      4.441  0.9667E+00  0.1277E+03
      4.551  0.8140E+00  0.1278E+03
      4.661  0.5750E+00  0.1279E+03
      4.771  0.3453E+00  0.1280E+03
      4.881  0.1236E+00  0.1280E+03
      4.992  0.2962E-01  0.1280E+03
      5.102  0.1671E+00  0.1280E+03
      5.212  0.3141E+00  0.1280E+03
      5.322  0.4712E+00  0.1281E+03
      5.432  0.6431E+00  0.1281E+03
      5.542  0.8304E+00  0.1282E+03
      5.652  0.1056E+01  0.1283E+03
      5.763  0.1334E+01  0.1285E+03
      5.873  0.1700E+01  0.1286E+03
      5.983  0.2055E+01  0.1288E+03
      6.093  0.2435E+01  0.1291E+03
      6.203  0.3186E+01  0.1294E+03
      6.313  0.3864E+01  0.1298E+03
      6.423  0.4647E+01  0.1303E+03
      6.533  0.1348E+02  0.1312E+03
      6.644  0.8317E+01  0.1322E+03
      6.754  0.7522E+01  0.1331E+03
      6.864  0.7729E+01  0.1339E+03
      6.974  0.7967E+01  0.1348E+03
      7.084  0.6056E+01  0.1355E+03
      7.194  0.5604E+01  0.1362E+03
      7.304  0.5273E+01  0.1368E+03
      7.415  0.4281E+01  0.1373E+03
      7.525  0.3690E+01  0.1377E+03
      7.635  0.3459E+01  0.1381E+03
      7.745  0.3683E+01  0.1385E+03
      7.855  0.4113E+01  0.1390E+03
      7.965  0.4454E+01  0.1394E+03
      8.075  0.4763E+01  0.1399E+03
      8.186  0.4812E+01  0.1405E+03
      8.296  0.4592E+01  0.1410E+03
      8.406  0.4382E+01  0.1415E+03
      8.516  0.4152E+01  0.1420E+03
      8.626  0.3940E+01  0.1424E+03
      8.736  0.3824E+01  0.1428E+03
      8.846  0.3669E+01  0.1432E+03
      8.957  0.3579E+01  0.1436E+03
      9.067  0.3495E+01  0.1440E+03
      9.177  0.3358E+01  0.1444E+03
      9.287  0.3229E+01  0.1448E+03
      9.397  0.3180E+01  0.1451E+03
      9.507  0.3175E+01  0.1455E+03
      9.617  0.3316E+01  0.1458E+03
      9.727  0.3612E+01  0.1462E+03
      9.838  0.3609E+01  0.1466E+03
      9.948  0.3604E+01  0.1470E+03
     10.058  0.3648E+01  0.1474E+03
     10.168  0.3718E+01  0.1478E+03
     10.278  0.3807E+01  0.1482E+03
     10.388  0.3856E+01  0.1486E+03
     10.498  0.3796E+01  0.1491E+03
     10.609  0.3767E+01  0.1495E+03
     10.719  0.3742E+01  0.1499E+03
     10.829  0.4196E+01  0.1503E+03
     10.939  0.4534E+01  0.1508E+03
     11.049  0.4752E+01  0.1513E+03
     11.159  0.4769E+01  0.1518E+03
     11.269  0.4697E+01  0.1524E+03
     11.380  0.4834E+01  0.1529E+03
     11.490  0.4670E+01  0.1535E+03
     11.600  0.3297E+01  0.1539E+03
     11.710  0.3135E+01  0.1542E+03
     11.820  0.2895E+01  0.1546E+03
     11.930  0.3347E+01  0.1549E+03
     12.040  0.3649E+01  0.1553E+03
     12.150  0.3973E+01  0.1557E+03
     12.261  0.6125E+01  0.1563E+03
     12.371  0.7018E+01  0.1570E+03
     12.481  0.1002E+02  0.1579E+03
     12.591  0.1225E+02  0.1592E+03
     12.701  0.1322E+02  0.1606E+03
     12.811  0.1267E+02  0.1621E+03
     12.921  0.1181E+02  0.1634E+03
     13.032  0.9739E+01  0.1646E+03
     13.142  0.7556E+01  0.1656E+03
     13.252  0.6258E+01  0.1663E+03
     13.362  0.5935E+01  0.1670E+03
     13.472  0.3451E+01  0.1675E+03
     13.582  0.1923E+01  0.1678E+03
     13.692  0.6316E+00  0.1680E+03
     13.803  0.7599E-01  0.1680E+03
     13.913  0.4784E-01  0.1680E+03
     14.023  0.2617E-01  0.1680E+03
     14.133  0.1099E-01  0.1680E+03
     14.243  0.2293E-02  0.1680E+03
     14.353  0.0000E+00  0.1680E+03
     14.463  0.0000E+00  0.1680E+03
     14.574  0.0000E+00  0.1680E+03
     14.684  0.0000E+00  0.1680E+03
     14.794  0.0000E+00  0.1680E+03
     14.904  0.0000E+00  0.1680E+03
     15.014  0.0000E+00  0.1680E+03
     15.124  0.0000E+00  0.1680E+03
     15.234  0.0000E+00  0.1680E+03
     15.344  0.0000E+00  0.1680E+03
     15.455  0.0000E+00  0.1680E+03
     15.565  0.0000E+00  0.1680E+03
     15.675  0.0000E+00  0.1680E+03
     15.785  0.0000E+00  0.1680E+03
     15.895  0.0000E+00  0.1680E+03
     16.005  0.0000E+00  0.1680E+03
     16.115  0.0000E+00  0.1680E+03
     16.226  0.0000E+00  0.1680E+03
     16.336  0.0000E+00  0.1680E+03
