 running on    6 total cores
 distrk:  each k-point on    6 cores,    1 groups
 distr:  one band on    1 cores,    6 groups
 using from now: INCAR     
 vasp.5.3.5 31Mar14 (build Nov 02 2014 15:17:37) complex                        
  
 POSCAR found :  1 types and      32 ions
 scaLAPACK will be used

 ----------------------------------------------------------------------------- 
|                                                                             |
|           W    W    AA    RRRRR   N    N  II  N    N   GGGG   !!!           |
|           W    W   A  A   R    R  NN   N  II  NN   N  G    G  !!!           |
|           W    W  A    A  R    R  N N  N  II  N N  N  G       !!!           |
|           W WW W  AAAAAA  RRRRR   N  N N  II  N  N N  G  GGG   !            |
|           WW  WW  A    A  R   R   N   NN  II  N   NN  G    G                |
|           W    W  A    A  R    R  N    N  II  N    N   GGGG   !!!           |
|                                                                             |
|      For optimal performance we recommend to set                            |
|        NCORE= 4 - approx SQRT( number of cores)                             |
|      NCORE specifies how many cores store one orbital (NPAR=cpu/NCORE).     |
|      This setting can  greatly improve the performance of VASP for DFT.     |
|      The default, NPAR=number of cores might be grossly inefficient         |
|      on modern multi-core architectures or massively parallel machines.     |
|      Do your own testing !!!!                                               |
|      Unfortunately you need to use the default for GW and RPA calculations. |
|      (for HF NCORE is supported but not extensively tested yet)             |
|                                                                             |
 ----------------------------------------------------------------------------- 


 ----------------------------------------------------------------------------- 
|                                                                             |
|  ADVICE TO THIS USER RUNNING 'VASP/VAMP'   (HEAR YOUR MASTER'S VOICE ...):  |
|                                                                             |
|      You have a (more or less) 'large supercell' and for larger cells       |
|      it might be more efficient to use real space projection operators      |
|      So try LREAL= Auto  in the INCAR   file.                               |
|      Mind: If you want to do a very accurate calculations keep the          |
|      reciprocal projection scheme          (i.e. LREAL=.FALSE.)             |
|                                                                             |
 ----------------------------------------------------------------------------- 

 LDA part: xc-table for Pade appr. of Perdew
 POSCAR, INCAR and KPOINTS ok, starting setup
 WARNING: small aliasing (wrap around) errors must be expected
 FFT: planning ...
 WAVECAR not read
 WARNING: random wavefunctions but no delay for mixing, default for NELMDL
 entering main loop
       N       E                     dE             d eps       ncg     rms          rms(c)
DAV:   1     0.576474640105E+03    0.57647E+03   -0.72158E+04 27384   0.160E+03
DAV:   2    -0.264584347118E+03   -0.84106E+03   -0.81032E+03 33972   0.311E+02
DAV:   3    -0.312255605326E+03   -0.47671E+02   -0.47202E+02 33336   0.741E+01
DAV:   4    -0.313145145066E+03   -0.88954E+00   -0.88781E+00 34800   0.109E+01
DAV:   5    -0.313170588811E+03   -0.25444E-01   -0.25433E-01 34848   0.174E+00    0.221E+01
DAV:   6    -0.298867687784E+03    0.14303E+02   -0.14773E+01 31296   0.107E+01    0.116E+01
DAV:   7    -0.294370852231E+03    0.44968E+01   -0.15296E+01 31176   0.109E+01    0.191E+00
DAV:   8    -0.294428193752E+03   -0.57342E-01   -0.37555E-01 30864   0.176E+00    0.256E-01
DAV:   9    -0.294429551141E+03   -0.13574E-02   -0.14052E-02 33444   0.394E-01    0.115E-01
DAV:  10    -0.294430218140E+03   -0.66700E-03   -0.31371E-03 33360   0.161E-01    0.829E-02
DAV:  11    -0.294430577732E+03   -0.35959E-03   -0.10665E-03 31320   0.993E-02    0.412E-02
DAV:  12    -0.294430725361E+03   -0.14763E-03   -0.12379E-03 33756   0.884E-02    0.380E-02
DAV:  13    -0.294430698178E+03    0.27184E-04   -0.43931E-04 32976   0.588E-02    0.571E-03
DAV:  14    -0.294430702354E+03   -0.41767E-05   -0.32086E-05 31500   0.190E-02    0.664E-03
DAV:  15    -0.294430701476E+03    0.87874E-06   -0.20066E-05 23292   0.105E-02    0.334E-03
DAV:  16    -0.294430701123E+03    0.35276E-06   -0.73726E-06 21264   0.669E-03
   1 F= -.29962588E+03 E0= -.29962588E+03  d E =0.000000E+00
