  32  32   0   0
  0.3102054E+01  0.4934311E-09  0.4934311E-09  0.4708020E-09  0.5000000E-15
  1.000000000000000E-004
  CAR 
 graphite                                
     31.92837263    -13.04908760  301     22.37986352      1.00000000
    -13.049  0.0000E+00  0.0000E+00
    -12.899  0.0000E+00  0.0000E+00
    -12.749  0.0000E+00  0.0000E+00
    -12.599  0.0000E+00  0.0000E+00
    -12.449  0.0000E+00  0.0000E+00
    -12.299  0.0000E+00  0.0000E+00
    -12.150  0.0000E+00  0.0000E+00
    -12.000  0.0000E+00  0.0000E+00
    -11.850  0.0000E+00  0.0000E+00
    -11.700  0.0000E+00  0.0000E+00
    -11.550  0.0000E+00  0.0000E+00
    -11.400  0.0000E+00  0.0000E+00
    -11.250  0.0000E+00  0.0000E+00
    -11.100  0.0000E+00  0.0000E+00
    -10.950  0.6039E-01  0.1097E-02
    -10.800  0.3446E+00  0.3206E-01
    -10.650  0.6046E+00  0.1052E+00
    -10.500  0.7006E+00  0.2023E+00
    -10.350  0.7937E+00  0.3142E+00
    -10.201  0.8854E+00  0.4401E+00
    -10.051  0.9872E+00  0.5802E+00
     -9.901  0.1082E+01  0.7354E+00
     -9.751  0.1194E+01  0.9049E+00
     -9.601  0.1293E+01  0.1092E+01
     -9.451  0.1414E+01  0.1297E+01
     -9.301  0.1295E+01  0.1499E+01
     -9.151  0.1267E+01  0.1689E+01
     -9.001  0.1433E+01  0.1891E+01
     -8.851  0.1897E+01  0.2137E+01
     -8.701  0.2162E+01  0.2443E+01
     -8.551  0.2203E+01  0.2774E+01
     -8.401  0.1950E+01  0.3088E+01
     -8.251  0.1431E+01  0.3347E+01
     -8.102  0.1307E+01  0.3545E+01
     -7.952  0.1492E+01  0.3750E+01
     -7.802  0.1956E+01  0.4012E+01
     -7.652  0.1577E+01  0.4294E+01
     -7.502  0.1869E+01  0.4547E+01
     -7.352  0.2432E+01  0.4883E+01
     -7.202  0.2438E+01  0.5251E+01
     -7.052  0.2185E+01  0.5600E+01
     -6.902  0.2119E+01  0.5921E+01
     -6.752  0.1961E+01  0.6227E+01
     -6.602  0.1946E+01  0.6518E+01
     -6.452  0.2137E+01  0.6821E+01
     -6.302  0.2342E+01  0.7157E+01
     -6.153  0.2702E+01  0.7531E+01
     -6.003  0.2900E+01  0.7966E+01
     -5.853  0.3321E+01  0.8416E+01
     -5.703  0.3685E+01  0.8955E+01
     -5.553  0.3832E+01  0.9516E+01
     -5.403  0.3999E+01  0.1010E+02
     -5.253  0.3999E+01  0.1071E+02
     -5.103  0.2521E+01  0.1121E+02
     -4.953  0.1704E+01  0.1152E+02
     -4.803  0.1342E+01  0.1174E+02
     -4.653  0.1192E+01  0.1193E+02
     -4.503  0.2538E+01  0.1221E+02
     -4.353  0.3192E+01  0.1264E+02
     -4.204  0.2948E+01  0.1311E+02
     -4.054  0.2462E+01  0.1353E+02
     -3.904  0.2285E+01  0.1388E+02
     -3.754  0.2348E+01  0.1423E+02
     -3.604  0.2511E+01  0.1459E+02
     -3.454  0.2168E+01  0.1495E+02
     -3.304  0.2230E+01  0.1527E+02
     -3.154  0.2605E+01  0.1565E+02
     -3.004  0.3056E+01  0.1608E+02
     -2.854  0.3225E+01  0.1655E+02
     -2.704  0.3303E+01  0.1703E+02
     -2.554  0.3428E+01  0.1754E+02
     -2.404  0.3452E+01  0.1806E+02
     -2.254  0.3425E+01  0.1858E+02
     -2.105  0.3271E+01  0.1907E+02
     -1.955  0.3295E+01  0.1956E+02
     -1.805  0.3139E+01  0.2005E+02
     -1.655  0.2885E+01  0.2049E+02
     -1.505  0.2931E+01  0.2093E+02
     -1.355  0.3058E+01  0.2138E+02
     -1.205  0.3235E+01  0.2185E+02
     -1.055  0.3619E+01  0.2235E+02
     -0.905  0.4268E+01  0.2297E+02
     -0.755  0.4220E+01  0.2360E+02
     -0.605  0.4689E+01  0.2427E+02
     -0.455  0.4823E+01  0.2499E+02
     -0.305  0.4462E+01  0.2568E+02
     -0.156  0.4387E+01  0.2634E+02
     -0.006  0.3768E+01  0.2698E+02
      0.144  0.3235E+01  0.2749E+02
      0.294  0.3071E+01  0.2796E+02
      0.444  0.3561E+01  0.2844E+02
      0.594  0.3384E+01  0.2896E+02
      0.744  0.2786E+01  0.2945E+02
      0.894  0.2860E+01  0.2985E+02
      1.044  0.4610E+01  0.3045E+02
      1.194  0.5145E+01  0.3121E+02
      1.344  0.2664E+01  0.3171E+02
      1.494  0.3179E+01  0.3214E+02
      1.644  0.4249E+01  0.3270E+02
      1.793  0.4200E+01  0.3333E+02
      1.943  0.4030E+01  0.3395E+02
      2.093  0.4323E+01  0.3457E+02
      2.243  0.5254E+01  0.3528E+02
      2.393  0.5309E+01  0.3607E+02
      2.543  0.5362E+01  0.3688E+02
      2.693  0.4769E+01  0.3763E+02
      2.843  0.4771E+01  0.3834E+02
      2.993  0.5616E+01  0.3910E+02
      3.143  0.6170E+01  0.3998E+02
      3.293  0.5707E+01  0.4088E+02
      3.443  0.5380E+01  0.4170E+02
      3.593  0.5800E+01  0.4255E+02
      3.742  0.6629E+01  0.4348E+02
      3.892  0.6013E+01  0.4444E+02
      4.042  0.5821E+01  0.4532E+02
      4.192  0.5866E+01  0.4620E+02
      4.342  0.5608E+01  0.4705E+02
      4.492  0.6047E+01  0.4791E+02
      4.642  0.6682E+01  0.4888E+02
      4.792  0.5986E+01  0.4985E+02
      4.942  0.5017E+01  0.5067E+02
      5.092  0.5542E+01  0.5146E+02
      5.242  0.5711E+01  0.5230E+02
      5.392  0.4903E+01  0.5307E+02
      5.542  0.5863E+01  0.5387E+02
      5.692  0.5658E+01  0.5474E+02
      5.841  0.5069E+01  0.5556E+02
      5.991  0.4774E+01  0.5630E+02
      6.141  0.4812E+01  0.5702E+02
      6.291  0.3986E+01  0.5767E+02
      6.441  0.4319E+01  0.5829E+02
      6.591  0.3500E+01  0.5887E+02
      6.741  0.3282E+01  0.5938E+02
      6.891  0.3191E+01  0.5986E+02
      7.041  0.3380E+01  0.6036E+02
      7.191  0.4028E+01  0.6088E+02
      7.341  0.3503E+01  0.6147E+02
      7.491  0.3377E+01  0.6198E+02
      7.641  0.3174E+01  0.6249E+02
      7.790  0.2880E+01  0.6293E+02
      7.940  0.3079E+01  0.6338E+02
      8.090  0.3325E+01  0.6386E+02
      8.240  0.3290E+01  0.6436E+02
      8.390  0.3008E+01  0.6484E+02
      8.540  0.2742E+01  0.6526E+02
      8.690  0.2910E+01  0.6569E+02
      8.840  0.3122E+01  0.6614E+02
      8.990  0.3092E+01  0.6661E+02
      9.140  0.2747E+01  0.6706E+02
      9.290  0.2737E+01  0.6746E+02
      9.440  0.2790E+01  0.6788E+02
      9.590  0.2818E+01  0.6830E+02
      9.739  0.2859E+01  0.6872E+02
      9.889  0.3136E+01  0.6917E+02
     10.039  0.3601E+01  0.6967E+02
     10.189  0.3760E+01  0.7023E+02
     10.339  0.3557E+01  0.7078E+02
     10.489  0.3132E+01  0.7128E+02
     10.639  0.3035E+01  0.7174E+02
     10.789  0.2937E+01  0.7219E+02
     10.939  0.2821E+01  0.7262E+02
     11.089  0.2602E+01  0.7303E+02
     11.239  0.2455E+01  0.7341E+02
     11.389  0.2350E+01  0.7376E+02
     11.539  0.2348E+01  0.7411E+02
     11.689  0.2421E+01  0.7447E+02
     11.838  0.2467E+01  0.7484E+02
     11.988  0.2437E+01  0.7521E+02
     12.138  0.1979E+01  0.7554E+02
     12.288  0.1659E+01  0.7581E+02
     12.438  0.1531E+01  0.7605E+02
     12.588  0.1733E+01  0.7629E+02
     12.738  0.2465E+01  0.7660E+02
     12.888  0.2205E+01  0.7696E+02
     13.038  0.2160E+01  0.7729E+02
     13.188  0.2737E+01  0.7764E+02
     13.338  0.3219E+01  0.7809E+02
     13.488  0.3064E+01  0.7857E+02
     13.638  0.2596E+01  0.7898E+02
     13.787  0.2692E+01  0.7938E+02
     13.937  0.2813E+01  0.7979E+02
     14.087  0.2947E+01  0.8021E+02
     14.237  0.3762E+01  0.8073E+02
     14.387  0.4371E+01  0.8134E+02
     14.537  0.4820E+01  0.8205E+02
     14.687  0.4993E+01  0.8280E+02
     14.837  0.4760E+01  0.8353E+02
     14.987  0.4748E+01  0.8423E+02
     15.137  0.5149E+01  0.8499E+02
     15.287  0.5104E+01  0.8577E+02
     15.437  0.4448E+01  0.8649E+02
     15.587  0.3836E+01  0.8711E+02
     15.736  0.3305E+01  0.8764E+02
     15.886  0.3431E+01  0.8815E+02
     16.036  0.3610E+01  0.8869E+02
     16.186  0.3673E+01  0.8923E+02
     16.336  0.4852E+01  0.8988E+02
     16.486  0.5489E+01  0.9065E+02
     16.636  0.5466E+01  0.9149E+02
     16.786  0.6024E+01  0.9234E+02
     16.936  0.6044E+01  0.9325E+02
     17.086  0.6071E+01  0.9416E+02
     17.236  0.6040E+01  0.9507E+02
     17.386  0.6075E+01  0.9598E+02
     17.536  0.6315E+01  0.9691E+02
     17.686  0.6221E+01  0.9785E+02
     17.835  0.6188E+01  0.9878E+02
     17.985  0.6076E+01  0.9970E+02
     18.135  0.6634E+01  0.1006E+03
     18.285  0.6291E+01  0.1016E+03
     18.435  0.5783E+01  0.1025E+03
     18.585  0.5673E+01  0.1034E+03
     18.735  0.5904E+01  0.1042E+03
     18.885  0.5816E+01  0.1051E+03
     19.035  0.5671E+01  0.1060E+03
     19.185  0.5107E+01  0.1068E+03
     19.335  0.5741E+01  0.1076E+03
     19.485  0.6612E+01  0.1085E+03
     19.635  0.6505E+01  0.1095E+03
     19.784  0.6018E+01  0.1104E+03
     19.934  0.5787E+01  0.1113E+03
     20.084  0.8125E+01  0.1123E+03
     20.234  0.7424E+01  0.1134E+03
     20.384  0.8111E+01  0.1146E+03
     20.534  0.1004E+02  0.1159E+03
     20.684  0.1080E+02  0.1175E+03
     20.834  0.1011E+02  0.1191E+03
     20.984  0.1035E+02  0.1207E+03
     21.134  0.7454E+01  0.1220E+03
     21.284  0.6578E+01  0.1230E+03
     21.434  0.4797E+01  0.1238E+03
     21.584  0.4911E+01  0.1246E+03
     21.733  0.4791E+01  0.1253E+03
     21.883  0.4756E+01  0.1260E+03
     22.033  0.3730E+01  0.1266E+03
     22.183  0.3864E+01  0.1272E+03
     22.333  0.4281E+01  0.1278E+03
     22.483  0.5373E+01  0.1285E+03
     22.633  0.6219E+01  0.1295E+03
     22.783  0.6078E+01  0.1303E+03
     22.933  0.6308E+01  0.1313E+03
     23.083  0.5855E+01  0.1322E+03
     23.233  0.5783E+01  0.1330E+03
     23.383  0.6084E+01  0.1339E+03
     23.533  0.4966E+01  0.1348E+03
     23.683  0.3907E+01  0.1354E+03
     23.832  0.4462E+01  0.1360E+03
     23.982  0.5932E+01  0.1369E+03
     24.132  0.4214E+01  0.1376E+03
     24.282  0.4502E+01  0.1382E+03
     24.432  0.4893E+01  0.1390E+03
     24.582  0.5190E+01  0.1397E+03
     24.732  0.5541E+01  0.1405E+03
     24.882  0.5497E+01  0.1414E+03
     25.032  0.5405E+01  0.1422E+03
     25.182  0.6092E+01  0.1430E+03
     25.332  0.4833E+01  0.1439E+03
     25.482  0.4706E+01  0.1446E+03
     25.632  0.4373E+01  0.1452E+03
     25.781  0.5758E+01  0.1459E+03
     25.931  0.6344E+01  0.1469E+03
     26.081  0.5207E+01  0.1477E+03
     26.231  0.6100E+01  0.1486E+03
     26.381  0.7260E+01  0.1496E+03
     26.531  0.7746E+01  0.1507E+03
     26.681  0.8016E+01  0.1519E+03
     26.831  0.7437E+01  0.1531E+03
     26.981  0.8300E+01  0.1542E+03
     27.131  0.8693E+01  0.1555E+03
     27.281  0.9344E+01  0.1569E+03
     27.431  0.9687E+01  0.1583E+03
     27.581  0.9988E+01  0.1598E+03
     27.730  0.1049E+02  0.1613E+03
     27.880  0.8318E+01  0.1628E+03
     28.030  0.6612E+01  0.1639E+03
     28.180  0.5898E+01  0.1648E+03
     28.330  0.4508E+01  0.1656E+03
     28.480  0.3289E+01  0.1662E+03
     28.630  0.2672E+01  0.1666E+03
     28.780  0.2116E+01  0.1670E+03
     28.930  0.1986E+01  0.1673E+03
     29.080  0.1684E+01  0.1676E+03
     29.230  0.1247E+01  0.1678E+03
     29.380  0.4508E+00  0.1679E+03
     29.530  0.2593E+00  0.1680E+03
     29.679  0.1498E+00  0.1680E+03
     29.829  0.1125E-01  0.1680E+03
     29.979  0.0000E+00  0.1680E+03
     30.129  0.0000E+00  0.1680E+03
     30.279  0.0000E+00  0.1680E+03
     30.429  0.0000E+00  0.1680E+03
     30.579  0.0000E+00  0.1680E+03
     30.729  0.0000E+00  0.1680E+03
     30.879  0.0000E+00  0.1680E+03
     31.029  0.0000E+00  0.1680E+03
     31.179  0.0000E+00  0.1680E+03
     31.329  0.0000E+00  0.1680E+03
     31.479  0.0000E+00  0.1680E+03
     31.629  0.0000E+00  0.1680E+03
     31.778  0.0000E+00  0.1680E+03
     31.928  0.0000E+00  0.1680E+03
