   32   32    1    1
  0.3102054E+01  0.4934311E-09  0.4934311E-09  0.4708020E-09  0.5000000E-15
  1.000000000000000E-004
  CAR 
 graphite                                
    128    163     84
 
  0.0000000E+00  0.0000000E+00  0.0000000E+00  0.3086420E-02
    1      -11.004658
    2       -6.123278
    3       -6.117094
    4       -5.676819
    5       -5.669886
    6       -5.663132
    7       -3.950008
    8       -3.944543
    9       -3.938279
   10       -1.384621
   11       -1.377604
   12       -1.376328
   13       -1.371267
   14       -1.369706
   15       -1.363672
   16        1.944101
   17        1.950499
   18        1.952578
   19        1.956637
   20        1.957837
   21        1.964746
   22        3.087604
   23        3.920032
   24        3.923559
   25        3.925690
   26        5.813433
   27        5.818501
   28        5.822966
   29        8.625603
   30        8.635988
   31        9.941831
   32        9.948306
   33        9.953565
   34        9.954185
   35        9.959952
   36        9.965613
   37       13.699106
   38       13.708960
   39       13.713698
   40       13.722185
   41       14.190744
   42       14.191823
   43       14.194864
   44       14.611190
   45       14.618370
   46       16.252165
   47       17.373067
   48       17.380754
   49       17.389022
   50       17.547936
   51       17.552457
   52       17.554897
   53       17.556437
   54       17.556631
   55       17.560825
   56       19.778657
   57       19.784799
   58       19.792062
   59       20.089165
   60       20.095956
   61       20.104735
   62       20.168089
   63       20.170983
   64       21.193668
   65       21.434653
   66       21.441820
   67       21.448502
   68       22.538133
   69       23.900356
   70       23.915357
   71       23.924795
   72       23.938793
   73       24.903227
   74       24.904989
   75       24.910769
   76       26.477599
   77       26.490299
   78       27.547289
   79       29.429543
   80       29.435851
   81       29.437435
   82       29.437802
   83       29.439207
   84       29.444463
 
  0.1111111E+00  0.1387779E-16  0.0000000E+00  0.6172840E-02
    1      -10.928442
    2       -6.334778
    3       -6.047565
    4       -6.041194
    5       -5.838215
    6       -5.829956
    7       -3.645586
    8       -3.639016
    9       -3.146211
   10       -1.794055
   11       -1.786918
   12       -1.450085
   13       -1.445763
   14       -1.443501
   15       -1.434428
   16        2.150118
   17        2.154057
   18        2.154617
   19        2.164750
   20        2.499780
   21        2.506910
   22        3.150299
   23        3.588928
   24        3.593017
   25        4.008951
   26        5.705580
   27        5.807584
   28        5.814571
   29        8.100351
   30        8.330451
   31        9.537475
   32        9.546677
   33        9.552198
   34        9.554510
   35       10.026482
   36       10.038118
   37       13.222900
   38       13.234586
   39       13.523807
   40       13.534957
   41       14.222841
   42       14.593375
   43       14.597711
   44       14.748637
   45       15.033933
   46       16.318938
   47       17.490835
   48       17.500841
   49       17.564203
   50       17.609375
   51       17.611424
   52       18.057860
   53       18.062103
   54       18.064889
   55       18.066488
   56       19.203311
   57       19.567638
   58       19.572678
   59       20.098393
   60       20.100911
   61       20.430543
   62       20.436492
   63       20.755713
   64       21.363891
   65       21.372617
   66       21.396665
   67       21.444850
   68       22.392427
   69       23.977263
   70       23.991402
   71       24.256028
   72       24.278305
   73       24.637550
   74       24.641190
   75       25.035552
   76       27.086862
   77       27.094377
   78       27.541969
   79       29.222011
   80       29.223541
   81       29.225216
   82       29.230389
   83       29.255008
   84       29.262478
 
  0.2222222E+00  0.4163336E-16  0.0000000E+00  0.6172840E-02
    1      -10.700007
    2       -7.350942
    3       -6.132216
    4       -6.125227
    5       -5.821039
    6       -5.814874
    7       -2.942423
    8       -2.937076
    9       -2.625771
   10       -2.618814
   11       -1.728301
   12       -1.603479
   13       -1.598942
   14       -1.597509
   15       -1.588677
   16        2.689534
   17        2.693438
   18        2.693971
   19        2.702676
   20        2.744676
   21        2.748140
   22        3.335219
   23        3.731718
   24        3.739067
   25        4.261604
   26        5.394177
   27        5.789170
   28        5.796129
   29        6.803522
   30        7.612428
   31        8.574308
   32        8.582047
   33        8.586928
   34        8.589966
   35       10.255910
   36       10.267417
   37       12.005385
   38       12.015599
   39       13.037565
   40       13.048606
   41       14.313794
   42       14.916125
   43       15.607236
   44       15.612081
   45       16.087036
   46       16.514211
   47       17.772308
   48       17.774056
   49       17.804343
   50       17.815535
   51       18.084663
   52       18.572389
   53       19.318530
   54       19.321566
   55       19.325772
   56       19.327507
   57       19.364672
   58       19.367974
   59       19.811616
   60       19.816433
   61       20.971556
   62       20.975229
   63       21.207875
   64       21.220998
   65       21.227632
   66       21.611965
   67       21.977060
   68       22.154742
   69       23.965679
   70       23.972080
   71       24.392602
   72       24.397936
   73       25.241175
   74       25.262482
   75       25.410815
   76       27.237490
   77       28.509541
   78       28.514663
   79       28.548956
   80       28.551100
   81       28.554430
   82       28.558736
   83       28.755788
   84       28.762802
 
  0.3333333E+00  0.5551115E-16  0.0000000E+00  0.6172840E-02
    1      -10.320140
    2       -8.295988
    3       -6.372349
    4       -6.366152
    5       -5.446592
    6       -5.440318
    7       -3.489541
    8       -3.482897
    9       -2.048142
   10       -2.042929
   11       -1.752975
   12       -1.747948
   13       -1.747184
   14       -1.738539
   15       -0.123961
   16        1.660037
   17        1.664691
   18        3.439460
   19        3.443565
   20        3.443796
   21        3.454373
   22        3.632939
   23        4.677459
   24        4.959685
   25        5.147185
   26        5.251649
   27        5.259268
   28        5.768514
   29        5.775413
   30        6.768947
   31        7.443292
   32        7.450013
   33        7.454283
   34        7.457970
   35       10.406232
   36       10.415384
   37       10.629568
   38       10.640957
   39       12.400022
   40       12.411109
   41       14.455092
   42       14.922941
   43       16.786365
   44       16.791284
   45       16.798968
   46       17.429680
   47       18.015004
   48       18.041143
   49       18.044751
   50       18.232941
   51       18.245779
   52       18.835492
   53       19.310750
   54       19.316606
   55       19.350997
   56       19.355629
   57       20.753353
   58       20.765171
   59       20.776220
   60       20.895757
   61       20.900101
   62       20.902240
   63       20.904525
   64       21.344845
   65       21.964991
   66       21.974062
   67       22.507814
   68       23.120979
   69       23.171474
   70       23.180284
   71       25.169886
   72       25.173913
   73       26.031265
   74       26.629335
   75       26.697681
   76       26.718025
   77       27.322960
   78       27.333014
   79       27.437802
   80       27.440477
   81       27.442421
   82       27.445813
   83       28.005771
   84       28.012396
 
  0.4444444E+00  0.8326673E-16  0.0000000E+00  0.6172840E-02
    1       -9.790444
    2       -9.113580
    3       -6.500486
    4       -6.494588
    5       -4.926483
    6       -4.920115
    7       -4.268693
    8       -4.262181
    9       -1.839941
   10       -1.834774
   11       -1.834244
   12       -1.825794
   13       -1.144297
   14       -1.137924
   15        0.631849
   16        0.637403
   17        1.591928
   18        3.369931
   19        4.023951
   20        4.166776
   21        4.169774
   22        4.171428
   23        4.183480
   24        4.481881
   25        5.249547
   26        5.755238
   27        5.762089
   28        5.957775
   29        6.503144
   30        6.509804
   31        6.512469
   32        6.518515
   33        6.921763
   34        6.929643
   35        8.667185
   36        8.675600
   37       11.132621
   38       11.143743
   39       11.738375
   40       11.749697
   41       14.628601
   42       14.802309
   43       17.139386
   44       17.542131
   45       17.565016
   46       17.568997
   47       18.406474
   48       18.409654
   49       18.583065
   50       18.597320
   51       18.799673
   52       18.855090
   53       18.859630
   54       19.498144
   55       19.504370
   56       19.696784
   57       19.970443
   58       20.334510
   59       20.347737
   60       20.561383
   61       22.267948
   62       22.275652
   63       22.277564
   64       22.280096
   65       22.600677
   66       22.612094
   67       23.277206
   68       23.287441
   69       23.343188
   70       23.733926
   71       25.120683
   72       25.131490
   73       26.116956
   74       26.122132
   75       26.277027
   76       26.279530
   77       26.280922
   78       26.289568
   79       26.460090
   80       26.874705
   81       27.096040
   82       27.101748
   83       27.426474
   84       27.878151
 
  0.0000000E+00  0.1111111E+00  0.0000000E+00  0.6172840E-02
    1      -10.928441
    2       -6.335365
    3       -6.047601
    4       -6.041396
    5       -5.836374
    6       -5.830414
    7       -3.646993
    8       -3.640474
    9       -3.143938
   10       -1.794867
   11       -1.788154
   12       -1.448696
   13       -1.443937
   14       -1.441652
   15       -1.436772
   16        2.147334
   17        2.153727
   18        2.154776
   19        2.160887
   20        2.502780
   21        2.509918
   22        3.150279
   23        3.590022
   24        3.593877
   25        4.006969
   26        5.704327
   27        5.810529
   28        5.812955
   29        8.105824
   30        8.324890
   31        9.540085
   32        9.546301
   33        9.551626
   34        9.557638
   35       10.024509
   36       10.035361
   37       13.231717
   38       13.236331
   39       13.521761
   40       13.526276
   41       14.222352
   42       14.593154
   43       14.598417
   44       14.745844
   45       15.036828
   46       16.318808
   47       17.488576
   48       17.496434
   49       17.570624
   50       17.606948
   51       17.608823
   52       18.060101
   53       18.063413
   54       18.065058
   55       18.067985
   56       19.203939
   57       19.566260
   58       19.572830
   59       20.097462
   60       20.100013
   61       20.430795
   62       20.436322
   63       20.756738
   64       21.366632
   65       21.372800
   66       21.393030
   67       21.444887
   68       22.392652
   69       23.974924
   70       23.984316
   71       24.266110
   72       24.282703
   73       24.638288
   74       24.646958
   75       25.029672
   76       27.085325
   77       27.092689
   78       27.544444
   79       29.216841
   80       29.222334
   81       29.224959
   82       29.229021
   83       29.261449
   84       29.263270
 
  0.1111111E+00  0.1111111E+00  0.0000000E+00  0.6172840E-02
    1      -10.776098
    2       -6.795044
    3       -6.785905
    4       -5.896546
    5       -5.890243
    6       -5.477034
    7       -3.721506
    8       -2.424275
    9       -2.415141
   10       -2.147225
   11       -2.138184
   12       -2.135303
   13       -2.130206
   14       -1.192067
   15       -1.185171
   16        2.154684
   17        2.161732
   18        2.662538
   19        3.104684
   20        3.114229
   21        3.116756
   22        3.122435
   23        3.274288
   24        3.757516
   25        3.761677
   26        5.591352
   27        5.597983
   28        5.899975
   29        7.266404
   30        7.746789
   31        8.496975
   32        8.507348
   33        9.697033
   34        9.700059
   35        9.705026
   36        9.714794
   37       12.431288
   38       12.441855
   39       13.125338
   40       13.136053
   41       14.653882
   42       14.656188
   43       15.027263
   44       15.584559
   45       15.623265
   46       16.459316
   47       17.649546
   48       17.838863
   49       17.849116
   50       18.161932
   51       18.165486
   52       18.167861
   53       18.172723
   54       18.920681
   55       18.931247
   56       19.280518
   57       19.283948
   58       19.777226
   59       19.970623
   60       19.973487
   61       20.546950
   62       21.171302
   63       21.181055
   64       21.214558
   65       21.309152
   66       21.316678
   67       21.928635
   68       22.112993
   69       23.821935
   70       24.007365
   71       24.010236
   72       24.898654
   73       24.907043
   74       25.131571
   75       25.149803
   76       27.365662
   77       28.066217
   78       28.070883
   79       28.815588
   80       28.818545
   81       28.822749
   82       28.826583
   83       28.829083
   84       28.832331
 
  0.2222222E+00  0.1111111E+00  0.0000000E+00  0.6172840E-02
    1      -10.471941
    2       -7.782846
    3       -7.135118
    4       -5.596091
    5       -5.589640
    6       -5.440278
    7       -3.215154
    8       -3.011390
    9       -3.004532
   10       -2.420955
   11       -2.414295
   12       -1.547373
   13       -1.082062
   14       -1.075035
   15       -0.901100
   16        1.486869
   17        2.542305
   18        2.549445
   19        2.996341
   20        3.515454
   21        3.892577
   22        3.900091
   23        4.094520
   24        4.503698
   25        4.511230
   26        5.216599
   27        5.498346
   28        5.896603
   29        5.963940
   30        6.874533
   31        7.263827
   32        7.273275
   33        8.822260
   34        8.831869
   35       10.007439
   36       10.018368
   37       11.112342
   38       11.122573
   39       12.451626
   40       12.463212
   41       14.770760
   42       15.247377
   43       15.682678
   44       16.578407
   45       16.778389
   46       16.785543
   47       18.009935
   48       18.252261
   49       18.336225
   50       18.371875
   51       18.375018
   52       18.468895
   53       18.787628
   54       19.446013
   55       19.449401
   56       19.675869
   57       19.749957
   58       19.753363
   59       20.860418
   60       20.865627
   61       20.897775
   62       20.943155
   63       20.946664
   64       21.382036
   65       21.595342
   66       21.886613
   67       22.116819
   68       22.781299
   69       22.816921
   70       24.339093
   71       24.342416
   72       24.408816
   73       25.425757
   74       26.561304
   75       26.579921
   76       26.820551
   77       27.826462
   78       27.829801
   79       27.914844
   80       28.050199
   81       28.056656
   82       28.094886
   83       28.101434
   84       28.574207
 
  0.3333333E+00  0.1111111E+00  0.0000000E+00  0.6172840E-02
    1      -10.017106
    2       -8.665839
    3       -7.346843
    4       -5.528120
    5       -5.148475
    6       -5.142191
    7       -3.838889
    8       -3.832318
    9       -2.598878
   10       -2.592316
   11       -2.362710
   12       -1.066523
   13       -1.059606
   14       -0.607823
   15        0.286200
   16        0.753525
   17        2.022187
   18        3.190019
   19        3.197174
   20        3.860436
   21        4.236972
   22        4.587574
   23        4.727642
   24        4.734614
   25        4.757077
   26        5.433254
   27        5.999312
   28        6.007751
   29        6.095407
   30        6.103827
   31        6.109765
   32        6.117423
   33        7.826621
   34        7.835789
   35        9.501414
   36        9.510440
   37       10.458693
   38       10.469448
   39       11.720377
   40       11.731640
   41       14.926332
   42       15.228976
   43       16.783771
   44       17.017354
   45       17.742038
   46       17.826933
   47       17.970774
   48       18.472479
   49       18.647659
   50       18.664893
   51       18.668374
   52       18.908726
   53       19.258551
   54       19.412100
   55       19.416226
   56       19.582290
   57       20.300892
   58       20.335913
   59       20.674597
   60       20.901791
   61       20.932243
   62       20.936192
   63       21.904174
   64       22.465862
   65       22.471185
   66       22.743471
   67       22.753704
   68       22.998701
   69       23.624976
   70       23.873736
   71       25.095869
   72       25.101140
   73       25.774044
   74       26.190340
   75       26.237331
   76       26.492949
   77       26.497327
   78       26.875932
   79       26.987552
   80       26.994262
   81       27.145766
   82       27.151437
   83       27.253284
   84       28.240997
 
  0.4444444E+00  0.1111111E+00  0.0000000E+00  0.6172840E-02
    1       -9.418266
    2       -9.409269
    3       -7.418011
    4       -5.570005
    5       -4.564343
    6       -4.558212
    7       -4.554691
    8       -4.547129
    9       -2.659818
   10       -2.653176
   11       -1.705181
   12       -1.071049
   13       -1.064194
   14       -0.483355
   15        0.012444
   16        1.375344
   17        2.483288
   18        2.489367
   19        3.635225
   20        3.641939
   21        4.281620
   22        4.290415
   23        5.210372
   24        5.217555
   25        5.225210
   26        5.238485
   27        5.410338
   28        5.496527
   29        5.504099
   30        6.012754
   31        7.274971
   32        7.284433
   33        7.784362
   34        7.794532
   35        7.797701
   36        7.799095
   37       11.034632
   38       11.039370
   39       11.042451
   40       11.060334
   41       15.089866
   42       15.099268
   43       17.246666
   44       17.389669
   45       17.393412
   46       18.112082
   47       18.727511
   48       18.822881
   49       19.021506
   50       19.022261
   51       19.030540
   52       19.037189
   53       19.258024
   54       19.270611
   55       19.375485
   56       19.556820
   57       19.704060
   58       20.095883
   59       20.102925
   60       20.534837
   61       21.488989
   62       21.756703
   63       21.762613
   64       23.361643
   65       23.367429
   66       23.637468
   67       23.693964
   68       23.699432
   69       23.852387
   70       24.173724
   71       24.540780
   72       24.738832
   73       25.704236
   74       25.710909
   75       26.089012
   76       26.098359
   77       26.102364
   78       26.105886
   79       26.271028
   80       26.278441
   81       26.353933
   82       26.363380
   83       27.151190
   84       27.165021
 
 -0.4444444E+00  0.1111111E+00  0.0000000E+00  0.6172840E-02
    1      -10.017192
    2       -8.665696
    3       -7.347101
    4       -5.527487
    5       -5.148627
    6       -5.142296
    7       -3.838732
    8       -3.832149
    9       -2.599273
   10       -2.592594
   11       -2.362811
   12       -1.065836
   13       -1.059057
   14       -0.608303
   15        0.285707
   16        0.753036
   17        2.022959
   18        3.189511
   19        3.196775
   20        3.860288
   21        4.237935
   22        4.588302
   23        4.727403
   24        4.734259
   25        4.757451
   26        5.432902
   27        5.999351
   28        6.006879
   29        6.093140
   30        6.103065
   31        6.111148
   32        6.117512
   33        7.826823
   34        7.836611
   35        9.502956
   36        9.511118
   37       10.459531
   38       10.470401
   39       11.719323
   40       11.729404
   41       14.926069
   42       15.229111
   43       16.786106
   44       17.017624
   45       17.740004
   46       17.826889
   47       17.971820
   48       18.471352
   49       18.647839
   50       18.664628
   51       18.668297
   52       18.908965
   53       19.257848
   54       19.412601
   55       19.416417
   56       19.582932
   57       20.301075
   58       20.333850
   59       20.675039
   60       20.902410
   61       20.932917
   62       20.938325
   63       21.904853
   64       22.465386
   65       22.468412
   66       22.742164
   67       22.753508
   68       22.998333
   69       23.624171
   70       23.873551
   71       25.099807
   72       25.104769
   73       25.772831
   74       26.191388
   75       26.240669
   76       26.491262
   77       26.497755
   78       26.879078
   79       26.989317
   80       26.992672
   81       27.142653
   82       27.148175
   83       27.248997
   84       28.236275
 
 -0.3333333E+00  0.1111111E+00  0.0000000E+00  0.6172840E-02
    1      -10.472001
    2       -7.782663
    3       -7.135662
    4       -5.595955
    5       -5.589704
    6       -5.439197
    7       -3.215817
    8       -3.011166
    9       -3.004332
   10       -2.421636
   11       -2.414919
   12       -1.547593
   13       -1.080719
   14       -1.073944
   15       -0.901616
   16        1.486186
   17        2.541417
   18        2.548620
   19        2.997274
   20        3.515331
   21        3.892778
   22        3.900059
   23        4.094880
   24        4.503241
   25        4.510769
   26        5.216781
   27        5.497674
   28        5.898131
   29        5.964686
   30        6.872633
   31        7.263708
   32        7.272685
   33        8.822520
   34        8.832999
   35       10.008112
   36       10.019034
   37       11.115340
   38       11.122818
   39       12.451058
   40       12.459434
   41       14.770563
   42       15.247017
   43       15.685971
   44       16.582096
   45       16.776442
   46       16.782415
   47       18.008216
   48       18.253462
   49       18.336122
   50       18.371629
   51       18.374892
   52       18.468299
   53       18.787351
   54       19.447599
   55       19.451707
   56       19.676572
   57       19.750112
   58       19.753603
   59       20.858185
   60       20.862688
   61       20.897490
   62       20.940621
   63       20.949441
   64       21.381995
   65       21.595841
   66       21.886336
   67       22.116033
   68       22.780398
   69       22.817715
   70       24.342763
   71       24.345436
   72       24.408664
   73       25.426513
   74       26.562706
   75       26.577609
   76       26.824008
   77       27.824644
   78       27.830877
   79       27.913439
   80       28.051704
   81       28.054070
   82       28.092857
   83       28.098936
   84       28.568644
 
 -0.2222222E+00  0.1111111E+00  0.0000000E+00  0.6172840E-02
    1      -10.776134
    2       -6.791485
    3       -6.790126
    4       -5.896486
    5       -5.890281
    6       -5.475184
    7       -3.722754
    8       -2.421139
    9       -2.418729
   10       -2.143779
   11       -2.139254
   12       -2.137022
   13       -2.132280
   14       -1.190405
   15       -1.183722
   16        2.153498
   17        2.160596
   18        2.661776
   19        3.107682
   20        3.114157
   21        3.115081
   22        3.121328
   23        3.274269
   24        3.759433
   25        3.760836
   26        5.593217
   27        5.595306
   28        5.900982
   29        7.268664
   30        7.744195
   31        8.496854
   32        8.506496
   33        9.696158
   34        9.702096
   35        9.707498
   36        9.713231
   37       12.436288
   38       12.441227
   39       13.125440
   40       13.130670
   41       14.655220
   42       14.658343
   43       15.025785
   44       15.581442
   45       15.626006
   46       16.458630
   47       17.647522
   48       17.840533
   49       17.848668
   50       18.165607
   51       18.167875
   52       18.168063
   53       18.170468
   54       18.925615
   55       18.925990
   56       19.278569
   57       19.281261
   58       19.777991
   59       19.970632
   60       19.973649
   61       20.546010
   62       21.175363
   63       21.180974
   64       21.216044
   65       21.309485
   66       21.310668
   67       21.927972
   68       22.113305
   69       23.822684
   70       24.009599
   71       24.011367
   72       24.899610
   73       24.906492
   74       25.134809
   75       25.149468
   76       27.368726
   77       28.064002
   78       28.066837
   79       28.815284
   80       28.818828
   81       28.821489
   82       28.825786
   83       28.826511
   84       28.833250
 
 -0.1111111E+00  0.1111111E+00  0.0000000E+00  0.6172840E-02
    1      -10.928453
    2       -6.336608
    3       -6.047389
    4       -6.041397
    5       -5.836581
    6       -5.828573
    7       -3.647785
    8       -3.640771
    9       -3.143574
   10       -1.796099
   11       -1.789357
   12       -1.451128
   13       -1.441320
   14       -1.439593
   15       -1.435852
   16        2.144416
   17        2.154642
   18        2.155833
   19        2.159535
   20        2.503479
   21        2.510573
   22        3.150263
   23        3.589428
   24        3.593776
   25        4.007791
   26        5.703365
   27        5.809139
   28        5.815381
   29        8.107704
   30        8.322867
   31        9.541612
   32        9.544582
   33        9.549727
   34        9.558877
   35       10.024522
   36       10.036535
   37       13.230845
   38       13.241248
   39       13.515718
   40       13.527924
   41       14.226035
   42       14.592916
   43       14.594983
   44       14.744357
   45       15.038872
   46       16.318604
   47       17.485876
   48       17.497229
   49       17.572107
   50       17.609465
   51       17.611255
   52       18.058773
   53       18.061324
   54       18.063721
   55       18.067699
   56       19.203777
   57       19.567295
   58       19.572048
   59       20.097439
   60       20.100060
   61       20.430771
   62       20.436392
   63       20.756845
   64       21.365495
   65       21.375479
   66       21.391266
   67       21.444493
   68       22.392759
   69       23.969173
   70       23.984362
   71       24.268415
   72       24.289873
   73       24.639211
   74       24.646500
   75       25.029215
   76       27.083408
   77       27.091293
   78       27.545663
   79       29.216017
   80       29.223865
   81       29.223970
   82       29.225419
   83       29.260047
   84       29.267474
 
 -0.3388132E-20  0.2222222E+00  0.0000000E+00  0.6172840E-02
    1      -10.700003
    2       -7.351142
    3       -6.132083
    4       -6.124713
    5       -5.821035
    6       -5.814823
    7       -2.945005
    8       -2.937036
    9       -2.626183
   10       -2.619519
   11       -1.726432
   12       -1.603067
   13       -1.597305
   14       -1.595966
   15       -1.590016
   16        2.685885
   17        2.693169
   18        2.694108
   19        2.700763
   20        2.743659
   21        2.749816
   22        3.335180
   23        3.734324
   24        3.741653
   25        4.259565
   26        5.393198
   27        5.791926
   28        5.794617
   29        6.807850
   30        7.607882
   31        8.575790
   32        8.582893
   33        8.586573
   34        8.593449
   35       10.253814
   36       10.264521
   37       12.012019
   38       12.018153
   39       13.034961
   40       13.041615
   41       14.313331
   42       14.914458
   43       15.606299
   44       15.613773
   45       16.088379
   46       16.513889
   47       17.769792
   48       17.771984
   49       17.802468
   50       17.809660
   51       18.090331
   52       18.572764
   53       19.319076
   54       19.323160
   55       19.326650
   56       19.331183
   57       19.361790
   58       19.369300
   59       19.809230
   60       19.814097
   61       20.976237
   62       20.979325
   63       21.202408
   64       21.217294
   65       21.227611
   66       21.613389
   67       21.977918
   68       22.154369
   69       23.966182
   70       23.978661
   71       24.394216
   72       24.395237
   73       25.250069
   74       25.266451
   75       25.405473
   76       27.243742
   77       28.509176
   78       28.510877
   79       28.544993
   80       28.549010
   81       28.551719
   82       28.555958
   83       28.761066
   84       28.764391
 
  0.1111111E+00  0.2222222E+00  0.0000000E+00  0.6172840E-02
    1      -10.471937
    2       -7.782962
    3       -7.134917
    4       -5.596095
    5       -5.589648
    6       -5.440173
    7       -3.215324
    8       -3.011723
    9       -3.005044
   10       -2.420505
   11       -2.413717
   12       -1.549564
   13       -1.081890
   14       -1.074954
   15       -0.899050
   16        1.487031
   17        2.541944
   18        2.549076
   19        2.998566
   20        3.515394
   21        3.889444
   22        3.897058
   23        4.092260
   24        4.506601
   25        4.513987
   26        5.215708
   27        5.499318
   28        5.898876
   29        5.964041
   30        6.872082
   31        7.264110
   32        7.273515
   33        8.824816
   34        8.834809
   35       10.005061
   36       10.015299
   37       11.115777
   38       11.123572
   39       12.450830
   40       12.459335
   41       14.770120
   42       15.247084
   43       15.683264
   44       16.577248
   45       16.780460
   46       16.784575
   47       18.009211
   48       18.245945
   49       18.336513