   32   32    1    1
  0.5760957E+01  0.4934311E-09  0.4934311E-09  0.8743465E-09  0.5000000E-15
  1.000000000000000E-004
  CAR 
 graphite                                
    128    163     84
 
  0.0000000E+00  0.0000000E+00  0.0000000E+00  0.3086420E-02
    1      -12.076251
    2      -10.669326
    3      -10.664231
    4       -8.155553
    5       -6.400039
    6       -6.399577
    7       -6.399125
    8       -5.579394
    9       -5.577471
   10       -5.575159
   11       -5.250076
   12       -5.245581
   13       -5.244221
   14       -5.243620
   15       -5.241781
   16       -5.237079
   17       -4.203394
   18       -4.199736
   19       -4.198482
   20       -4.196972
   21       -4.194750
   22       -4.191834
   23       -2.913046
   24       -2.911509
   25       -2.910095
   26       -2.646288
   27       -2.643403
   28       -2.641211
   29       -2.173183
   30        2.252919
   31        2.255753
   32        2.260392
   33        2.936645
   34        2.939177
   35        2.942401
   36        2.943179
   37        2.943852
   38        2.945315
   39        2.946300
   40        2.951387
   41        3.729239
   42        3.732548
   43        3.737559
   44        3.779053
   45        3.779770
   46        3.780653
   47        6.033430
   48        6.046223
   49        6.356205
   50        6.365410
   51        6.369919
   52        6.378622
   53        6.519960
   54        6.520322
   55        6.522255
   56        6.678902
   57        6.692770
   58        7.659724
   59        7.672593
   60        7.672805
   61        7.674110
   62        7.674532
   63        7.687393
   64        8.528366
   65       11.173515
   66       11.186008
   67       11.187708
   68       11.188090
   69       11.189979
   70       11.202280
   71       13.556427
   72       13.558480
   73       13.560417
   74       14.536725
   75       14.541463
   76       14.546521
   77       14.682669
   78       14.684863
   79       14.687608
   80       16.700943
   81       16.710956
   82       16.712494
   83       16.712864
   84       16.722160
 
  0.1111111E+00 -0.1387779E-16  0.0000000E+00  0.6172840E-02
    1      -11.998849
    2      -10.593880
    3      -10.588792
    4       -8.088049
    5       -7.280235
    6       -6.684982
    7       -6.682984
    8       -6.032211
    9       -6.027713
   10       -5.480408
   11       -5.478502
   12       -5.476896
   13       -5.472100
   14       -5.181971
   15       -5.178590
   16       -4.712020
   17       -3.845223
   18       -3.841564
   19       -3.839558
   20       -3.837229
   21       -3.700262
   22       -3.301401
   23       -3.296705
   24       -3.269312
   25       -3.266452
   26       -2.168055
   27       -2.164597
   28       -2.081877
   29       -1.617833
   30        1.990826
   31        1.996008
   32        2.329441
   33        2.697307
   34        2.699310
   35        2.701462
   36        2.706893
   37        3.011796
   38        3.015339
   39        3.016224
   40        3.022611
   41        3.171389
   42        3.541634
   43        3.547436
   44        3.661175
   45        3.662739
   46        3.799737
   47        5.666276
   48        5.824113
   49        6.061848
   50        6.069515
   51        6.199432
   52        6.206755
   53        6.463414
   54        6.583811
   55        6.780668
   56        6.782580
   57        7.210139
   58        7.296101
   59        7.305402
   60        7.623372
   61        7.630003
   62        7.631383
   63        7.642118
   64        8.588623
   65       11.303123
   66       11.313931
   67       11.315815
   68       11.322992
   69       11.623903
   70       11.634153
   71       13.158297
   72       13.223662
   73       13.225814
   74       14.599633
   75       14.827916
   76       14.830935
   77       14.931025
   78       14.938333
   79       15.193407
   80       16.794956
   81       16.800266
   82       17.031043
   83       17.036380
   84       17.048025
 
  0.2222222E+00 -0.1387779E-16  0.0000000E+00  0.6172840E-02
    1      -11.766875
    2      -10.367915
    3      -10.362848
    4       -8.359596
    5       -7.886107
    6       -7.070023
    7       -7.067767
    8       -7.063596
    9       -7.058767
   10       -5.830227
   11       -5.828096
   12       -5.826149
   13       -5.822186
   14       -4.975735
   15       -4.522661
   16       -4.518557
   17       -3.529441
   18       -3.525644
   19       -3.129195
   20       -3.125511
   21       -3.123635
   22       -3.121124
   23       -2.954046
   24       -1.940571
   25       -1.935938
   26       -1.809133
   27       -1.503507
   28       -1.499900
   29       -0.376359
   30        1.311829
   31        1.316400
   32        2.048701
   33        2.050785
   34        2.052821
   35        2.057533
   36        2.088386
   37        2.553601
   38        3.020992
   39        3.026501
   40        3.227802
   41        3.232079
   42        3.240106
   43        3.247013
   44        3.417131
   45        3.419247
   46        4.004702
   47        4.676186
   48        5.225205
   49        5.232074
   50        5.308399
   51        5.775841
   52        5.782965
   53        5.796016
   54        6.278493
   55        6.513936
   56        6.522197
   57        7.446661
   58        7.448861
   59        7.524517
   60        7.531256
   61        7.532563
   62        7.543271
   63        8.463072
   64        8.765312
   65       11.612238
   66       11.622977
   67       11.625461
   68       11.632803
   69       12.481245
   70       12.483215
   71       12.592116
   72       12.600681
   73       12.659953
   74       14.779120
   75       15.027486
   76       15.031166
   77       16.003715
   78       16.011054
   79       16.079678
   80       16.889446
   81       17.057827
   82       17.063578
   83       17.080183
   84       17.086281
 
  0.3333333E+00 -0.2775558E-16  0.0000000E+00  0.6172840E-02
    1      -11.381407
    2       -9.992614
    3       -9.987582
    4       -9.326801
    5       -7.998449
    6       -7.993638
    7       -7.550752
    8       -7.346590
    9       -7.344439
   10       -6.091623
   11       -6.089458
   12       -6.087318
   13       -6.083735
   14       -5.775982
   15       -4.215073
   16       -4.211176
   17       -3.195207
   18       -3.190925
   19       -2.293656
   20       -2.289614
   21       -2.287990
   22       -2.285378
   23       -1.450363
   24       -1.356904
   25       -0.912131
   26       -0.908907
   27       -0.475744
   28       -0.471012
   29        0.551496
   30        0.554265
   31        0.931296
   32        1.016692
   33        1.182859
   34        1.184593
   35        1.186564
   36        1.191827
   37        2.287417
   38        2.292449
   39        2.919213
   40        3.196881
   41        3.199154
   42        3.313806
   43        3.523393
   44        3.528860
   45        3.578815
   46        3.583156
   47        4.117049
   48        4.122711
   49        4.335364
   50        4.663179
   51        4.788258
   52        5.208734
   53        5.214560
   54        5.667353
   55        5.675109
   56        5.812243
   57        7.423883
   58        7.431003
   59        7.432251
   60        7.442567
   61        8.349582
   62        8.351747
   63        9.041733
   64        9.447328
   65       11.535651
   66       11.537484
   67       11.949555
   68       11.960285
   69       11.963045
   70       11.970611
   71       12.678354
   72       13.700937
   73       13.709624
   74       15.071954
   75       15.142376
   76       15.146641
   77       16.442840
   78       16.486270
   79       16.493039
   80       16.620504
   81       17.060849
   82       17.500477
   83       17.507912
   84       17.545412
 
  0.4444444E+00 -0.2775558E-16  0.0000000E+00  0.6172840E-02
    1      -10.844010
    2      -10.157613
    3       -9.470146
    4       -9.465175
    5       -8.803508
    6       -8.798604
    7       -7.488664
    8       -7.486541
    9       -7.084026
   10       -6.489827
   11       -6.227111
   12       -6.224960
   13       -6.222741
   14       -6.219295
   15       -4.246381
   16       -4.243221
   17       -2.409030
   18       -2.405559
   19       -1.524662
   20       -1.519906
   21       -1.518571
   22       -1.516732
   23       -1.085370
   24       -1.081911
   25       -0.729203
   26        0.066777
   27        0.148382
   28        0.372171
   29        0.373231
   30        0.375509
   31        0.379966
   32        0.570978
   33        0.573925
   34        1.033313
   35        1.038235
   36        1.502047
   37        1.506120
   38        1.763898
   39        2.265842
   40        2.519324
   41        2.524593
   42        3.074113
   43        3.076541
   44        3.412030
   45        3.576116
   46        4.006971
   47        4.048359
   48        4.052641
   49        4.236841
   50        4.244267
   51        4.606946
   52        4.612202
   53        4.772590
   54        4.888133
   55        4.895662
   56        5.282978
   57        7.363673
   58        7.370828
   59        7.372061
   60        7.382283
   61        9.373168
   62        9.375740
   63        9.377123
   64        9.638524
   65       10.488378
   66       10.490302
   67       12.166183
   68       12.177064
   69       12.179902
   70       12.187538
   71       13.641460
   72       14.766935
   73       14.775094
   74       15.121582
   75       15.185535
   76       15.190116
   77       15.466456
   78       15.705437
   79       15.712977
   80       15.938892
   81       18.084035
   82       18.088136
   83       18.097336
   84       18.726361
 
  0.1694066E-20  0.1111111E+00  0.0000000E+00  0.6172840E-02
    1      -11.998851
    2      -10.593882
    3      -10.588794
    4       -8.088050
    5       -7.280284
    6       -6.685769
    7       -6.682234
    8       -6.032140
    9       -6.027638
   10       -5.481785
   11       -5.477698
   12       -5.476719
   13       -5.472300
   14       -5.182150
   15       -5.178336
   16       -4.711535
   17       -3.845825
   18       -3.840993
   19       -3.839549
   20       -3.834388
   21       -3.701932
   22       -3.301963
   23       -3.298090
   24       -3.270088
   25       -3.265004
   26       -2.168613
   27       -2.162722
   28       -2.081873
   29       -1.618994
   30        1.989434
   31        1.995702
   32        2.331101
   33        2.694918
   34        2.699056
   35        2.701500
   36        2.706008
   37        3.013969
   38        3.015143
   39        3.017634
   40        3.022824
   41        3.171825
   42        3.540136
   43        3.547040
   44        3.660277
   45        3.663045
   46        3.801690
   47        5.662816
   48        5.827578
   49        6.060821
   50        6.062804
   51        6.205995
   52        6.208047
   53        6.459319
   54        6.588009
   55        6.780058
   56        6.782485
   57        7.211222
   58        7.297528
   59        7.306369
   60        7.621360
   61        7.630055
   62        7.631609
   63        7.640715
   64        8.588650
   65       11.304383
   66       11.314708
   67       11.315961
   68       11.326154
   69       11.622279
   70       11.631202
   71       13.156077
   72       13.223204
   73       13.227505
   74       14.600305
   75       14.828886
   76       14.832506
   77       14.931151
   78       14.937465
   79       15.191827
   80       16.795407
   81       16.800216
   82       17.033244
   83       17.037681
   84       17.043746
 
  0.1111111E+00  0.1111111E+00  0.0000000E+00  0.6172840E-02
    1      -11.844146
    2      -10.443133
    3      -10.438059
    4       -7.953336
    5       -7.778291
    6       -7.774716
    7       -6.507286
    8       -6.502610
    9       -6.501844
   10       -6.496519
   11       -6.197604
   12       -5.370891
   13       -5.051999
   14       -5.047823
   15       -4.580647
   16       -4.576238
   17       -4.010243
   18       -4.005598
   19       -3.534385
   20       -3.530554
   21       -2.741155
   22       -2.600337
   23       -2.596740
   24       -2.596127
   25       -2.589776
   26       -2.509702
   27       -1.899897
   28       -0.983497
   29       -0.978894
   30        1.228621
   31        1.976631
   32        1.981011
   33        2.143697
   34        2.147029
   35        2.703560
   36        2.706278
   37        2.839720
   38        2.844865
   39        2.845583
   40        2.847631
   41        2.956531
   42        3.166656
   43        3.173649
   44        3.677231
   45        3.681122
   46        4.020967
   47        5.055713
   48        5.358892
   49        5.520324
   50        5.528060
   51        5.876537
   52        5.883869
   53        6.103881
   54        6.321693
   55        6.760644
   56        6.980978
   57        6.990030
   58        6.990723
   59        6.998212
   60        7.884158
   61        7.887261
   62        7.909027
   63        7.919505
   64        8.707210
   65       11.172102
   66       11.182977
   67       12.079537
   68       12.086662
   69       12.087513
   70       12.097583
   71       12.673346
   72       12.744947
   73       12.749105
   74       14.758564
   75       15.048852
   76       15.054307
   77       15.520360
   78       15.523044
   79       15.950460
   80       17.162713
   81       17.199238
   82       17.205566
   83       17.213527
   84       17.234236
 
  0.2222222E+00  0.1111111E+00  0.0000000E+00  0.6172840E-02
    1      -11.535411
    2      -10.142499
    3      -10.137454
    4       -8.803916
    5       -8.140469
    6       -7.684683
    7       -7.492908
    8       -7.488146
    9       -6.853145
   10       -6.848474
   11       -6.271286
   12       -5.334415
   13       -5.084680
   14       -5.080316
   15       -4.790630
   16       -4.781055
   17       -3.482901
   18       -3.478268
   19       -2.947625
   20       -2.786472
   21       -2.182252
   22       -1.937864
   23       -1.793595
   24       -1.789870
   25       -1.537424
   26       -1.183389
   27       -1.178729
   28       -0.323538
   29        0.280626
   30        0.283191
   31        1.019198
   32        1.023663
   33        1.582214
   34        1.605574
   35        2.148880
   36        2.275790
   37        2.278632
   38        2.341342
   39        2.453176
   40        3.129294
   41        3.133470
   42        3.228198
   43        3.446507
   44        3.453128
   45        3.947932
   46        3.957937
   47        4.136352
   48        4.577647
   49        4.584964
   50        4.636200
   51        5.321894
   52        5.329454
   53        5.386991
   54        5.875987
   55        6.145055
   56        6.153013
   57        6.739746
   58        6.747936
   59        7.253159
   60        8.094287
   61        8.104514
   62        8.703827
   63        8.935108
   64        9.096014
   65       11.187146
   66       11.197652
   67       11.680339
   68       12.165002
   69       12.462024
   70       12.589098
   71       12.597713
   72       13.159735
   73       13.168591
   74       14.871859
   75       15.287051
   76       15.659697
   77       16.181410
   78       16.411782
   79       16.865566
   80       16.873994
   81       16.977059
   82       17.120529
   83       17.432316
   84       17.538133
 
  0.3333333E+00  0.1111111E+00  0.0000000E+00  0.6172840E-02
    1      -11.073958
    2       -9.704198
    3       -9.693091
    4       -9.688351
    5       -8.364690
    6       -8.361336
    7       -8.356769
    8       -7.283571
    9       -7.065798
   10       -7.061101
   11       -6.438636
   12       -6.098411
   13       -5.227118
   14       -5.222681
   15       -4.958316
   16       -3.955414
   17       -3.097911
   18       -2.676835
   19       -2.672313
   20       -1.903365
   21       -1.604688
   22       -0.997904
   23       -0.971606
   24       -0.968263
   25       -0.628084
   26       -0.284464
   27       -0.028760
   28        0.027018
   29        0.031589
   30        0.296454
   31        0.301093
   32        0.589675
   33        1.201353
   34        1.253399
   35        1.525131
   36        1.528396
   37        1.571687
   38        2.113934
   39        2.535715
   40        2.573837
   41        2.914867
   42        3.162945
   43        3.168855
   44        3.547763
   45        3.552060
   46        3.828690
   47        4.047189
   48        4.054282
   49        4.115418
   50        4.336083
   51        4.421199
   52        4.694234
   53        4.700268
   54        5.324191
   55        5.331813
   56        5.352321
   57        6.583620
   58        6.591706
   59        8.116089
   60        8.183930
   61        8.193476
   62        9.246566
   63        9.575544
   64        9.689155
   65       10.537342
   66       11.270592
   67       11.280240
   68       11.464537
   69       12.962381
   70       12.987466
   71       12.996285
   72       14.275554
   73       14.283986
   74       14.975017
   75       15.629219
   76       15.664212
   77       15.762396
   78       16.187014
   79       16.195070
   80       16.536126
   81       17.387628
   82       17.771488
   83       18.014413
   84       18.019168
 
  0.4444444E+00  0.1111111E+00  0.0000000E+00  0.6172840E-02
    1      -10.463788
    2      -10.460472
    3       -9.101920
    4       -9.097191
    5       -9.096122
    6       -9.091327
    7       -8.435396
    8       -7.137142
    9       -7.132434
   10       -6.754926
   11       -6.751257
   12       -6.501376
   13       -5.283565
   14       -5.279118
   15       -5.017832
   16       -3.536499
   17       -3.015466
   18       -2.157041
   19       -2.153233
   20       -1.930368
   21       -1.283309
   22       -0.553409
   23       -0.549597
   24       -0.491347
   25       -0.487008
   26       -0.396599
   27       -0.286199
   28       -0.283304
   29        0.056331
   30        0.577203
   31        0.968273
   32        0.971920
   33        1.054880
   34        1.059891
   35        1.505836
   36        1.781666
   37        1.782592
   38        1.784117
   39        1.791546
   40        2.036856
   41        2.044599
   42        2.806370
   43        2.811641
   44        3.544315
   45        3.550460
   46        4.067866
   47        4.078583
   48        4.078869
   49        4.080451
   50        4.094071
   51        4.602917
   52        4.610696
   53        4.611484
   54        4.618311
   55        4.815117
   56        4.821246
   57        6.530382
   58        6.538477
   59        8.207834
   60        8.216894
   61        8.899316
   62        9.570761
   63        9.574213
   64        9.666234
   65       10.203787
   66       10.898256
   67       11.316052
   68       11.324946
   69       13.138487
   70       13.147436
   71       14.259375
   72       14.265434
   73       15.012518
   74       15.304110
   75       15.308282
   76       15.310130
   77       15.319862
   78       15.648120
   79       16.056676
   80       16.060414
   81       18.428782
   82       18.432629
   83       18.571846
   84       18.577435
 
 -0.4444444E+00  0.1111111E+00  0.0000000E+00  0.6172840E-02
    1      -11.074070
    2       -9.704044
    3       -9.693189
    4       -9.688458
    5       -8.363934
    6       -8.361168
    7       -8.357591
    8       -7.283702
    9       -7.066095
   10       -7.061403
   11       -6.438447
   12       -6.098248
   13       -5.227003
   14       -5.222604
   15       -4.958453
   16       -3.954827
   17       -3.095141
   18       -2.673660
   19       -2.670209
   20       -1.906667
   21       -1.605628
   22       -0.998051
   23       -0.974722
   24       -0.970600
   25       -0.628230
   26       -0.284128
   27       -0.027804
   28        0.024650
   29        0.027786
   30        0.296351
   31        0.301333
   32        0.589731
   33        1.200805
   34        1.249738
   35        1.527714
   36        1.532797
   37        1.572854
   38        2.113960
   39        2.535010
   40        2.578201
   41        2.913554
   42        3.162483
   43        3.166787
   44        3.547199
   45        3.552050
   46        3.823944
   47        4.047269
   48        4.054366
   49        4.115103
   50        4.336252
   51        4.426142
   52        4.696345
   53        4.700632
   54        5.324267
   55        5.331932
   56        5.352885
   57        6.583821
   58        6.592040
   59        8.117151
   60        8.183250
   61        8.192247
   62        9.246774
   63        9.576487
   64        9.688906
   65       10.537426
   66       11.272981
   67       11.281717
   68       11.462007
   69       12.962585
   70       12.985859
   71       12.995229
   72       14.275187
   73       14.283962
   74       14.975566
   75       15.628405
   76       15.664464
   77       15.761884
   78       16.189062
   79       16.196259
   80       16.537877
   81       17.389157
   82       17.777141
   83       18.013838
   84       18.018812
 
 -0.3333333E+00  0.1111111E+00  0.0000000E+00  0.6172840E-02
    1      -11.535491
    2      -10.142579
    3      -10.137535
    4       -8.803712
    5       -8.140933
    6       -7.684760
    7       -7.492712
    8       -7.487951
    9       -6.853584
   10       -6.848916
   11       -6.270966
   12       -5.334257
   13       -5.084539
   14       -5.080373
   15       -4.790495
   16       -4.779746
   17       -3.479120
   18       -3.475771
   19       -2.945608
   20       -2.789912
   21       -2.182449
   22       -1.935721
   23       -1.796940
   24       -1.792474
   25       -1.537455
   26       -1.183572
   27       -1.178781
   28       -0.325963
   29        0.278502
   30        0.282264
   31        1.016035
   32        1.019021
   33        1.585783
   34        1.605696
   35        2.144682
   36        2.279213
   37        2.284049
   38        2.341411
   39        2.452673
   40        3.129180
   41        3.133585
   42        3.232880
   43        3.446430
   44        3.453049
   45        3.947794
   46        3.956354
   47        4.135757
   48        4.576086
   49        4.580247
   50        4.633377
   51        5.327292
   52        5.330900
   53        5.389933
   54        5.877914
   55        6.145087
   56        6.153075
   57        6.740115
   58        6.748587
   59        7.254473
   60        8.093176
   61        8.102539
   62        8.704109
   63        8.935279
   64        9.095931
   65       11.191318
   66       11.200318
   67       11.680906
   68       12.161906
   69       12.461654
   70       12.586539
   71       12.595849
   72       13.159579
   73       13.168743
   74       14.873063
   75       15.286509
   76       15.659766
   77       16.186839
   78       16.413209
   79       16.870364
   80       16.876230
   81       16.980038
   82       17.119847
   83       17.426972
   84       17.535299
 
 -0.2222222E+00  0.1111111E+00  0.0000000E+00  0.6172840E-02
    1      -11.844194
    2      -10.443180
    3      -10.438108
    4       -7.953402
    5       -7.777225
    6       -7.776211
    7       -6.506194
    8       -6.502965
    9       -6.501803
   10       -6.498124
   11       -6.197203
   12       -5.368963
   13       -5.051841
   14       -5.048304
   15       -4.578678
   16       -4.578084
   17       -4.005729
   18       -4.003307
   19       -3.537028
   20       -3.531676
   21       -2.739783
   22       -2.601677
   23       -2.597436
   24       -2.597291
   25       -2.592398
   26       -2.506826
   27       -1.899916
   28       -0.984605
   29       -0.980533
   30        1.224385
   31        1.973072
   32        1.975831
   33        2.144328
   34        2.150796
   35        2.704760
   36        2.705299
   37        2.841468
   38        2.845595
   39        2.847832
   40        2.852476
   41        2.951988
   42        3.166651
   43        3.173656
   44        3.678283
   45        3.685139
   46        4.020199
   47        5.050129
   48        5.361886
   49        5.516469
   50        5.518436
   51        5.886211
   52        5.887957
   53        6.100770
   54        6.327839
   55        6.762246
   56        6.982013
   57        6.989919
   58        6.990713
   59        6.998866
   60        7.884812
   61        7.885905
   62        7.907949
   63        7.917416
   64        8.707303
   65       11.176985
   66       11.186312
   67       12.076845
   68       12.086256
   69       12.086402
   70       12.096028
   71       12.674359
   72       12.742940
   73       12.747475
   74       14.760480
   75       15.050852
   76       15.057245
   77       15.519969
   78       15.523931
   79       15.944732
   80       17.172100
   81       17.203655
   82       17.205393
   83       17.211944
   84       17.225462
 
 -0.1111111E+00  0.1111111E+00  0.0000000E+00  0.6172840E-02
    1      -11.998867
    2      -10.593898
    3      -10.588810
    4       -8.088068
    5       -7.281102
    6       -6.684425
    7       -6.682554
    8       -6.032834
    9       -6.028308
   10       -5.481536
   11       -5.477088
   12       -5.475204
   13       -5.473384
   14       -5.181190
   15       -5.178039
   16       -4.712232
   17       -3.842033
   18       -3.840453
   19       -3.838053
   20       -3.834878
   21       -3.704864
   22       -3.305142
   23       -3.300615
   24       -3.267528
   25       -3.264863
   26       -2.165809
   27       -2.163195
   28       -2.081878
   29       -1.621596
   30        1.988785
   31        1.991702
   32        2.335845
   33        2.693526
   34        2.698464
   35        2.699251
   36        2.700875
   37        3.015442
   38        3.018315
   39        3.022164
   40        3.023370
   41        3.172184
   42        3.539415
   43        3.542931
   44        3.660655
   45        3.662086
   46        3.806709
   47        5.655994
   48        5.834478
   49        6.051219
   50        6.058717
   51        6.209928
   52        6.217960
   53        6.452204
   54        6.595227
   55        6.780848
   56        6.783017
   57        7.210198
   58        7.298500
   59        7.307948
   60        7.619937
   61        7.630231
   62        7.631799
   63        7.638600
   64        8.588681
   65       11.308304
   66       11.315508
   67       11.317595
   68       11.327927
   69       11.618222
   70       11.628180
   71       13.153568
   72       13.224859
   73       13.227027
   74       14.605582
   75       14.830315
   76       14.833927
   77       14.928966
   78       14.934087
   79       15.190202
   80       16.799280
   81       16.804310
   82       17.032164
   83       17.037288
   84       17.049165
 
  0.1694066E-20  0.2222222E+00  0.0000000E+00  0.6172840E-02
    1      -11.766883
    2      -10.367922
    3      -10.362857
    4       -8.359677
    5       -7.886122
    6       -7.071259
    7       -7.067125
    8       -7.063184
    9       -7.058618
   10       -5.831642
   11       -5.827394
   12       -5.826147
   13       -5.821549
   14       -4.975534
   15       -4.522170
   16       -4.519588
   17       -3.529327
   18       -3.524045
   19       -3.130149
   20       -3.125058
   21       -3.123589
   22       -3.118181
   23       -2.955448
   24       -1.941298
   25       -1.937472
   26       -1.809120
   27       -1.503923
   28       -1.497771
   29       -0.377650
   30        1.310225
   31        1.315972
   32        2.045937
   33        2.050453
   34        2.052885
   35        2.057097
   36        2.088604
   37        2.555341
   38        3.019405
   39        3.026235
   40        3.230499
   41        3.232780
   42        3.240330
   43        3.247166
   44        3.415932
   45        3.419856
   46        4.006735
   47        4.673325
   48        5.224152
   49        5.226490
   50        5.311723
   51        5.779887
   52        5.783029
   53        5.795180
   54        6.282160
   55        6.514703
   56        6.522802
   57        7.445671
   58        7.449165
   59        7.522623
   60        7.531298
   61        7.532819
   62        7.542145
   63        8.464696
   64        8.765426
   65       11.613491
   66       11.623675
   67       11.625625
   68       11.635754
   69       12.480302
   70       12.484549
   71       12.590733
   72       12.599050
   73       12.656867
   74       14.779890
   75       15.029779
   76       15.032535
   77       16.003321
   78       16.010416
   79       16.078271
   80       16.892580
   81       17.058986
   82       17.063631
   83       17.083278
   84       17.087352
 
  0.1111111E+00  0.2222222E+00  0.0000000E+00  0.6172840E-02
    1      -11.535417
    2      -10.142504
    3      -10.137460
    4       -8.804008
    5       -8.140377
    6       -7.684662
    7       -7.492998
    8       -7.488245
    9       -6.853082
   10       -6.848408
   11       -6.271229
   12       -5.334403
   13       -5.084658
   14       -5.080288
   15       -4.790267
   16       -4.781612
   17       -3.482800
   18       -3.478263
   19       -2.947812
   20       -2.784997
   21       -2.183614
   22       -1.937361
   23       -1.792729
   24       -1.788180
   25       -1.537409
   26       -1.184159
   27       -1.180448
   28       -0.321852
   29        0.279604
   30        0.282233
   31        1.019172
   32        1.023470
   33        1.580241
   34        1.605809
   35        2.148831
   36        2.273426
   37        2.277364
   38        2.341001
   39        2.455148
   40        3.132069
   41        3.134601
   42        3.226262
   43        3.446518
   44        3.453139
   45        3.949320
   46        3.956797
   47        4.136228
   48        4.577424
   49        4.581844