  16  16   0   0
  0.6204993E+01  0.5197471E-09  0.5197471E-09  0.5197471E-09  0.5000000E-15
  1.000000000000000E-004
  CAR 
 diamond                                 
     19.93204654    -13.80976380  301      8.57933327      1.00000000
    -13.810  0.0000E+00  0.0000E+00
    -13.697  0.0000E+00  0.0000E+00
    -13.585  0.0000E+00  0.0000E+00
    -13.472  0.0000E+00  0.0000E+00
    -13.360  0.0000E+00  0.0000E+00
    -13.247  0.0000E+00  0.0000E+00
    -13.135  0.0000E+00  0.0000E+00
    -13.022  0.0000E+00  0.0000E+00
    -12.910  0.0000E+00  0.0000E+00
    -12.798  0.0000E+00  0.0000E+00
    -12.685  0.0000E+00  0.0000E+00
    -12.573  0.0000E+00  0.0000E+00
    -12.460  0.0000E+00  0.0000E+00
    -12.348  0.0000E+00  0.0000E+00
    -12.235  0.0000E+00  0.0000E+00
    -12.123  0.0000E+00  0.0000E+00
    -12.010  0.0000E+00  0.0000E+00
    -11.898  0.0000E+00  0.0000E+00
    -11.785  0.5264E-02  0.4301E-04
    -11.673  0.1644E+00  0.7509E-02
    -11.560  0.4115E+00  0.4182E-01
    -11.448  0.5347E+00  0.9585E-01
    -11.335  0.6074E+00  0.1594E+00
    -11.223  0.7028E+00  0.2332E+00
    -11.110  0.7821E+00  0.3169E+00
    -10.998  0.8368E+00  0.4078E+00
    -10.885  0.9128E+00  0.5060E+00
    -10.773  0.1005E+01  0.6136E+00
    -10.661  0.1134E+01  0.7335E+00
    -10.548  0.1326E+01  0.8713E+00
    -10.436  0.1551E+01  0.1033E+01
    -10.323  0.1829E+01  0.1222E+01
    -10.211  0.1485E+01  0.1411E+01
    -10.098  0.1347E+01  0.1568E+01
     -9.986  0.1263E+01  0.1716E+01
     -9.873  0.1108E+01  0.1850E+01
     -9.761  0.9164E+00  0.1964E+01
     -9.648  0.9246E+00  0.2065E+01
     -9.536  0.1176E+01  0.2182E+01
     -9.423  0.1454E+01  0.2328E+01
     -9.311  0.2107E+01  0.2525E+01
     -9.198  0.2096E+01  0.2766E+01
     -9.086  0.1729E+01  0.2981E+01
     -8.973  0.1555E+01  0.3164E+01
     -8.861  0.1658E+01  0.3343E+01
     -8.748  0.1735E+01  0.3529E+01
     -8.636  0.1871E+01  0.3734E+01
     -8.524  0.1889E+01  0.3945E+01
     -8.411  0.1989E+01  0.4162E+01
     -8.299  0.2070E+01  0.4391E+01
     -8.186  0.2072E+01  0.4624E+01
     -8.074  0.2115E+01  0.4859E+01
     -7.961  0.2201E+01  0.5102E+01
     -7.849  0.2140E+01  0.5348E+01
     -7.736  0.2133E+01  0.5588E+01
     -7.624  0.2114E+01  0.5827E+01
     -7.511  0.2423E+01  0.6076E+01
     -7.399  0.2545E+01  0.6369E+01
     -7.286  0.2536E+01  0.6654E+01
     -7.174  0.2655E+01  0.6940E+01
     -7.061  0.2772E+01  0.7248E+01
     -6.949  0.3003E+01  0.7569E+01
     -6.836  0.3336E+01  0.7925E+01
     -6.724  0.3745E+01  0.8323E+01
     -6.612  0.4280E+01  0.8772E+01
     -6.499  0.4567E+01  0.9308E+01
     -6.387  0.2995E+01  0.9728E+01
     -6.274  0.1983E+01  0.1000E+02
     -6.162  0.1748E+01  0.1020E+02
     -6.049  0.2060E+01  0.1040E+02
     -5.937  0.2257E+01  0.1065E+02
     -5.824  0.2702E+01  0.1092E+02
     -5.712  0.3016E+01  0.1125E+02
     -5.599  0.3118E+01  0.1160E+02
     -5.487  0.2727E+01  0.1192E+02
     -5.374  0.2634E+01  0.1223E+02
     -5.262  0.2461E+01  0.1251E+02
     -5.149  0.2321E+01  0.1279E+02
     -5.037  0.2263E+01  0.1304E+02
     -4.924  0.2337E+01  0.1330E+02
     -4.812  0.2637E+01  0.1358E+02
     -4.699  0.2796E+01  0.1389E+02
     -4.587  0.2908E+01  0.1421E+02
     -4.475  0.2788E+01  0.1453E+02
     -4.362  0.2687E+01  0.1484E+02
     -4.250  0.2342E+01  0.1512E+02
     -4.137  0.2001E+01  0.1537E+02
     -4.025  0.1695E+01  0.1557E+02
     -3.912  0.1356E+01  0.1575E+02
     -3.800  0.7001E+00  0.1586E+02
     -3.687  0.4983E+00  0.1593E+02
     -3.575  0.9018E+00  0.1600E+02
     -3.462  0.1162E+01  0.1612E+02
     -3.350  0.1383E+01  0.1626E+02
     -3.237  0.1637E+01  0.1643E+02
     -3.125  0.1819E+01  0.1662E+02
     -3.012  0.2167E+01  0.1685E+02
     -2.900  0.2685E+01  0.1712E+02
     -2.787  0.3588E+01  0.1746E+02
     -2.675  0.4624E+01  0.1793E+02
     -2.562  0.5249E+01  0.1849E+02
     -2.450  0.5639E+01  0.1910E+02
     -2.338  0.6049E+01  0.1976E+02
     -2.225  0.5816E+01  0.2044E+02
     -2.113  0.4940E+01  0.2105E+02
     -2.000  0.4009E+01  0.2155E+02
     -1.888  0.3189E+01  0.2195E+02
     -1.775  0.2702E+01  0.2228E+02
     -1.663  0.2532E+01  0.2257E+02
     -1.550  0.2235E+01  0.2285E+02
     -1.438  0.2318E+01  0.2310E+02
     -1.325  0.2655E+01  0.2338E+02
     -1.213  0.3129E+01  0.2370E+02
     -1.100  0.3374E+01  0.2407E+02
     -0.988  0.3391E+01  0.2445E+02
     -0.875  0.3256E+01  0.2483E+02
     -0.763  0.2965E+01  0.2518E+02
     -0.650  0.2734E+01  0.2550E+02
     -0.538  0.2549E+01  0.2579E+02
     -0.426  0.2424E+01  0.2607E+02
     -0.313  0.2435E+01  0.2634E+02
     -0.201  0.2542E+01  0.2662E+02
     -0.088  0.2647E+01  0.2692E+02
      0.024  0.2676E+01  0.2722E+02
      0.137  0.2587E+01  0.2751E+02
      0.249  0.2516E+01  0.2780E+02
      0.362  0.3480E+01  0.2814E+02
      0.474  0.3766E+01  0.2856E+02
      0.587  0.3568E+01  0.2896E+02
      0.699  0.3830E+01  0.2938E+02
      0.812  0.4098E+01  0.2983E+02
      0.924  0.5548E+01  0.3035E+02
      1.037  0.4700E+01  0.3090E+02
      1.149  0.3520E+01  0.3137E+02
      1.262  0.3411E+01  0.3174E+02
      1.374  0.4535E+01  0.3220E+02
      1.487  0.5058E+01  0.3274E+02
      1.599  0.4599E+01  0.3329E+02
      1.711  0.4543E+01  0.3380E+02
      1.824  0.4738E+01  0.3432E+02
      1.936  0.5087E+01  0.3487E+02
      2.049  0.5772E+01  0.3547E+02
      2.161  0.5037E+01  0.3611E+02
      2.274  0.5308E+01  0.3668E+02
      2.386  0.5595E+01  0.3730E+02
      2.499  0.6253E+01  0.3795E+02
      2.611  0.6818E+01  0.3870E+02
      2.724  0.6840E+01  0.3947E+02
      2.836  0.7443E+01  0.4026E+02
      2.949  0.7370E+01  0.4114E+02
      3.061  0.6572E+01  0.4190E+02
      3.174  0.6352E+01  0.4263E+02
      3.286  0.5384E+01  0.4330E+02
      3.399  0.5937E+01  0.4396E+02
      3.511  0.4517E+01  0.4452E+02
      3.624  0.4733E+01  0.4503E+02
      3.736  0.5265E+01  0.4560E+02
      3.848  0.5636E+01  0.4621E+02
      3.961  0.6424E+01  0.4688E+02
      4.073  0.7945E+01  0.4768E+02
      4.186  0.6992E+01  0.4848E+02
      4.298  0.7305E+01  0.4929E+02
      4.411  0.7342E+01  0.5011E+02
      4.523  0.7541E+01  0.5095E+02
      4.636  0.6682E+01  0.5175E+02
      4.748  0.6186E+01  0.5248E+02
      4.861  0.5341E+01  0.5312E+02
      4.973  0.5005E+01  0.5369E+02
      5.086  0.5716E+01  0.5429E+02
      5.198  0.6086E+01  0.5497E+02
      5.311  0.5850E+01  0.5564E+02
      5.423  0.5909E+01  0.5629E+02
      5.536  0.5662E+01  0.5696E+02
      5.648  0.5085E+01  0.5758E+02
      5.760  0.4068E+01  0.5808E+02
      5.873  0.3905E+01  0.5852E+02
      5.985  0.4922E+01  0.5900E+02
      6.098  0.4501E+01  0.5957E+02
      6.210  0.3587E+01  0.6001E+02
      6.323  0.3432E+01  0.6040E+02
      6.435  0.3321E+01  0.6078E+02
      6.548  0.3112E+01  0.6114E+02
      6.660  0.2883E+01  0.6148E+02
      6.773  0.2662E+01  0.6179E+02
      6.885  0.2473E+01  0.6208E+02
      6.998  0.2460E+01  0.6235E+02
      7.110  0.2287E+01  0.6262E+02
      7.223  0.2023E+01  0.6286E+02
      7.335  0.1750E+01  0.6308E+02
      7.448  0.1503E+01  0.6326E+02
      7.560  0.1286E+01  0.6342E+02
      7.673  0.1143E+01  0.6355E+02
      7.785  0.9911E+00  0.6367E+02
      7.897  0.8691E+00  0.6378E+02
      8.010  0.7118E+00  0.6387E+02
      8.122  0.4907E+00  0.6394E+02
      8.235  0.2414E+00  0.6398E+02
      8.347  0.8452E-01  0.6400E+02
      8.460  0.7947E-02  0.6400E+02
      8.572  0.0000E+00  0.6400E+02
      8.685  0.0000E+00  0.6400E+02
      8.797  0.0000E+00  0.6400E+02
      8.910  0.0000E+00  0.6400E+02
      9.022  0.0000E+00  0.6400E+02
      9.135  0.0000E+00  0.6400E+02
      9.247  0.0000E+00  0.6400E+02
      9.360  0.0000E+00  0.6400E+02
      9.472  0.0000E+00  0.6400E+02
      9.585  0.0000E+00  0.6400E+02
      9.697  0.0000E+00  0.6400E+02
      9.810  0.0000E+00  0.6400E+02
      9.922  0.0000E+00  0.6400E+02
     10.034  0.0000E+00  0.6400E+02
     10.147  0.0000E+00  0.6400E+02
     10.259  0.0000E+00  0.6400E+02
     10.372  0.0000E+00  0.6400E+02
     10.484  0.0000E+00  0.6400E+02
     10.597  0.0000E+00  0.6400E+02
     10.709  0.0000E+00  0.6400E+02
     10.822  0.0000E+00  0.6400E+02
     10.934  0.0000E+00  0.6400E+02
     11.047  0.0000E+00  0.6400E+02
     11.159  0.0000E+00  0.6400E+02
     11.272  0.0000E+00  0.6400E+02
     11.384  0.0000E+00  0.6400E+02
     11.497  0.0000E+00  0.6400E+02
     11.609  0.0000E+00  0.6400E+02
     11.722  0.0000E+00  0.6400E+02
     11.834  0.0000E+00  0.6400E+02
     11.946  0.0000E+00  0.6400E+02
     12.059  0.0000E+00  0.6400E+02
     12.171  0.0000E+00  0.6400E+02
     12.284  0.0000E+00  0.6400E+02
     12.396  0.0000E+00  0.6400E+02
     12.509  0.9857E-02  0.6400E+02
     12.621  0.1300E+00  0.6401E+02
     12.734  0.4328E+00  0.6404E+02
     12.846  0.8106E+00  0.6411E+02
     12.959  0.1223E+01  0.6422E+02
     13.071  0.1544E+01  0.6438E+02
     13.184  0.1792E+01  0.6457E+02
     13.296  0.2057E+01  0.6478E+02
     13.409  0.2361E+01  0.6503E+02
     13.521  0.2887E+01  0.6532E+02
     13.634  0.3431E+01  0.6568E+02
     13.746  0.3823E+01  0.6609E+02
     13.859  0.4124E+01  0.6654E+02
     13.971  0.4169E+01  0.6701E+02
     14.083  0.4024E+01  0.6747E+02
     14.196  0.3918E+01  0.6793E+02
     14.308  0.3978E+01  0.6838E+02
     14.421  0.3873E+01  0.6882E+02
     14.533  0.3968E+01  0.6926E+02
     14.646  0.3741E+01  0.6969E+02
     14.758  0.4582E+01  0.7016E+02
     14.871  0.4817E+01  0.7069E+02
     14.983  0.5859E+01  0.7128E+02
     15.096  0.5838E+01  0.7195E+02
     15.208  0.5969E+01  0.7262E+02
     15.321  0.6599E+01  0.7331E+02
     15.433  0.6371E+01  0.7405E+02
     15.546  0.6298E+01  0.7476E+02
     15.658  0.6472E+01  0.7548E+02
     15.771  0.6260E+01  0.7619E+02
     15.883  0.6234E+01  0.7690E+02
     15.996  0.6147E+01  0.7760E+02
     16.108  0.6040E+01  0.7829E+02
     16.220  0.5372E+01  0.7893E+02
     16.333  0.4759E+01  0.7950E+02
     16.445  0.4114E+01  0.8000E+02
     16.558  0.3671E+01  0.8043E+02
     16.670  0.3373E+01  0.8083E+02
     16.783  0.2645E+01  0.8117E+02
     16.895  0.2210E+01  0.8144E+02
     17.008  0.1657E+01  0.8166E+02
     17.120  0.9353E+00  0.8181E+02
     17.233  0.6059E+00  0.8189E+02
     17.345  0.3393E+00  0.8194E+02
     17.458  0.1910E+00  0.8197E+02
     17.570  0.1064E+00  0.8199E+02
     17.683  0.4637E-01  0.8200E+02
     17.795  0.1105E-01  0.8200E+02
     17.908  0.7928E-04  0.8200E+02
     18.020  0.0000E+00  0.8200E+02
     18.132  0.0000E+00  0.8200E+02
     18.245  0.0000E+00  0.8200E+02
     18.357  0.0000E+00  0.8200E+02
     18.470  0.0000E+00  0.8200E+02
     18.582  0.0000E+00  0.8200E+02
     18.695  0.0000E+00  0.8200E+02
     18.807  0.0000E+00  0.8200E+02
     18.920  0.0000E+00  0.8200E+02
     19.032  0.0000E+00  0.8200E+02
     19.145  0.0000E+00  0.8200E+02
     19.257  0.0000E+00  0.8200E+02
     19.370  0.0000E+00  0.8200E+02
     19.482  0.0000E+00  0.8200E+02
     19.595  0.0000E+00  0.8200E+02
     19.707  0.0000E+00  0.8200E+02
     19.820  0.0000E+00  0.8200E+02
     19.932  0.0000E+00  0.8200E+02
