 vasp.5.3.5 31Mar14 (build Nov 02 2014 15:17:37) complex                        
  
 executed on        ion-Intel-MKL date 2017.02.15  21:52:41
 running on    1 total cores
 distrk:  each k-point on    1 cores,    1 groups
 distr:  one band on NCORES_PER_BAND=   1 cores,    1 groups


--------------------------------------------------------------------------------------------------------


 INCAR:
 POTCAR:   PAW_PBE C 08Apr2002                    
 POTCAR:   PAW_PBE C 08Apr2002                    
   VRHFIN =C: s2p2                                                              
   LEXCH  = PE                                                                  
   EATOM  =   147.1560 eV,   10.8157 Ry                                         
                                                                                
   TITEL  = PAW_PBE C 08Apr2002                                                 
   LULTRA =        F    use ultrasoft PP ?                                      
   IUNSCR =        0    unscreen: 0-lin 1-nonlin 2-no                           
   RPACOR =     .000    partial core radius                                     
   POMASS =   12.011; ZVAL   =    4.000    mass and valenz                      
   RCORE  =    1.500    outmost cutoff radius                                   
   RWIGS  =    1.630; RWIGS  =     .863    wigner-seitz radius (au A)           
   ENMAX  =  400.000; ENMIN  =  300.000 eV                                      
   ICORE  =        2    local potential                                         
   LCOR   =        T    correct aug charges                                     
   LPAW   =        T    paw PP                                                  
   EAUG   =  644.873                                                            
   DEXC   =     .000                                                            
   RMAX   =    2.266    core radius for proj-oper                               
   RAUG   =    1.300    factor for augmentation sphere                          
   RDEP   =    1.501    radius for radial grids                                 
   RDEPT  =    1.300    core radius for aug-charge                              
   QCUT   =   -5.516; QGAM   =   11.032    optimization parameters              
                                                                                
   Description                                                                  
     l     E      TYP  RCUT    TYP  RCUT                                        
     0   .000     23  1.200                                                     
     0   .000     23  1.200                                                     
     1   .000     23  1.500                                                     
     1  2.500     23  1.500                                                     
     2   .000      7  1.500                                                     
  local pseudopotential read in
  atomic valenz-charges read in
  non local Contribution for L=           0  read in
    real space projection operators read in
  non local Contribution for L=           0  read in
    real space projection operators read in
  non local Contribution for L=           1  read in
    real space projection operators read in
  non local Contribution for L=           1  read in
    real space projection operators read in
    PAW grid and wavefunctions read in
 
   number of l-projection  operators is LMAX  =           4
   number of lm-projection operators is LMMAX =           8
 
 PAW_PBE C 08Apr2002                    :
 energy of atom  1       EATOM= -147.1560
 kinetic energy error for atom=    0.0016 (will be added to EATOM!!)
 
 
 POSCAR: C                                       
  positions in direct lattice
  No initial velocities read in
 exchange correlation table for  LEXCH =        8
   RHO(1)=    0.500       N(1)  =     2000
   RHO(2)=  100.500       N(2)  =     4000
 


--------------------------------------------------------------------------------------------------------


 ion  position               nearest neighbor table
   1  0.002  0.000  0.000-   9 1.58  11 1.59  13 1.59  10 1.60
   2  0.500  0.000  0.000-  10 1.59  12 1.59   9 1.59  14 1.59
   3  0.000  0.500  0.000-  11 1.59   9 1.59  12 1.59  15 1.59
   4  0.500  0.500  0.000-  12 1.59  10 1.59  11 1.59  16 1.59
   5  0.000  0.000  0.500-  13 1.59  15 1.59  14 1.59   9 1.59
   6  0.500  0.000  0.500-  14 1.59  16 1.59  13 1.59  10 1.59
   7  0.000  0.500  0.500-  15 1.59  13 1.59  16 1.59  11 1.59
   8  0.500  0.500  0.500-  16 1.59  14 1.59  15 1.59  12 1.59
   9  0.125  0.125  0.125-   1 1.58   3 1.59   2 1.59   5 1.59
  10  0.625  0.125  0.125-   2 1.59   4 1.59   6 1.59   1 1.60
  11  0.125  0.625  0.125-   3 1.59   4 1.59   7 1.59   1 1.59
  12  0.625  0.625  0.125-   4 1.59   2 1.59   3 1.59   8 1.59
  13  0.125  0.125  0.625-   5 1.59   7 1.59   6 1.59   1 1.59
  14  0.625  0.125  0.625-   6 1.59   8 1.59   5 1.59   2 1.59
  15  0.125  0.625  0.625-   7 1.59   5 1.59   8 1.59   3 1.59
  16  0.625  0.625  0.625-   8 1.59   6 1.59   7 1.59   4 1.59
 
  LATTYP: Found a face centered cubic cell.
 ALAT       =     7.3503340960
  
  Lattice vectors:
  
 A1 = (   5.1974710834,   0.0000000000,   0.0000000000)
 A2 = (   2.5987355416,   4.5011419937,   0.0000000000)
 A3 = (   2.5987355416,   1.5003806645,   4.2437173689)


Analysis of symmetry for initial positions (statically):
=====================================================================
 Subroutine PRICEL returns:
 Original cell was already a primitive cell.
 

 Routine SETGRP: Setting up the symmetry group for a 
 face centered cubic supercell.


 Subroutine GETGRP returns: Found  2 space group operations
 (whereof  2 operations were pure point group operations)
 out of a pool of 48 trial point group operations.


The static configuration has the point symmetry C_1h.


Analysis of symmetry for dynamics (positions and initial velocities):
=====================================================================
 Subroutine PRICEL returns:
 Original cell was already a primitive cell.
 

 Routine SETGRP: Setting up the symmetry group for a 
 face centered cubic supercell.


 Subroutine GETGRP returns: Found  2 space group operations
 (whereof  2 operations were pure point group operations)
 out of a pool of 48 trial point group operations.


The dynamic configuration has the point symmetry C_1h.
 
 
 KPOINTS: B4C B11C-CBC                            

Automatic generation of k-mesh.
Space group operators:
 irot       det(A)        alpha          n_x          n_y          n_z        tau_x        tau_y        tau_z
    1     1.000000     0.000000     1.000000     0.000000     0.000000     0.000000     0.000000     0.000000
    2    -1.000000   180.000000     0.000000    -0.577350     0.816497     0.000000     0.000000     0.000000
 
 Subroutine IBZKPT returns following result:
 ===========================================
 
 Found     72 irreducible k-points:
 
 Following reciprocal coordinates:
            Coordinates               Weight
  0.000000  0.000000  0.000000      1.000000
  0.166667 -0.000000 -0.000000      2.000000
  0.333333  0.000000  0.000000      2.000000
  0.500000  0.000000 -0.000000      1.000000
  0.000000  0.166667  0.000000      2.000000
  0.166667  0.166667  0.000000      2.000000
  0.333333  0.166667 -0.000000      2.000000
  0.500000  0.166667 -0.000000      2.000000
 -0.333333  0.166667  0.000000      2.000000
 -0.166667  0.166667  0.000000      2.000000
  0.000000  0.333333  0.000000      2.000000
  0.166667  0.333333 -0.000000      2.000000
  0.333333  0.333333  0.000000      2.000000
  0.500000  0.333333  0.000000      2.000000
 -0.333333  0.333333  0.000000      2.000000
 -0.166667  0.333333  0.000000      2.000000
  0.000000  0.500000 -0.000000      2.000000
  0.166667  0.500000 -0.000000      4.000000
  0.333333  0.500000  0.000000      4.000000
  0.500000  0.500000 -0.000000      2.000000
  0.000000  0.000000  0.250000      2.000000
  0.166667 -0.000000  0.250000      2.000000
  0.333333  0.000000  0.250000      2.000000
  0.500000  0.000000  0.250000      2.000000
 -0.333333 -0.000000  0.250000      2.000000
 -0.166667  0.000000  0.250000      2.000000
  0.000000  0.166667  0.250000      2.000000
  0.166667  0.166667  0.250000      2.000000
  0.333333  0.166667  0.250000      2.000000
  0.500000  0.166667  0.250000      2.000000
 -0.333333  0.166667  0.250000      2.000000
 -0.166667  0.166667  0.250000      2.000000
  0.000000  0.333333  0.250000      2.000000
  0.166667  0.333333  0.250000      2.000000
  0.333333  0.333333  0.250000      2.000000
  0.500000  0.333333  0.250000      2.000000
 -0.333333  0.333333  0.250000      2.000000
 -0.166667  0.333333  0.250000      2.000000
  0.000000  0.500000  0.250000      2.000000
  0.166667  0.500000  0.250000      2.000000
  0.333333  0.500000  0.250000      2.000000
  0.500000  0.500000  0.250000      2.000000
 -0.333333  0.500000  0.250000      2.000000
 -0.166667  0.500000  0.250000      2.000000
  0.000000 -0.333333  0.250000      2.000000
  0.166667 -0.333333  0.250000      2.000000
  0.333333 -0.333333  0.250000      2.000000
  0.500000 -0.333333  0.250000      2.000000
 -0.333333 -0.333333  0.250000      2.000000
 -0.166667 -0.333333  0.250000      2.000000
  0.000000 -0.166667  0.250000      2.000000
  0.166667 -0.166667  0.250000      2.000000
  0.333333 -0.166667  0.250000      2.000000
  0.500000 -0.166667  0.250000      2.000000
 -0.333333 -0.166667  0.250000      2.000000
 -0.166667 -0.166667  0.250000      2.000000
  0.000000  0.166667  0.500000      2.000000
  0.166667  0.166667  0.500000      2.000000
  0.333333  0.166667  0.500000      2.000000
  0.500000  0.166667  0.500000      2.000000
 -0.333333  0.166667  0.500000      2.000000
 -0.166667  0.166667  0.500000      2.000000
  0.000000  0.333333  0.500000      2.000000
  0.166667  0.333333  0.500000      2.000000
  0.333333  0.333333  0.500000      2.000000
  0.500000  0.333333  0.500000      2.000000
 -0.333333  0.333333  0.500000      2.000000
 -0.166667  0.333333  0.500000      2.000000
  0.000000  0.500000  0.500000      1.000000
  0.166667  0.500000  0.500000      2.000000
  0.333333  0.500000  0.500000      2.000000
  0.500000  0.500000  0.500000      1.000000
 
 Following cartesian coordinates:
            Coordinates               Weight
  0.000000  0.000000  0.000000      1.000000
  0.032067 -0.018514 -0.013091      2.000000
  0.064134 -0.037028 -0.026182      2.000000
  0.096201 -0.055541 -0.039274      1.000000
  0.000000  0.037028 -0.013091      2.000000
  0.032067  0.018514 -0.026182      2.000000
  0.064134  0.000000 -0.039274      2.000000
  0.096201 -0.018514 -0.052365      2.000000
 -0.064134  0.074055  0.013091      2.000000
 -0.032067  0.055541  0.000000      2.000000
  0.000000  0.074055 -0.026182      2.000000
  0.032067  0.055541 -0.039274      2.000000
  0.064134  0.037028 -0.052365      2.000000
  0.096201  0.018514 -0.065456      2.000000
 -0.064134  0.111083  0.000000      2.000000
 -0.032067  0.092569 -0.013091      2.000000
  0.000000  0.111083 -0.039274      2.000000
  0.032067  0.092569 -0.052365      4.000000
  0.064134  0.074055 -0.065456      4.000000
  0.096201  0.055541 -0.078547      2.000000
  0.000000  0.000000  0.058911      2.000000
  0.032067 -0.018514  0.045819      2.000000
  0.064134 -0.037028  0.032728      2.000000
  0.096201 -0.055541  0.019637      2.000000
 -0.064134  0.037028  0.085093      2.000000
 -0.032067  0.018514  0.072002      2.000000
  0.000000  0.037028  0.045819      2.000000
  0.032067  0.018514  0.032728      2.000000
  0.064134  0.000000  0.019637      2.000000
  0.096201 -0.018514  0.006546      2.000000
 -0.064134  0.074055  0.072002      2.000000
 -0.032067  0.055541  0.058911      2.000000
  0.000000  0.074055  0.032728      2.000000
  0.032067  0.055541  0.019637      2.000000
  0.064134  0.037028  0.006546      2.000000
  0.096201  0.018514 -0.006546      2.000000
 -0.064134  0.111083  0.058911      2.000000
 -0.032067  0.092569  0.045819      2.000000
  0.000000  0.111083  0.019637      2.000000
  0.032067  0.092569  0.006546      2.000000
  0.064134  0.074055 -0.006546      2.000000
  0.096201  0.055541 -0.019637      2.000000
 -0.064134  0.148111  0.045819      2.000000
 -0.032067  0.129597  0.032728      2.000000
  0.000000 -0.074055  0.085093      2.000000
  0.032067 -0.092569  0.072002      2.000000
  0.064134 -0.111083  0.058911      2.000000
  0.096201 -0.129597  0.045819      2.000000
 -0.064134 -0.037028  0.111276      2.000000
 -0.032067 -0.055541  0.098184      2.000000
  0.000000 -0.037028  0.072002      2.000000
  0.032067 -0.055541  0.058911      2.000000
  0.064134 -0.074055  0.045819      2.000000
  0.096201 -0.092569  0.032728      2.000000
 -0.064134 -0.000000  0.098184      2.000000
 -0.032067 -0.018514  0.085093      2.000000
  0.000000  0.037028  0.104730      2.000000
  0.032067  0.018514  0.091639      2.000000
  0.064134  0.000000  0.078547      2.000000
  0.096201 -0.018514  0.065456      2.000000
 -0.064134  0.074055  0.130912      2.000000
 -0.032067  0.055541  0.117821      2.000000
  0.000000  0.074055  0.091639      2.000000
  0.032067  0.055541  0.078547      2.000000
  0.064134  0.037028  0.065456      2.000000
  0.096201  0.018514  0.052365      2.000000
 -0.064134  0.111083  0.117821      2.000000
 -0.032067  0.092569  0.104730      2.000000
  0.000000  0.111083  0.078547      1.000000
  0.032067  0.092569  0.065456      2.000000
  0.064134  0.074055  0.052365      2.000000
  0.096201  0.055541  0.039274      1.000000
 
 TETIRR: Found    432 inequivalent tetrahedra from      864


--------------------------------------------------------------------------------------------------------




 Dimension of arrays:
   k-points           NKPTS =     72   k-points in BZ     NKDIM =     72   number of bands    NBANDS=     41
   number of dos      NEDOS =    301   number of ions     NIONS =     16
   non local maximal  LDIM  =      4   non local SUM 2l+1 LMDIM =      8
   total plane-waves  NPLWV = 110592
   max r-space proj   IRMAX =      1   max aug-charges    IRDMAX=  13343
   dimension x,y,z NGX =    48 NGY =   48 NGZ =   48
   dimension x,y,z NGXF=    96 NGYF=   96 NGZF=   96
   support grid    NGXF=    96 NGYF=   96 NGZF=   96
   ions per type =              16
 NGX,Y,Z   is equivalent  to a cutoff of  15.35, 15.35, 15.35 a.u.
 NGXF,Y,Z  is equivalent  to a cutoff of  30.71, 30.71, 30.71 a.u.


 I would recommend the setting:
   dimension x,y,z NGX =    48 NGY =   48 NGZ =   48
 SYSTEM =  diamond                                 
 POSCAR =  C                                       

 Startparameter for this run:
   NWRITE =      2    write-flag & timer
   PREC   = accura    normal or accurate (medium, high low for compatibility)
   ISTART =      0    job   : 0-new  1-cont  2-samecut
   ICHARG =      2    charge: 1-file 2-atom 10-const
   ISPIN  =      1    spin polarized calculation?
   LNONCOLLINEAR =      F non collinear calculations
   LSORBIT =      F    spin-orbit coupling
   INIWAV =      1    electr: 0-lowe 1-rand  2-diag
   LASPH  =      F    aspherical Exc in radial PAW
   METAGGA=      F    non-selfconsistent MetaGGA calc.

 Electronic Relaxation 1
   ENCUT  =  800.0 eV  58.80 Ry    7.67 a.u.  11.99 11.99 11.99*2*pi/ulx,y,z
   ENINI  =  800.0     initial cutoff
   ENAUG  =  644.9 eV  augmentation charge cutoff
   NELM   =    200;   NELMIN=  2; NELMDL=  0     # of ELM steps 
   EDIFF  = 0.1E-07   stopping-criterion for ELM
   LREAL  =      F    real-space projection
   NLSPLINE    = F    spline interpolate recip. space projectors
   LCOMPAT=      F    compatible to vasp.4.4
   GGA_COMPAT  = T    GGA compatible to vasp.4.4-vasp.4.6
   LMAXPAW     = -100 max onsite density
   LMAXMIX     =    2 max onsite mixed and CHGCAR
   VOSKOWN=      0    Vosko Wilk Nusair interpolation
   ROPT   =    0.00000
 Ionic relaxation
   EDIFFG = 0.1E-02   stopping-criterion for IOM
   NSW    =      0    number of steps for IOM
   NBLOCK =      1;   KBLOCK =      1    inner block; outer block 
   IBRION =     -1    ionic relax: 0-MD 1-quasi-New 2-CG
   NFREE  =      0    steps in history (QN), initial steepest desc. (CG)
   ISIF   =      2    stress and relaxation
   IWAVPR =     10    prediction:  0-non 1-charg 2-wave 3-comb
   ISYM   =      2    0-nonsym 1-usesym 2-fastsym
   LCORR  =      T    Harris-Foulkes like correction to forces

   POTIM  = 0.5000    time-step for ionic-motion
   TEIN   =    0.0    initial temperature
   TEBEG  =    0.0;   TEEND  =   0.0 temperature during run
   SMASS  =  -3.00    Nose mass-parameter (am)
   estimated Nose-frequenzy (Omega)   =  0.10E-29 period in steps =****** mass=  -0.617E-27a.u.
   SCALEE = 1.0000    scale energy and forces
   NPACO  =    256;   APACO  = 16.0  distance and # of slots for P.C.
   PSTRESS=    0.0 pullay stress

  Mass of Ions in am
   POMASS =  12.01
  Ionic Valenz
   ZVAL   =   4.00
  Atomic Wigner-Seitz radii
   RWIGS  =  -1.00
  virtual crystal weights 
   VCA    =   1.00
   NELECT =      64.0000    total number of electrons
   NUPDOWN=      -1.0000    fix difference up-down

 DOS related values:
   EMIN   =  10.00;   EMAX   =-10.00  energy-range for DOS
   EFERMI =   0.00
   ISMEAR =    -5;   SIGMA  =   0.20  broadening in eV -4-tet -1-fermi 0-gaus

 Electronic relaxation 2 (details)
   IALGO  =     38    algorithm
   LDIAG  =      T    sub-space diagonalisation (order eigenvalues)
   LSUBROT=      F    optimize rotation matrix (better conditioning)
   TURBO    =      0    0=normal 1=particle mesh
   IRESTART =      0    0=no restart 2=restart with 2 vectors
   NREBOOT  =      0    no. of reboots
   NMIN     =      0    reboot dimension
   EREF     =   0.00    reference energy to select bands
   IMIX   =      4    mixing-type and parameters
     AMIX     =   0.40;   BMIX     =  1.00
     AMIX_MAG =   1.60;   BMIX_MAG =  1.00
     AMIN     =   0.10
     WC   =   100.;   INIMIX=   1;  MIXPRE=   1;  MAXMIX= -45

 Intra band minimization:
   WEIMIN = 0.0000     energy-eigenvalue tresh-hold
   EBREAK =  0.61E-10  absolut break condition
   DEPER  =   0.30     relativ break condition  

   TIME   =   0.40     timestep for ELM

  volume/ion in A,a.u.               =       6.20        41.87
  Fermi-wavevector in a.u.,A,eV,Ry     =   1.414212  2.672472 27.211578  1.999995
  Thomas-Fermi vector in A             =   2.535777
 
 Write flags
   LWAVE  =      F    write WAVECAR
   LCHARG =      F    write CHGCAR
   LVTOT  =      F    write LOCPOT, total local potential
   LVHAR  =      F    write LOCPOT, Hartree potential only
   LELF   =      F    write electronic localiz. function (ELF)
   LORBIT =      0    0 simple, 1 ext, 2 COOP (PROOUT)


 Dipole corrections
   LMONO  =      F    monopole corrections only (constant potential shift)
   LDIPOL =      F    correct potential (dipole corrections)
   IDIPOL =      0    1-x, 2-y, 3-z, 4-all directions 
   EPSILON=  1.0000000 bulk dielectric constant

 Exchange correlation treatment:
   GGA     =    PE    GGA type
   LEXCH   =     8    internal setting for exchange type
   VOSKOWN=      0    Vosko Wilk Nusair interpolation
   LHFCALC =     F    Hartree Fock is set to
   LHFONE  =     F    Hartree Fock one center treatment
   AEXX    =    0.0000 exact exchange contribution

 Linear response parameters
   LEPSILON=     F    determine dielectric tensor
   LRPA    =     F    only Hartree local field effects (RPA)
   LNABLA  =     F    use nabla operator in PAW spheres
   LVEL    =     F    velocity operator in full k-point grid
   LINTERFAST=   F  fast interpolation
   KINTER  =     0    interpolate to denser k-point grid
   CSHIFT  =0.1000    complex shift for real part using Kramers Kronig
   OMEGAMAX=  -1.0    maximum frequency
   DEG_THRESHOLD= 0.2000000E-02 threshold for treating states as degnerate
   RTIME   =    0.100 relaxation time in fs

 Orbital magnetization related:
   ORBITALMAG=     F  switch on orbital magnetization
   LCHIMAG   =     F  perturbation theory with respect to B field
   DQ        =  0.001000  dq finite difference perturbation B field



--------------------------------------------------------------------------------------------------------


 Static calculation
 charge density and potential will be updated during run
 non-spin polarized calculation
 Variant of blocked Davidson
 Davidson routine will perform the subspace rotation
 perform sub-space diagonalisation
    after iterative eigenvector-optimisation
 modified Broyden-mixing scheme, WC =      100.0
 initial mixing is a Kerker type mixing with AMIX =  0.4000 and BMIX =      1.0000
 Hartree-type preconditioning will be used
 using additional bands            9
 reciprocal scheme for non local part
 calculate Harris-corrections to forces 
   (improved forces if not selfconsistent)
 use gradient corrections 
 use of overlap-Matrix (Vanderbilt PP)
 Fermi weights with tetrahedron method with Bloechl corrections


--------------------------------------------------------------------------------------------------------


  energy-cutoff  :      800.00
  volume of cell :       99.28
      direct lattice vectors                 reciprocal lattice vectors
     5.197471083  0.000000000  0.000000000     0.192401263 -0.111082921 -0.078547487
     2.598735542  4.501141994  0.000000000     0.000000000  0.222165842 -0.078547487
     2.598735542  1.500380665  4.243717369     0.000000000  0.000000000  0.235642460

  length of vectors
     5.197471083  5.197471083  5.197471083     0.235642460  0.235642460  0.235642460


 
 k-points in units of 2pi/SCALE and weight: B4C B11C-CBC                            
   0.00000000  0.00000000  0.00000000       0.007
   0.03206688 -0.01851382 -0.01309125       0.014
   0.06413375 -0.03702764 -0.02618250       0.014
   0.09620063 -0.05554146 -0.03927374       0.007
   0.00000000  0.03702764 -0.01309125       0.014
   0.03206688  0.01851382 -0.02618250       0.014
   0.06413375  0.00000000 -0.03927374       0.014
   0.09620063 -0.01851382 -0.05236499       0.014
  -0.06413375  0.07405528  0.01309125       0.014
  -0.03206688  0.05554146  0.00000000       0.014
   0.00000000  0.07405528 -0.02618250       0.014
   0.03206688  0.05554146 -0.03927374       0.014
   0.06413375  0.03702764 -0.05236499       0.014
   0.09620063  0.01851382 -0.06545624       0.014
  -0.06413375  0.11108292  0.00000000       0.014
  -0.03206688  0.09256910 -0.01309125       0.014
   0.00000000  0.11108292 -0.03927374       0.014
   0.03206688  0.09256910 -0.05236499       0.028
   0.06413375  0.07405528 -0.06545624       0.028
   0.09620063  0.05554146 -0.07854749       0.014
   0.00000000  0.00000000  0.05891061       0.014
   0.03206688 -0.01851382  0.04581937       0.014
   0.06413375 -0.03702764  0.03272812       0.014
   0.09620063 -0.05554146  0.01963687       0.014
  -0.06413375  0.03702764  0.08509311       0.014
  -0.03206688  0.01851382  0.07200186       0.014
   0.00000000  0.03702764  0.04581937       0.014
   0.03206688  0.01851382  0.03272812       0.014
   0.06413375  0.00000000  0.01963687       0.014
   0.09620063 -0.01851382  0.00654562       0.014
  -0.06413375  0.07405528  0.07200186       0.014
  -0.03206688  0.05554146  0.05891061       0.014
   0.00000000  0.07405528  0.03272812       0.014
   0.03206688  0.05554146  0.01963687       0.014
   0.06413375  0.03702764  0.00654562       0.014
   0.09620063  0.01851382 -0.00654562       0.014
  -0.06413375  0.11108292  0.05891061       0.014
  -0.03206688  0.09256910  0.04581937       0.014
   0.00000000  0.11108292  0.01963687       0.014
   0.03206688  0.09256910  0.00654562       0.014
   0.06413375  0.07405528 -0.00654562       0.014
   0.09620063  0.05554146 -0.01963687       0.014
  -0.06413375  0.14811056  0.04581937       0.014
  -0.03206688  0.12959674  0.03272812       0.014
   0.00000000 -0.07405528  0.08509311       0.014
   0.03206688 -0.09256910  0.07200186       0.014
   0.06413375 -0.11108292  0.05891061       0.014
   0.09620063 -0.12959674  0.04581937       0.014
  -0.06413375 -0.03702764  0.11127561       0.014
  -0.03206688 -0.05554146  0.09818436       0.014
   0.00000000 -0.03702764  0.07200186       0.014
   0.03206688 -0.05554146  0.05891061       0.014
   0.06413375 -0.07405528  0.04581937       0.014
   0.09620063 -0.09256910  0.03272812       0.014
  -0.06413375 -0.00000000  0.09818436       0.014
  -0.03206688 -0.01851382  0.08509311       0.014
   0.00000000  0.03702764  0.10472998       0.014
   0.03206688  0.01851382  0.09163873       0.014
   0.06413375  0.00000000  0.07854749       0.014
   0.09620063 -0.01851382  0.06545624       0.014
  -0.06413375  0.07405528  0.13091248       0.014
  -0.03206688  0.05554146  0.11782123       0.014
   0.00000000  0.07405528  0.09163873       0.014
   0.03206688  0.05554146  0.07854749       0.014
   0.06413375  0.03702764  0.06545624       0.014
   0.09620063  0.01851382  0.05236499       0.014
  -0.06413375  0.11108292  0.11782123       0.014
  -0.03206688  0.09256910  0.10472998       0.014
   0.00000000  0.11108292  0.07854749       0.007
   0.03206688  0.09256910  0.06545624       0.014
   0.06413375  0.07405528  0.05236499       0.014
   0.09620063  0.05554146  0.03927374       0.007
 
 k-points in reciprocal lattice and weights: B4C B11C-CBC                            
   0.00000000  0.00000000  0.00000000       0.007
   0.16666667 -0.00000000 -0.00000000       0.014
   0.33333333  0.00000000  0.00000000       0.014
   0.50000000  0.00000000 -0.00000000       0.007
   0.00000000  0.16666667  0.00000000       0.014
   0.16666667  0.16666667  0.00000000       0.014
   0.33333333  0.16666667 -0.00000000       0.014
   0.50000000  0.16666667 -0.00000000       0.014
  -0.33333333  0.16666667  0.00000000       0.014
  -0.16666667  0.16666667  0.00000000       0.014
   0.00000000  0.33333333  0.00000000       0.014
   0.16666667  0.33333333 -0.00000000       0.014
   0.33333333  0.33333333  0.00000000       0.014
   0.50000000  0.33333333  0.00000000       0.014
  -0.33333333  0.33333333  0.00000000       0.014
  -0.16666667  0.33333333  0.00000000       0.014
   0.00000000  0.50000000 -0.00000000       0.014
   0.16666667  0.50000000 -0.00000000       0.028
   0.33333333  0.50000000  0.00000000       0.028
   0.50000000  0.50000000 -0.00000000       0.014
   0.00000000  0.00000000  0.25000000       0.014
   0.16666667 -0.00000000  0.25000000       0.014
   0.33333333  0.00000000  0.25000000       0.014
   0.50000000  0.00000000  0.25000000       0.014
  -0.33333333 -0.00000000  0.25000000       0.014
  -0.16666667  0.00000000  0.25000000       0.014
   0.00000000  0.16666667  0.25000000       0.014
   0.16666667  0.16666667  0.25000000       0.014
   0.33333333  0.16666667  0.25000000       0.014
   0.50000000  0.16666667  0.25000000       0.014
  -0.33333333  0.16666667  0.25000000       0.014
  -0.16666667  0.16666667  0.25000000       0.014
   0.00000000  0.33333333  0.25000000       0.014
   0.16666667  0.33333333  0.25000000       0.014
   0.33333333  0.33333333  0.25000000       0.014
   0.50000000  0.33333333  0.25000000       0.014
  -0.33333333  0.33333333  0.25000000       0.014
  -0.16666667  0.33333333  0.25000000       0.014
   0.00000000  0.50000000  0.25000000       0.014
   0.16666667  0.50000000  0.25000000       0.014
   0.33333333  0.50000000  0.25000000       0.014
   0.50000000  0.50000000  0.25000000       0.014
  -0.33333333  0.50000000  0.25000000       0.014
  -0.16666667  0.50000000  0.25000000       0.014
   0.00000000 -0.33333333  0.25000000       0.014
   0.16666667 -0.33333333  0.25000000       0.014
   0.33333333 -0.33333333  0.25000000       0.014
   0.50000000 -0.33333333  0.25000000       0.014
  -0.33333333 -0.33333333  0.25000000       0.014
  -0.16666667 -0.33333333  0.25000000       0.014
   0.00000000 -0.16666667  0.25000000       0.014
   0.16666667 -0.16666667  0.25000000       0.014
   0.33333333 -0.16666667  0.25000000       0.014
   0.50000000 -0.16666667  0.25000000       0.014
  -0.33333333 -0.16666667  0.25000000       0.014
  -0.16666667 -0.16666667  0.25000000       0.014
   0.00000000  0.16666667  0.50000000       0.014
   0.16666667  0.16666667  0.50000000       0.014
   0.33333333  0.16666667  0.50000000       0.014
   0.50000000  0.16666667  0.50000000       0.014
  -0.33333333  0.16666667  0.50000000       0.014
  -0.16666667  0.16666667  0.50000000       0.014
   0.00000000  0.33333333  0.50000000       0.014
   0.16666667  0.33333333  0.50000000       0.014
   0.33333333  0.33333333  0.50000000       0.014
   0.50000000  0.33333333  0.50000000       0.014
  -0.33333333  0.33333333  0.50000000       0.014
  -0.16666667  0.33333333  0.50000000       0.014
   0.00000000  0.50000000  0.50000000       0.007
   0.16666667  0.50000000  0.50000000       0.014
   0.33333333  0.50000000  0.50000000       0.014
   0.50000000  0.50000000  0.50000000       0.007
 
 position of ions in fractional coordinates (direct lattice) 
   0.00192401  0.00000000  0.00000000
   0.50000000  0.00000000  0.00000000
   0.00000000  0.50000000  0.00000000
   0.50000000  0.50000000  0.00000000
   0.00000000  0.00000000  0.50000000
   0.50000000  0.00000000  0.50000000
   0.00000000  0.50000000  0.50000000
   0.50000000  0.50000000  0.50000000
   0.12500000  0.12500000  0.12499999
   0.62500000  0.12500000  0.12499999
   0.12500000  0.62500000  0.12499999
   0.62500000  0.62500000  0.12499999
   0.12500000  0.12500000  0.62499999
   0.62500000  0.12500000  0.62499999
   0.12500000  0.62500000  0.62499999
   0.62500000  0.62500000  0.62499999
 
 position of ions in cartesian coordinates  (Angst):
   0.01000000  0.00000000  0.00000000
   2.59873554  0.00000000  0.00000000
   1.29936777  2.25057100  0.00000000
   3.89810331  2.25057100  0.00000000
   1.29936777  0.75019033  2.12185868
   3.89810331  0.75019033  2.12185868
   2.59873554  3.00076133  2.12185868
   5.19747108  3.00076133  2.12185868
   1.29936775  0.75019032  0.53046464
   3.89810329  0.75019032  0.53046464
   2.59873552  3.00076132  0.53046464
   5.19747106  3.00076132  0.53046464
   2.59873552  1.50038065  2.65232332
   5.19747106  1.50038065  2.65232332
   3.89810329  3.75095165  2.65232332
   6.49683883  3.75095165  2.65232332
 


--------------------------------------------------------------------------------------------------------


 k-point  1 :   0.0000 0.0000 0.0000  plane waves:    5029
 k-point  2 :   0.1667-0.0000-0.0000  plane waves:    5071
 k-point  3 :   0.3333 0.0000 0.0000  plane waves:    5090
 k-point  4 :   0.5000 0.0000-0.0000  plane waves:    5120
 k-point  5 :   0.0000 0.1667 0.0000  plane waves:    5071
 k-point  6 :   0.1667 0.1667 0.0000  plane waves:    5073
 k-point  7 :   0.3333 0.1667-0.0000  plane waves:    5100
 k-point  8 :   0.5000 0.1667-0.0000  plane waves:    5116
 k-point  9 :  -0.3333 0.1667 0.0000  plane waves:    5115
 k-point 10 :  -0.1667 0.1667 0.0000  plane waves:    5094
 k-point 11 :   0.0000 0.3333 0.0000  plane waves:    5090
 k-point 12 :   0.1667 0.3333-0.0000  plane waves:    5100
 k-point 13 :   0.3333 0.3333 0.0000  plane waves:    5085
 k-point 14 :   0.5000 0.3333 0.0000  plane waves:    5096
 k-point 15 :  -0.3333 0.3333 0.0000  plane waves:    5118
 k-point 16 :  -0.1667 0.3333 0.0000  plane waves:    5115
 k-point 17 :   0.0000 0.5000-0.0000  plane waves:    5120
 k-point 18 :   0.1667 0.5000-0.0000  plane waves:    5116
 k-point 19 :   0.3333 0.5000 0.0000  plane waves:    5096
 k-point 20 :   0.5000 0.5000-0.0000  plane waves:    5104
 k-point 21 :   0.0000 0.0000 0.2500  plane waves:    5087
 k-point 22 :   0.1667-0.0000 0.2500  plane waves:    5077
 k-point 23 :   0.3333 0.0000 0.2500  plane waves:    5084
 k-point 24 :   0.5000 0.0000 0.2500  plane waves:    5107
 k-point 25 :  -0.3333-0.0000 0.2500  plane waves:    5109
 k-point 26 :  -0.1667 0.0000 0.2500  plane waves:    5096
 k-point 27 :   0.0000 0.1667 0.2500  plane waves:    5077
 k-point 28 :   0.1667 0.1667 0.2500  plane waves:    5085
 k-point 29 :   0.3333 0.1667 0.2500  plane waves:    5093
 k-point 30 :   0.5000 0.1667 0.2500  plane waves:    5104
 k-point 31 :  -0.3333 0.1667 0.2500  plane waves:    5107
 k-point 32 :  -0.1667 0.1667 0.2500  plane waves:    5100
 k-point 33 :   0.0000 0.3333 0.2500  plane waves:    5084
 k-point 34 :   0.1667 0.3333 0.2500  plane waves:    5093
 k-point 35 :   0.3333 0.3333 0.2500  plane waves:    5096
 k-point 36 :   0.5000 0.3333 0.2500  plane waves:    5104
 k-point 37 :  -0.3333 0.3333 0.2500  plane waves:    5108
 k-point 38 :  -0.1667 0.3333 0.2500  plane waves:    5109
 k-point 39 :   0.0000 0.5000 0.2500  plane waves:    5107
 k-point 40 :   0.1667 0.5000 0.2500  plane waves:    5104
 k-point 41 :   0.3333 0.5000 0.2500  plane waves:    5104
 k-point 42 :   0.5000 0.5000 0.2500  plane waves:    5107
 k-point 43 :  -0.3333 0.5000 0.2500  plane waves:    5108
 k-point 44 :  -0.1667 0.5000 0.2500  plane waves:    5108
 k-point 45 :   0.0000-0.3333 0.2500  plane waves:    5109
 k-point 46 :   0.1667-0.3333 0.2500  plane waves:    5107
 k-point 47 :   0.3333-0.3333 0.2500  plane waves:    5108
 k-point 48 :   0.5000-0.3333 0.2500  plane waves:    5108
 k-point 49 :  -0.3333-0.3333 0.2500  plane waves:    5105
 k-point 50 :  -0.1667-0.3333 0.2500  plane waves:    5114
 k-point 51 :   0.0000-0.1667 0.2500  plane waves:    5096
 k-point 52 :   0.1667-0.1667 0.2500  plane waves:    5100
 k-point 53 :   0.3333-0.1667 0.2500  plane waves:    5109
 k-point 54 :   0.5000-0.1667 0.2500  plane waves:    5108
 k-point 55 :  -0.3333-0.1667 0.2500  plane waves:    5114
 k-point 56 :  -0.1667-0.1667 0.2500  plane waves:    5101
 k-point 57 :   0.0000 0.1667 0.5000  plane waves:    5116
 k-point 58 :   0.1667 0.1667 0.5000  plane waves:    5115
 k-point 59 :   0.3333 0.1667 0.5000  plane waves:    5116
 k-point 60 :   0.5000 0.1667 0.5000  plane waves:    5096
 k-point 61 :  -0.3333 0.1667 0.5000  plane waves:    5104
 k-point 62 :  -0.1667 0.1667 0.5000  plane waves:    5108
 k-point 63 :   0.0000 0.3333 0.5000  plane waves:    5096
 k-point 64 :   0.1667 0.3333 0.5000  plane waves:    5116
 k-point 65 :   0.3333 0.3333 0.5000  plane waves:    5115
 k-point 66 :   0.5000 0.3333 0.5000  plane waves:    5116
 k-point 67 :  -0.3333 0.3333 0.5000  plane waves:    5108
 k-point 68 :  -0.1667 0.3333 0.5000  plane waves:    5104
 k-point 69 :   0.0000 0.5000 0.5000  plane waves:    5104
 k-point 70 :   0.1667 0.5000 0.5000  plane waves:    5096
 k-point 71 :   0.3333 0.5000 0.5000  plane waves:    5116
 k-point 72 :   0.5000 0.5000 0.5000  plane waves:    5120

 maximum and minimum number of plane-waves per node :      5120     5029

 maximum number of plane-waves:      5120
 maximum index in each direction: 
   IXMAX=   12   IYMAX=   12   IZMAX=   11
   IXMIN=  -12   IYMIN=  -12   IZMIN=  -12

 WARNING: aliasing errors must be expected set NGX to  50 to avoid them
 WARNING: aliasing errors must be expected set NGY to  50 to avoid them
 NGZ is ok and might be reduce to  48
 aliasing errors are usually negligible using standard VASP settings
 and one can safely disregard these warnings

 serial   3D FFT for wavefunctions
 parallel 3D FFT for charge:
    minimum data exchange during FFTs selected (reduces bandwidth)


 total amount of memory used by VASP on root node   381078. kBytes
========================================================================

   base      :      30000. kBytes
   nonl-proj :      24903. kBytes
   fftplans  :      30736. kBytes
   grid      :      47517. kBytes
   one-center:         49. kBytes
   wavefun   :     247873. kBytes
 
     INWAV:  cpu time    0.00: real time    0.00
 Broyden mixing: mesh for mixing (old mesh)
   NGX = 23   NGY = 23   NGZ = 23
  (NGX  = 96   NGY  = 96   NGZ  = 96)
  gives a total of  12167 points

 initial charge density was supplied:
 charge density of overlapping atoms calculated
 number of electron      64.0000000 magnetization 
 keeping initial charge density in first step


--------------------------------------------------------------------------------------------------------


 Maximum index for augmentation-charges        12754 (set IRDMAX)


--------------------------------------------------------------------------------------------------------


 First call to EWALD:  gamma=   0.383
 Maximum number of real-space cells 3x 3x 3
 Maximum number of reciprocal cells 3x 3x 3

 FEWALD executed in parallel
    FEWALD:  cpu time    0.00: real time    0.00


----------------------------------------- Iteration    1(   1)  ---------------------------------------


    POTLOK:  cpu time    0.65: real time    1.27
    SETDIJ:  cpu time    0.05: real time    0.11
     EDDAV:  cpu time   75.23: real time  150.51
 BZINTS: Fermi energy: 22.242048; 64.000000 electrons
         Band energy: 359.290318;  BLOECHL correction: -0.198389
       DOS:  cpu time    0.05: real time    0.09
    --------------------------------------------
      LOOP:  cpu time   75.97: real time  152.00

 eigenvalue-minimisations  :  5904
 total energy-change (2. order) : 0.2710621E+03  (-0.4430645E+04)
 number of electron      64.0000000 magnetization 
 augmentation part       64.0000000 magnetization 

 Free energy of the ion-electron system (eV)
  ---------------------------------------------------
  alpha Z        PSCENC =       210.10220596
  Ewald energy   TEWEN  =     -2701.58427939
  -Hartree energ DENC   =      -157.14439587
  -exchange      EXHF   =         0.00000000
  -V(xc)+E(xc)   XCENC  =       224.33510925
  PAW double counting   =       605.30308954     -623.71076428
  entropy T*S    EENTRO =         0.00000000
  eigenvalues    EBANDS =       359.29031774
  atomic energy  EATOM  =      2354.47077523
  ---------------------------------------------------
  free energy    TOTEN  =       271.06205818 eV

  energy without entropy =      271.06205818  energy(sigma->0) =      271.06205818


--------------------------------------------------------------------------------------------------------




----------------------------------------- Iteration    1(   2)  ---------------------------------------


     EDDAV:  cpu time   89.86: real time  179.79
 BZINTS: Fermi energy: 10.191918; 64.000000 electrons
         Band energy: -41.726789;  BLOECHL correction:  0.000000
       DOS:  cpu time    0.02: real time    0.05
    --------------------------------------------
      LOOP:  cpu time   89.88: real time  179.86

 eigenvalue-minimisations  :  7539
 total energy-change (2. order) :-0.4010171E+03  (-0.3817352E+03)
 number of electron      64.0000000 magnetization 
 augmentation part       64.0000000 magnetization 

 Free energy of the ion-electron system (eV)
  ---------------------------------------------------
  alpha Z        PSCENC =       210.10220596
  Ewald energy   TEWEN  =     -2701.58427939
  -Hartree energ DENC   =      -157.14439587
  -exchange      EXHF   =         0.00000000
  -V(xc)+E(xc)   XCENC  =       224.33510925
  PAW double counting   =       605.30308954     -623.71076428
  entropy T*S    EENTRO =         0.00000000
  eigenvalues    EBANDS =       -41.72678917
  atomic energy  EATOM  =      2354.47077523
  ---------------------------------------------------
  free energy    TOTEN  =      -129.95504873 eV

  energy without entropy =     -129.95504873  energy(sigma->0) =     -129.95504873


--------------------------------------------------------------------------------------------------------




----------------------------------------- Iteration    1(   3)  ---------------------------------------


     EDDAV:  cpu time   85.23: real time  170.54
 BZINTS: Fermi energy:  7.348698; 64.000000 electrons
         Band energy: -59.938567;  BLOECHL correction:  0.000000
       DOS:  cpu time    0.01: real time    0.03
    --------------------------------------------
      LOOP:  cpu time   85.24: real time  170.58

 eigenvalue-minimisations  :  7275
 total energy-change (2. order) :-0.1821178E+02  (-0.1807422E+02)
 number of electron      64.0000000 magnetization 
 augmentation part       64.0000000 magnetization 

 Free energy of the ion-electron system (eV)
  ---------------------------------------------------
  alpha Z        PSCENC =       210.10220596
  Ewald energy   TEWEN  =     -2701.58427939
  -Hartree energ DENC   =      -157.14439587
  -exchange      EXHF   =         0.00000000
  -V(xc)+E(xc)   XCENC  =       224.33510925
  PAW double counting   =       605.30308954     -623.71076428
  entropy T*S    EENTRO =         0.00000000
  eigenvalues    EBANDS =       -59.93856670
  atomic energy  EATOM  =      2354.47077523
  ---------------------------------------------------
  free energy    TOTEN  =      -148.16682625 eV

  energy without entropy =     -148.16682625  energy(sigma->0) =     -148.16682625


--------------------------------------------------------------------------------------------------------




----------------------------------------- Iteration    1(   4)  ---------------------------------------


     EDDAV:  cpu time   88.59: real time  177.25
 BZINTS: Fermi energy:  7.261180; 64.000000 electrons
         Band energy: -60.298042;  BLOECHL correction:  0.000000
       DOS:  cpu time    0.01: real time    0.02
    --------------------------------------------
      LOOP:  cpu time   88.60: real time  177.28

 eigenvalue-minimisations  :  7414
 total energy-change (2. order) :-0.3594757E+00  (-0.3582197E+00)
 number of electron      64.0000000 magnetization 
 augmentation part       64.0000000 magnetization 

 Free energy of the ion-electron system (eV)
  ---------------------------------------------------
  alpha Z        PSCENC =       210.10220596
  Ewald energy   TEWEN  =     -2701.58427939
  -Hartree energ DENC   =      -157.14439587
  -exchange      EXHF   =         0.00000000
  -V(xc)+E(xc)   XCENC  =       224.33510925
  PAW double counting   =       605.30308954     -623.71076428
  entropy T*S    EENTRO =         0.00000000
  eigenvalues    EBANDS =       -60.29804235
  atomic energy  EATOM  =      2354.47077523
  ---------------------------------------------------
  free energy    TOTEN  =      -148.52630191 eV

  energy without entropy =     -148.52630191  energy(sigma->0) =     -148.52630191


--------------------------------------------------------------------------------------------------------




----------------------------------------- Iteration    1(   5)  ---------------------------------------


     EDDAV:  cpu time   86.60: real time  173.28
 BZINTS: Fermi energy:  7.290516; 64.000000 electrons
         Band energy: -60.308105;  BLOECHL correction:  0.000000
       DOS:  cpu time    0.01: real time    0.02
    CHARGE:  cpu time    6.23: real time   12.46
    MIXING:  cpu time    0.02: real time    0.04
    --------------------------------------------
      LOOP:  cpu time   92.86: real time  185.83

 eigenvalue-minimisations  :  7213
 total energy-change (2. order) :-0.1006298E-01  (-0.1005197E-01)
 number of electron      63.9999997 magnetization 
 augmentation part        1.4521138 magnetization 

 Broyden mixing:
  rms(total) = 0.12083E+01    rms(broyden)= 0.12083E+01
  rms(prec ) = 0.24964E+01
  weight for this iteration     100.00

 Free energy of the ion-electron system (eV)
  ---------------------------------------------------
  alpha Z        PSCENC =       210.10220596
  Ewald energy   TEWEN  =     -2701.58427939
  -Hartree energ DENC   =      -157.14439587
  -exchange      EXHF   =         0.00000000
  -V(xc)+E(xc)   XCENC  =       224.33510925
  PAW double counting   =       605.30308954     -623.71076428
  entropy T*S    EENTRO =         0.00000000
  eigenvalues    EBANDS =       -60.30810533
  atomic energy  EATOM  =      2354.47077523
  ---------------------------------------------------
  free energy    TOTEN  =      -148.53636488 eV

  energy without entropy =     -148.53636488  energy(sigma->0) =     -148.53636488


--------------------------------------------------------------------------------------------------------




----------------------------------------- Iteration    1(   6)  ---------------------------------------


    POTLOK:  cpu time    0.65: real time    1.28
    SETDIJ:  cpu time    0.05: real time    0.11
     EDDAV:  cpu time   85.86: real time  171.81
 BZINTS: Fermi energy:  7.840796; 64.000000 electrons
         Band energy: -31.104966;  BLOECHL correction:  0.000000
       DOS:  cpu time    0.01: real time    0.02
    CHARGE:  cpu time    6.20: real time   12.41
    MIXING:  cpu time    0.02: real time    0.04
    --------------------------------------------
      LOOP:  cpu time   92.79: real time  185.68

 eigenvalue-minimisations  :  7128
 total energy-change (2. order) : 0.2885304E+01  (-0.2088138E+00)
 number of electron      63.9999997 magnetization 
 augmentation part        1.4197123 magnetization 

 Broyden mixing:
  rms(total) = 0.67220E+00    rms(broyden)= 0.67220E+00
  rms(prec ) = 0.13659E+01
  weight for this iteration     100.00

 eigenvalues of (default mixing * dielectric matrix)
  average eigenvalue GAMMA=   2.1956
  2.1956

 Free energy of the ion-electron system (eV)
  ---------------------------------------------------
  alpha Z        PSCENC =       210.10220596
  Ewald energy   TEWEN  =     -2701.58427939
  -Hartree energ DENC   =      -185.12647975
  -exchange      EXHF   =         0.00000000
  -V(xc)+E(xc)   XCENC  =       226.92802880
  PAW double counting   =       754.13492230     -773.47126787
  entropy T*S    EENTRO =         0.00000000
  eigenvalues    EBANDS =       -31.10496633
  atomic energy  EATOM  =      2354.47077523
  ---------------------------------------------------
  free energy    TOTEN  =      -145.65106104 eV

  energy without entropy =     -145.65106104  energy(sigma->0) =     -145.65106104


--------------------------------------------------------------------------------------------------------




----------------------------------------- Iteration    1(   7)  ---------------------------------------


    POTLOK:  cpu time    0.62: real time    1.22
    SETDIJ:  cpu time    0.05: real time    0.09
     EDDAV:  cpu time   81.73: real time  163.55
 BZINTS: Fermi energy:  8.513253; 64.000000 electrons
         Band energy:   3.146311;  BLOECHL correction: -0.000000
       DOS:  cpu time    0.01: real time    0.01
    CHARGE:  cpu time    6.06: real time   12.15
    MIXING:  cpu time    0.02: real time    0.04
    --------------------------------------------
      LOOP:  cpu time   88.49: real time  177.08

 eigenvalue-minimisations  :  6904
 total energy-change (2. order) : 0.9675121E+00  (-0.2403853E+00)
 number of electron      63.9999997 magnetization 
 augmentation part        1.3854398 magnetization 

 Broyden mixing:
  rms(total) = 0.96211E-01    rms(broyden)= 0.96203E-01
  rms(prec ) = 0.15315E+00
  weight for this iteration     100.00

 eigenvalues of (default mixing * dielectric matrix)
  average eigenvalue GAMMA=   2.2501
  1.9937  2.5065

 Free energy of the ion-electron system (eV)
  ---------------------------------------------------
  alpha Z        PSCENC =       210.10220596
  Ewald energy   TEWEN  =     -2701.58427939
  -Hartree energ DENC   =      -220.91442514
  -exchange      EXHF   =         0.00000000
  -V(xc)+E(xc)   XCENC  =       230.29793325
  PAW double counting   =       952.74606743     -972.94813680
  entropy T*S    EENTRO =         0.00000000
  eigenvalues    EBANDS =         3.14631054
  atomic energy  EATOM  =      2354.47077523
  ---------------------------------------------------
  free energy    TOTEN  =      -144.68354891 eV

  energy without entropy =     -144.68354891  energy(sigma->0) =     -144.68354891


--------------------------------------------------------------------------------------------------------




----------------------------------------- Iteration    1(   8)  ---------------------------------------


    POTLOK:  cpu time    0.62: real time    1.23
    SETDIJ:  cpu time    0.05: real time    0.11
     EDDAV:  cpu time   88.16: real time  176.41
 BZINTS: Fermi energy:  8.616779; 64.000000 electrons
         Band energy:   3.556217;  BLOECHL correction:  0.000000
       DOS:  cpu time    0.01: real time    0.02
    CHARGE:  cpu time    6.27: real time   12.56
    MIXING:  cpu time    0.02: real time    0.04
    --------------------------------------------
      LOOP:  cpu time   95.14: real time  190.38

 eigenvalue-minimisations  :  7372
 total energy-change (2. order) :-0.1293936E-01  (-0.5338255E-02)
 number of electron      63.9999997 magnetization 
 augmentation part        1.3873320 magnetization 

 Broyden mixing:
  rms(total) = 0.10126E-01    rms(broyden)= 0.10125E-01
  rms(prec ) = 0.16175E-01
  weight for this iteration     100.00

 eigenvalues of (default mixing * dielectric matrix)
  average eigenvalue GAMMA=   2.0940
  1.4707  2.6426  2.1688

 Free energy of the ion-electron system (eV)
  ---------------------------------------------------
  alpha Z        PSCENC =       210.10220596
  Ewald energy   TEWEN  =     -2701.58427939
  -Hartree energ DENC   =      -221.66775115
  -exchange      EXHF   =         0.00000000
  -V(xc)+E(xc)   XCENC  =       230.37325552
  PAW double counting   =       963.32875847     -983.27567015
  entropy T*S    EENTRO =         0.00000000
  eigenvalues    EBANDS =         3.55621725
  atomic energy  EATOM  =      2354.47077523
  ---------------------------------------------------
  free energy    TOTEN  =      -144.69648827 eV

  energy without entropy =     -144.69648827  energy(sigma->0) =     -144.69648827


--------------------------------------------------------------------------------------------------------




----------------------------------------- Iteration    1(   9)  ---------------------------------------


    POTLOK:  cpu time    0.63: real time    1.26
    SETDIJ:  cpu time    0.05: real time    0.10
     EDDAV:  cpu time   86.96: real time  174.01
 BZINTS: Fermi energy:  8.606932; 64.000000 electrons
         Band energy:   3.393539;  BLOECHL correction:  0.000000
       DOS:  cpu time    0.01: real time    0.02
    CHARGE:  cpu time    6.14: real time   12.27
    MIXING:  cpu time    0.02: real time    0.05
    --------------------------------------------
      LOOP:  cpu time   93.82: real time  187.73

 eigenvalue-minimisations  :  7244
 total energy-change (2. order) :-0.4953232E-03  (-0.1036145E-03)
 number of electron      63.9999997 magnetization 
 augmentation part        1.3868701 magnetization 

 Broyden mixing:
  rms(total) = 0.38273E-02    rms(broyden)= 0.38272E-02
  rms(prec ) = 0.61747E-02
  weight for this iteration     100.00

 eigenvalues of (default mixing * dielectric matrix)
  average eigenvalue GAMMA=   2.0182
  0.9581  2.7757  2.4232  1.9159

 Free energy of the ion-electron system (eV)
  ---------------------------------------------------
  alpha Z        PSCENC =       210.10220596
  Ewald energy   TEWEN  =     -2701.58427939
  -Hartree energ DENC   =      -221.51427975
  -exchange      EXHF   =         0.00000000
  -V(xc)+E(xc)   XCENC  =       230.35839032
  PAW double counting   =       961.98781071     -981.91114558
  entropy T*S    EENTRO =         0.00000000
  eigenvalues    EBANDS =         3.39353890
  atomic energy  EATOM  =      2354.47077523
  ---------------------------------------------------
  free energy    TOTEN  =      -144.69698359 eV

  energy without entropy =     -144.69698359  energy(sigma->0) =     -144.69698359


--------------------------------------------------------------------------------------------------------




----------------------------------------- Iteration    1(  10)  ---------------------------------------


    POTLOK:  cpu time    0.63: real time    1.28
    SETDIJ:  cpu time    0.05: real time    0.09
     EDDAV:  cpu time   86.21: real time  172.51
 BZINTS: Fermi energy:  8.600512; 64.000000 electrons
         Band energy:   3.435925;  BLOECHL correction:  0.000000
       DOS:  cpu time    0.01: real time    0.03
    CHARGE:  cpu time    6.24: real time   12.48
    MIXING:  cpu time    0.02: real time    0.05
    --------------------------------------------
      LOOP:  cpu time   93.17: real time  186.45

 eigenvalue-minimisations  :  7178
 total energy-change (2. order) :-0.1239399E-03  (-0.1137758E-04)
 number of electron      63.9999997 magnetization 
 augmentation part        1.3868695 magnetization 

 Broyden mixing:
  rms(total) = 0.85257E-03    rms(broyden)= 0.85255E-03
  rms(prec ) = 0.17176E-02
  weight for this iteration     100.00

 eigenvalues of (default mixing * dielectric matrix)
  average eigenvalue GAMMA=   1.9187
  2.8569  2.5297  2.0524  1.0249  1.1297

 Free energy of the ion-electron system (eV)
  ---------------------------------------------------
  alpha Z        PSCENC =       210.10220596
  Ewald energy   TEWEN  =     -2701.58427939
  -Hartree energ DENC   =      -221.55986531
  -exchange      EXHF   =         0.00000000
  -V(xc)+E(xc)   XCENC  =       230.36215475
  PAW double counting   =       961.20783835     -981.13186239
  entropy T*S    EENTRO =         0.00000000
  eigenvalues    EBANDS =         3.43592526
  atomic energy  EATOM  =      2354.47077523
  ---------------------------------------------------
  free energy    TOTEN  =      -144.69710753 eV

  energy without entropy =     -144.69710753  energy(sigma->0) =     -144.69710753


--------------------------------------------------------------------------------------------------------




----------------------------------------- Iteration    1(  11)  ---------------------------------------


    POTLOK:  cpu time    0.63: real time    1.26
    SETDIJ:  cpu time    0.05: real time    0.10
     EDDAV:  cpu time   83.92: real time  167.93
 BZINTS: Fermi energy:  8.594711; 64.000000 electrons
         Band energy:   3.483342;  BLOECHL correction:  0.000000
       DOS:  cpu time    0.01: real time    0.02
    CHARGE:  cpu time    6.30: real time   12.60
    MIXING:  cpu time    0.02: real time    0.05
    --------------------------------------------
      LOOP:  cpu time   90.94: real time  181.96

 eigenvalue-minimisations  :  7156
 total energy-change (2. order) :-0.1853206E-05  (-0.8288279E-06)
 number of electron      63.9999997 magnetization 
 augmentation part        1.3867936 magnetization 

 Broyden mixing:
  rms(total) = 0.14098E-03    rms(broyden)= 0.14091E-03
  rms(prec ) = 0.25755E-03
  weight for this iteration     100.00

 eigenvalues of (default mixing * dielectric matrix)
  average eigenvalue GAMMA=   1.8385
  2.9451  2.5323  2.0374  1.4581  1.0291  1.0291

 Free energy of the ion-electron system (eV)
  ---------------------------------------------------
  alpha Z        PSCENC =       210.10220596
  Ewald energy   TEWEN  =     -2701.58427939
  -Hartree energ DENC   =      -221.60838343
  -exchange      EXHF   =         0.00000000
  -V(xc)+E(xc)   XCENC  =       230.36666509
  PAW double counting   =       961.28247427     -981.20990951
  entropy T*S    EENTRO =         0.00000000
  eigenvalues    EBANDS =         3.48334240
  atomic energy  EATOM  =      2354.47077523
  ---------------------------------------------------
  free energy    TOTEN  =      -144.69710939 eV

  energy without entropy =     -144.69710939  energy(sigma->0) =     -144.69710939


--------------------------------------------------------------------------------------------------------




----------------------------------------- Iteration    1(  12)  ---------------------------------------


    POTLOK:  cpu time    0.64: real time    1.28
    SETDIJ:  cpu time    0.05: real time    0.09
     EDDAV:  cpu time   86.63: real time  173.35
 BZINTS: Fermi energy:  8.588768; 64.000000 electrons
         Band energy:   3.477169;  BLOECHL correction:  0.000000
       DOS:  cpu time    0.01: real time    0.02
    CHARGE:  cpu time    6.21: real time   12.42
    MIXING:  cpu time    0.02: real time    0.05
    --------------------------------------------
      LOOP:  cpu time   93.57: real time  187.23

 eigenvalue-minimisations  :  7191
 total energy-change (2. order) : 0.1993931E-07  (-0.4414445E-07)
 number of electron      63.9999997 magnetization 
 augmentation part        1.3868041 magnetization 

 Broyden mixing:
  rms(total) = 0.53527E-04    rms(broyden)= 0.53525E-04
  rms(prec ) = 0.91970E-04
  weight for this iteration     100.00

 eigenvalues of (default mixing * dielectric matrix)
  average eigenvalue GAMMA=   1.8275
  2.8851  2.5587  2.0936  1.5868  1.5868  0.9967  1.0847

 Free energy of the ion-electron system (eV)
  ---------------------------------------------------
  alpha Z        PSCENC =       210.10220596
  Ewald energy   TEWEN  =     -2701.58427939
  -Hartree energ DENC   =      -221.60236977
  -exchange      EXHF   =         0.00000000
  -V(xc)+E(xc)   XCENC  =       230.36610432
  PAW double counting   =       961.27160453     -981.19831898
  entropy T*S    EENTRO =         0.00000000
  eigenvalues    EBANDS =         3.47716873
  atomic energy  EATOM  =      2354.47077523
  ---------------------------------------------------
  free energy    TOTEN  =      -144.69710937 eV

  energy without entropy =     -144.69710937  energy(sigma->0) =     -144.69710937


--------------------------------------------------------------------------------------------------------




----------------------------------------- Iteration    1(  13)  ---------------------------------------


    POTLOK:  cpu time    0.64: real time    1.26
    SETDIJ:  cpu time    0.05: real time    0.11
     EDDAV:  cpu time   85.72: real time  171.52
 BZINTS: Fermi energy:  8.583725; 64.000000 electrons
         Band energy:   3.479453;  BLOECHL correction:  0.000000
       DOS:  cpu time    0.01: real time    0.03
    CHARGE:  cpu time    6.29: real time   12.59
    MIXING:  cpu time    0.03: real time    0.05
    --------------------------------------------
      LOOP:  cpu time   92.74: real time  185.58

 eigenvalue-minimisations  :  7103
 total energy-change (2. order) :-0.1592280E-06  (-0.4978296E-08)
 number of electron      63.9999997 magnetization 
 augmentation part        1.3867981 magnetization 

 Broyden mixing:
  rms(total) = 0.29721E-04    rms(broyden)= 0.29719E-04
  rms(prec ) = 0.53867E-04
  weight for this iteration     100.00

 eigenvalues of (default mixing * dielectric matrix)
  average eigenvalue GAMMA=   1.7996
  2.9766  2.5944  2.4096  2.0081  0.9780  0.9780  1.2262  1.2262

 Free energy of the ion-electron system (eV)
  ---------------------------------------------------
  alpha Z        PSCENC =       210.10220596
  Ewald energy   TEWEN  =     -2701.58427939
  -Hartree energ DENC   =      -221.60474521
  -exchange      EXHF   =         0.00000000
  -V(xc)+E(xc)   XCENC  =       230.36633009
  PAW double counting   =       961.28563819     -981.21248713
  entropy T*S    EENTRO =         0.00000000
  eigenvalues    EBANDS =         3.47945273
  atomic energy  EATOM  =      2354.47077523
  ---------------------------------------------------
  free energy    TOTEN  =      -144.69710953 eV

  energy without entropy =     -144.69710953  energy(sigma->0) =     -144.69710953


--------------------------------------------------------------------------------------------------------




----------------------------------------- Iteration    1(  14)  ---------------------------------------


    POTLOK:  cpu time    0.64: real time    1.27
    SETDIJ:  cpu time    0.05: real time    0.09
     EDDAV:  cpu time   66.25: real time  132.57
 BZINTS: Fermi energy:  8.579333; 64.000000 electrons
         Band energy:   3.478784;  BLOECHL correction:  0.000000
       DOS:  cpu time    0.01: real time    0.02
    --------------------------------------------
      LOOP:  cpu time   66.95: real time  133.97

 eigenvalue-minimisations  :  4870
 total energy-change (2. order) :-0.3902642E-08  (-0.7946653E-09)
 number of electron      63.9999997 magnetization 
 augmentation part        1.3867981 magnetization 

 Free energy of the ion-electron system (eV)
  ---------------------------------------------------
  alpha Z        PSCENC =       210.10220596
  Ewald energy   TEWEN  =     -2701.58427939
  -Hartree energ DENC   =      -221.60416199
  -exchange      EXHF   =         0.00000000
  -V(xc)+E(xc)   XCENC  =       230.36627810
  PAW double counting   =       961.28895921     -981.21567031
  entropy T*S    EENTRO =         0.00000000
  eigenvalues    EBANDS =         3.47878366
  atomic energy  EATOM  =      2354.47077523
  ---------------------------------------------------
  free energy    TOTEN  =      -144.69710953 eV

  energy without entropy =     -144.69710953  energy(sigma->0) =     -144.69710953


--------------------------------------------------------------------------------------------------------




 average (electrostatic) potential at core
  the test charge radii are     0.6991
  (the norm of the test charge is              1.0000)
       1 -46.6429       2 -46.6428       3 -46.6485       4 -46.6370       5 -46.6485
       6 -46.6370       7 -46.6427       8 -46.6428       9 -46.6501      10 -46.6354
      11 -46.6428      12 -46.6428      13 -46.6428      14 -46.6428      15 -46.6452
      16 -46.6403
 
 
 
 E-fermi :   8.5793     XC(G=0): -12.7787     alpha+bet :-16.1789


 k-point     1 :       0.0000    0.0000    0.0000
  band No.  band energies     occupation 
      1     -11.8098      2.00000
      2      -6.5436      2.00000
      3      -6.5320      2.00000
      4      -6.5319      2.00000
      5      -6.5209      2.00000
      6      -3.9333      2.00000
      7      -3.9221      2.00000
      8      -3.9220      2.00000
      9      -3.9122      2.00000
     10      -3.6768      2.00000
     11      -3.6627      2.00000
     12      -3.6588      2.00000
     13      -3.6586      2.00000
     14      -3.6545      2.00000
     15      -3.6388      2.00000
     16       2.7120      2.00000
     17       2.7219      2.00000
     18       2.7226      2.00000
     19       2.7227      2.00000
     20       2.7234      2.00000
     21       2.7332      2.00000
     22       5.8904      2.00000
     23       5.9119      2.00000
     24       5.9186      2.00000
     25       5.9191      2.00000
     26       5.9216      2.00000
     27       5.9221      2.00000
     28       5.9290      2.00000
     29       5.9502      2.00000
     30       8.4786      2.00000
     31       8.4960      2.00000
     32       8.5139      2.00000
     33      13.0442      0.00000
     34      13.0557      0.00000
     35      13.0646      0.00000
     36      13.0647      0.00000
     37      13.0732      0.00000
     38      13.0837      0.00000
     39      13.8240      0.00000
     40      13.8397      0.00000
     41      13.8557      0.00000

 k-point     2 :       0.1667   -0.0000   -0.0000
  band No.  band energies     occupation 
      1     -11.6292      2.00000
      2      -7.5461      2.00000
      3      -6.5522      2.00000
      4      -6.5458      2.00000
      5      -6.5370      2.00000
      6      -4.7936      2.00000
      7      -4.7865      2.00000
      8      -4.7792      2.00000
      9      -3.6008      2.00000
     10      -3.5911      2.00000
     11      -3.5882      2.00000
     12      -2.6066      2.00000
     13      -2.3577      2.00000
     14      -2.3499      2.00000
     15      -2.3427      2.00000
     16       2.2211      2.00000
     17       2.2242      2.00000
     18       2.2338      2.00000
     19       2.8705      2.00000
     20       2.8777      2.00000
     21       2.8784      2.00000
     22       5.2907      2.00000
     23       5.2961      2.00000
     24       5.3182      2.00000
     25       5.5905      2.00000
     26       5.6006      2.00000
     27       5.6051      2.00000
     28       6.0252      2.00000
     29       6.0382      2.00000
     30       7.3646      2.00000
     31       8.1898      2.00000
     32       8.2053      2.00000
     33      13.0549      0.00000
     34      13.0600      0.00000
     35      13.0709      0.00000
     36      14.1307      0.00000
     37      14.1430      0.00000
     38      14.1503      0.00000
     39      14.2218      0.00000
     40      14.2369      0.00000
     41      14.4404      0.00000

 k-point     3 :       0.3333    0.0000    0.0000
  band No.  band energies     occupation 
      1     -11.0902      2.00000
      2      -8.9906      2.00000
      3      -6.4897      2.00000
      4      -6.4831      2.00000
      5      -6.4752      2.00000
      6      -5.6490      2.00000
      7      -5.6422      2.00000
      8      -5.6348      2.00000
      9      -2.7461      2.00000
     10      -2.7367      2.00000
     11      -2.7334      2.00000
     12      -1.3035      2.00000
     13      -1.2944      2.00000
     14      -1.2900      2.00000
     15      -0.2865      2.00000
     16       1.4912      2.00000
     17       1.4939      2.00000
     18       1.5062      2.00000
     19       3.3224      2.00000
     20       3.3305      2.00000
     21       3.3307      2.00000
     22       3.8265      2.00000
     23       3.8318      2.00000
     24       3.8503      2.00000
     25       4.8506      2.00000
     26       4.8600      2.00000
     27       4.8626      2.00000
     28       4.9855      2.00000
     29       6.3583      2.00000
     30       6.3718      2.00000
     31       7.5530      2.00000
     32       7.5671      2.00000
     33      13.5177      0.00000
     34      13.5214      0.00000
     35      13.5326      0.00000
     36      15.0569      0.00000
     37      15.0722      0.00000
     38      15.2171      0.00000
     39      15.2205      0.00000
     40      15.2321      0.00000
     41      15.3052      0.00000

 k-point     4 :       0.5000    0.0000   -0.0000
  band No.  band energies     occupation 
      1     -10.2099      2.00000
      2     -10.1946      2.00000
      3      -6.2202      2.00000
      4      -6.2058      2.00000
      5      -6.2049      2.00000
      6      -6.2022      2.00000
      7      -6.2008      2.00000
      8      -6.1843      2.00000
      9      -1.6948      2.00000
     10      -1.6768      2.00000
     11      -1.6749      2.00000
     12      -1.6699      2.00000
     13      -1.6695      2.00000
     14      -1.6649      2.00000
     15       2.2164      2.00000
     16       2.2190      2.00000
     17       2.2196      2.00000
     18       2.2238      2.00000
     19       2.2294      2.00000
     20       2.2514      2.00000
     21       2.3108      2.00000
     22       2.3351      2.00000
     23       4.0040      2.00000
     24       4.0198      2.00000
     25       4.0269      2.00000
     26       4.0329      2.00000
     27       4.0369      2.00000
     28       4.0381      2.00000
     29       6.8731      2.00000
     30       6.8993      2.00000
     31       6.9047      2.00000
     32       6.9055      2.00000
     33      14.2655      0.00000
     34      14.2699      0.00000
     35      14.2886      0.00000
     36      14.2903      0.00000
     37      14.2909      0.00000
     38      14.2941      0.00000
     39      15.8016      0.00000
     40      15.8291      0.00000
     41      15.8687      0.00000

 k-point     5 :       0.0000    0.1667    0.0000
  band No.  band energies     occupation 
      1     -11.6292      2.00000
      2      -7.5450      2.00000
      3      -6.5549      2.00000
      4      -6.5458      2.00000
      5      -6.5371      2.00000
      6      -4.7973      2.00000
      7      -4.7867      2.00000
      8      -4.7761      2.00000
      9      -3.6007      2.00000
     10      -3.5909      2.00000
     11      -3.5813      2.00000
     12      -2.6120      2.00000
     13      -2.3604      2.00000
     14      -2.3493      2.00000
     15      -2.3377      2.00000
     16       2.2171      2.00000
     17       2.2227      2.00000
     18       2.2283      2.00000
     19       2.8718      2.00000
     20       2.8784      2.00000
     21       2.8852      2.00000
     22       5.2859      2.00000
     23       5.2929      2.00000
     24       5.2994      2.00000
     25       5.5977      2.00000
     26       5.6060      2.00000
     27       5.6147      2.00000
     28       6.0226      2.00000
     29       6.0455      2.00000
     30       7.3520      2.00000
     31       8.1912      2.00000
     32       8.2183      2.00000
     33      13.0540      0.00000
     34      13.0648      0.00000
     35      13.0748      0.00000
     36      14.1291      0.00000
     37      14.1403      0.00000
     38      14.1488      0.00000
     39      14.2097      0.00000
     40      14.2350      0.00000
     41      14.4512      0.00000

 k-point     6 :       0.1667    0.1667    0.0000
  band No.  band energies     occupation 
      1     -11.5690      2.00000
      2      -6.9382      2.00000
      3      -6.9277      2.00000
      4      -6.9249      2.00000
      5      -6.9149      2.00000
      6      -6.0148      2.00000
      7      -3.5341      2.00000
      8      -3.5225      2.00000
      9      -3.5224      2.00000
     10      -3.5117      2.00000
     11      -3.1224      2.00000
     12      -3.1130      2.00000
     13      -3.1099      2.00000
     14      -3.0996      2.00000
     15      -1.0823      2.00000
     16       2.2470      2.00000
     17       2.2516      2.00000
     18       2.2555      2.00000
     19       2.2600      2.00000
     20       2.9497      2.00000
     21       2.9580      2.00000
     22       5.0909      2.00000
     23       5.1002      2.00000
     24       5.1081      2.00000
     25       5.1171      2.00000
     26       5.8549      2.00000
     27       5.8713      2.00000
     28       5.8739      2.00000
     29       5.8906      2.00000
     30       7.6674      2.00000
     31       7.6865      2.00000
     32       7.8752      2.00000
     33      12.5252      0.00000
     34      13.6455      0.00000
     35      13.9830      0.00000
     36      13.9965      0.00000
     37      14.0001      0.00000
     38      14.0123      0.00000
     39      14.1662      0.00000
     40      14.8480      0.00000
     41      14.8649      0.00000

 k-point     7 :       0.3333    0.1667   -0.0000
  band No.  band energies     occupation 
      1     -11.1495      2.00000
      2      -8.3732      2.00000
      3      -7.1032      2.00000
      4      -7.0934      2.00000
      5      -6.9689      2.00000
      6      -6.1188      2.00000
      7      -4.4804      2.00000
      8      -4.4700      2.00000
      9      -3.1806      2.00000
     10      -2.2708      2.00000
     11      -2.2593      2.00000
     12      -2.2348      2.00000
     13      -2.2268      2.00000
     14      -0.9844      2.00000
     15       0.1414      2.00000
     16       1.1711      2.00000
     17       1.1794      2.00000
     18       2.6203      2.00000
     19       2.6266      2.00000
     20       2.8126      2.00000
     21       3.3274      2.00000
     22       3.3935      2.00000
     23       4.1065      2.00000
     24       4.1152      2.00000
     25       5.1616      2.00000
     26       5.1996      2.00000
     27       5.3611      2.00000
     28       5.3756      2.00000
     29       5.7937      2.00000
     30       6.3457      2.00000
     31       6.9378      2.00000
     32       7.5900      2.00000
     33      12.8783      0.00000
     34      13.9071      0.00000
     35      14.2637      0.00000
     36      14.2756      0.00000
     37      15.4148      0.00000
     38      15.6136      0.00000
     39      15.7803      0.00000
     40      15.8415      0.00000
     41      16.1738      0.00000

 k-point     8 :       0.5000    0.1667   -0.0000
  band No.  band energies     occupation 
      1     -10.3777      2.00000
      2      -9.6758      2.00000
      3      -7.6070      2.00000
      4      -6.9904      2.00000
      5      -6.9807      2.00000
      6      -5.2618      2.00000
      7      -5.1868      2.00000
      8      -5.1760      2.00000
      9      -2.7853      2.00000
     10      -1.9993      2.00000
     11      -1.9896      2.00000
     12      -1.1459      2.00000
     13      -1.1358      2.00000
     14       0.3007      2.00000
     15       1.1422      2.00000
     16       1.1550      2.00000
     17       1.5181      2.00000
     18       1.5354      2.00000
     19       2.9079      2.00000
     20       2.9162      2.00000
     21       3.1570      2.00000
     22       3.2599      2.00000
     23       3.3036      2.00000
     24       3.3110      2.00000
     25       3.9689      2.00000
     26       4.3011      2.00000
     27       4.3124      2.00000
     28       4.3699      2.00000
     29       5.4734      2.00000
     30       6.2741      2.00000
     31       6.9767      2.00000
     32       6.9891      2.00000
     33      13.7688      0.00000
     34      14.6838      0.00000
     35      14.7279      0.00000
     36      14.8496      0.00000
     37      14.8618      0.00000
     38      15.2127      0.00000
     39      15.2252      0.00000
     40      15.8587      0.00000
     41      16.3215      0.00000

 k-point     9 :      -0.3333    0.1667    0.0000
  band No.  band energies     occupation 
      1     -10.6736      2.00000
      2      -9.2717      2.00000
      3      -7.9128      2.00000
      4      -6.5651      2.00000
      5      -6.5554      2.00000
      6      -5.6882      2.00000
      7      -5.6770      2.00000
      8      -4.4213      2.00000
      9      -2.8403      2.00000
     10      -2.8301      2.00000
     11      -2.4289      2.00000
     12      -0.6907      2.00000
     13      -0.4157      2.00000
     14      -0.4052      2.00000
     15       0.3370      2.00000
     16       0.6568      2.00000
     17       2.0630      2.00000
     18       2.0688      2.00000
     19       2.5227      2.00000
     20       2.5396      2.00000
     21       3.2872      2.00000
     22       3.2955      2.00000
     23       3.6273      2.00000
     24       4.1276      2.00000
     25       4.2141      2.00000
     26       4.2225      2.00000
     27       4.4957      2.00000
     28       4.7814      2.00000
     29       5.8042      2.00000
     30       6.0314      2.00000
     31       6.2955      2.00000
     32       7.6704      2.00000
     33      13.9633      0.00000
     34      14.3091      0.00000
     35      14.3217      0.00000
     36      14.8173      0.00000
     37      15.0345      0.00000
     38      15.4005      0.00000
     39      15.6491      0.00000
     40      15.6611      0.00000
     41      15.9616      0.00000

 k-point    10 :      -0.1667    0.1667    0.0000
  band No.  band energies     occupation 
      1     -11.3292      2.00000
      2      -7.8943      2.00000
      3      -7.8806      2.00000
      4      -6.1067      2.00000
      5      -6.0953      2.00000
      6      -5.8250      2.00000
      7      -5.8150      2.00000
      8      -3.6360      2.00000
      9      -3.5148      2.00000
     10      -3.5044      2.00000
     11      -3.2157      2.00000
     12      -1.7707      2.00000
     13      -1.7567      2.00000
     14      -1.1032      2.00000
     15      -1.0926      2.00000
     16       0.9562      2.00000
     17       2.3950      2.00000
     18       2.3974      2.00000
     19       2.6621      2.00000
     20       2.6744      2.00000
     21       3.1080      2.00000
     22       4.0961      2.00000
     23       4.1133      2.00000
     24       5.1233      2.00000
     25       5.1322      2.00000
     26       5.5644      2.00000
     27       5.5843      2.00000
     28       5.7049      2.00000
     29       5.7150      2.00000
     30       6.3865      2.00000
     31       6.9177      2.00000
     32       8.1819      2.00000
     33      13.4494      0.00000
     34      13.4878      0.00000
     35      13.5010      0.00000
     36      14.3282      0.00000
     37      14.9824      0.00000
     38      15.0294      0.00000
     39      15.0432      0.00000
     40      15.2980      0.00000
     41      15.8523      0.00000

 k-point    11 :       0.0000    0.3333    0.0000
  band No.  band energies     occupation 
      1     -11.0902      2.00000
      2      -8.9904      2.00000
      3      -6.4930      2.00000
      4      -6.4832      2.00000
      5      -6.4738      2.00000
      6      -5.6527      2.00000
      7      -5.6425      2.00000
      8      -5.6321      2.00000
      9      -2.7467      2.00000
     10      -2.7360      2.00000
     11      -2.7256      2.00000
     12      -1.3039      2.00000
     13      -1.2922      2.00000
     14      -1.2804      2.00000
     15      -0.2916      2.00000
     16       1.4840      2.00000
     17       1.4902      2.00000
     18       1.4964      2.00000
     19       3.3244      2.00000
     20       3.3313      2.00000
     21       3.3382      2.00000
     22       3.8200      2.00000
     23       3.8286      2.00000
     24       3.8370      2.00000
     25       4.8551      2.00000
     26       4.8634      2.00000
     27       4.8708      2.00000
     28       4.9778      2.00000
     29       6.3563      2.00000
     30       6.3794      2.00000
     31       7.5529      2.00000
     32       7.5776      2.00000
     33      13.5172      0.00000
     34      13.5275      0.00000
     35      13.5372      0.00000
     36      15.0468      0.00000
     37      15.0738      0.00000
     38      15.2184      0.00000
     39      15.2277      0.00000
     40      15.2391      0.00000
     41      15.3105      0.00000

 k-point    12 :       0.1667    0.3333   -0.0000
  band No.  band energies     occupation 
      1     -11.1495      2.00000
      2      -8.3728      2.00000
      3      -7.1033      2.00000
      4      -7.0934      2.00000
      5      -6.9691      2.00000
      6      -6.1215      2.00000
      7      -4.4809      2.00000
      8      -4.4704      2.00000
      9      -3.1735      2.00000
     10      -2.2705      2.00000
     11      -2.2589      2.00000
     12      -2.2320      2.00000
     13      -2.2256      2.00000
     14      -0.9893      2.00000
     15       0.1456      2.00000
     16       1.1670      2.00000
     17       1.1729      2.00000
     18       2.6234      2.00000
     19       2.6309      2.00000
     20       2.8079      2.00000
     21       3.3278      2.00000
     22       3.3867      2.00000
     23       4.1013      2.00000
     24       4.1109      2.00000
     25       5.1685      2.00000
     26       5.2021      2.00000
     27       5.3628      2.00000
     28       5.3838      2.00000
     29       5.7828      2.00000
     30       6.3422      2.00000
     31       6.9366      2.00000
     32       7.6047      2.00000
     33      12.8797      0.00000
     34      13.9024      0.00000
     35      14.2681      0.00000
     36      14.2815      0.00000
     37      15.4137      0.00000
     38      15.6145      0.00000
     39      15.7797      0.00000
     40      15.8464      0.00000
     41      16.1703      0.00000

 k-point    13 :       0.3333    0.3333    0.0000
  band No.  band energies     occupation 
      1     -10.8506      2.00000
      2      -8.0409      2.00000
      3      -7.4533      2.00000
      4      -7.4438      2.00000
      5      -7.4396      2.00000
      6      -7.4301      2.00000
      7      -3.2125      2.00000
      8      -3.2008      2.00000
      9      -3.2005      2.00000
     10      -3.1893      2.00000
     11      -1.4044      2.00000
     12      -1.3945      2.00000
     13      -1.3902      2.00000
     14      -1.3801      2.00000
     15       1.3594      2.00000
     16       1.3633      2.00000
     17       1.3675      2.00000
[...]
     24       3.3180      2.00000
     25       3.9798      2.00000
     26       4.2977      2.00000
     27       4.3080      2.00000
     28       4.3821      2.00000
     29       5.4740      2.00000
     30       6.2863      2.00000
     31       6.9828      2.00000
     32       7.0013      2.00000
     33      13.7775      0.00000
     34      14.6854      0.00000
     35      14.7382      0.00000
     36      14.8567      0.00000
     37      14.8683      0.00000
     38      15.2215      0.00000
     39      15.2341      0.00000
     40      15.8458      0.00000
     41      16.3428      0.00000

 k-point    67 :      -0.3333    0.3333    0.5000
  band No.  band energies     occupation 
      1      -9.7388      2.00000
      2      -9.7234      2.00000
      3      -8.3453      2.00000
      4      -8.3448      2.00000
      5      -5.8069      2.00000
      6      -5.7948      2.00000
      7      -4.9011      2.00000
      8      -4.8898      2.00000
      9      -2.2500      2.00000
     10      -2.2414      2.00000
     11      -1.3932      2.00000
     12      -1.3900      2.00000
     13       0.5151      2.00000
     14       0.5224      2.00000
     15       1.0279      2.00000
     16       1.0397      2.00000
     17       1.2588      2.00000
     18       1.2742      2.00000
     19       2.4691      2.00000
     20       2.4859      2.00000
     21       3.3155      2.00000
     22       3.3218      2.00000
     23       3.3790      2.00000
     24       3.3945      2.00000
     25       3.7238      2.00000
     26       3.7332      2.00000
     27       4.6356      2.00000
     28       4.6504      2.00000
     29       4.8310      2.00000
     30       4.8471      2.00000
     31       6.6323      2.00000
     32       6.6429      2.00000
     33      14.5395      0.00000
     34      14.5572      0.00000
     35      14.9038      0.00000
     36      14.9175      0.00000
     37      15.3508      0.00000
     38      15.3595      0.00000
     39      16.7326      0.00000
     40      16.7490      0.00000
     41      17.0448      0.00000

 k-point    68 :      -0.1667    0.3333    0.5000
  band No.  band energies     occupation 
      1      -9.4355      2.00000
      2      -9.4352      2.00000
      3      -8.7563      2.00000
      4      -8.7425      2.00000
      5      -6.1728      2.00000
      6      -6.1592      2.00000
      7      -4.5037      2.00000
      8      -4.4994      2.00000
      9      -1.9228      2.00000
     10      -1.9127      2.00000
     11      -0.9337      2.00000
     12      -0.9322      2.00000
     13       0.3062      2.00000
     14       0.3096      2.00000
     15       0.6000      2.00000
     16       0.6049      2.00000
     17       1.5745      2.00000
     18       1.5755      2.00000
     19       2.5123      2.00000
     20       2.5225      2.00000
     21       2.7588      2.00000
     22       2.7646      2.00000
     23       3.0019      2.00000
     24       3.0167      2.00000
     25       4.0817      2.00000
     26       4.0830      2.00000
     27       4.4142      2.00000
     28       4.4217      2.00000
     29       5.4792      2.00000
     30       5.4959      2.00000
     31       6.0053      2.00000
     32       6.0133      2.00000
     33      13.6888      0.00000
     34      13.6936      0.00000
     35      15.8650      0.00000
     36      15.8725      0.00000
     37      15.9796      0.00000
     38      15.9918      0.00000
     39      17.0598      0.00000
     40      17.0773      0.00000
     41      17.1547      0.00000

 k-point    69 :       0.0000    0.5000    0.5000
  band No.  band energies     occupation 
      1      -9.6666      2.00000
      2      -9.6664      2.00000
      3      -7.6529      2.00000
      4      -7.6371      2.00000
      5      -7.6371      2.00000
      6      -7.6215      2.00000
      7      -3.0149      2.00000
      8      -3.0036      2.00000
      9      -3.0025      2.00000
     10      -2.9914      2.00000
     11       0.2094      2.00000
     12       0.2212      2.00000
     13       0.2214      2.00000
     14       0.2325      2.00000
     15       0.9124      2.00000
     16       0.9177      2.00000
     17       0.9230      2.00000
     18       0.9282      2.00000
     19       1.4878      2.00000
     20       1.4943      2.00000
     21       1.4944      2.00000
     22       1.5008      2.00000
     23       4.0737      2.00000
     24       4.0745      2.00000
     25       4.7345      2.00000
     26       4.7347      2.00000
     27       4.7347      2.00000
     28       4.7357      2.00000
     29       5.7248      2.00000
     30       5.7352      2.00000
     31       5.7359      2.00000
     32       5.7460      2.00000
     33      12.7213      0.00000
     34      12.7218      0.00000
     35      15.9283      0.00000
     36      15.9403      0.00000
     37      15.9404      0.00000
     38      15.9502      0.00000
     39      17.8791      0.00000
     40      17.8905      0.00000
     41      17.9320      0.00000

 k-point    70 :       0.1667    0.5000    0.5000
  band No.  band energies     occupation 
      1     -10.1981      2.00000
      2      -8.8137      2.00000
      3      -8.7906      2.00000
      4      -7.4727      2.00000
      5      -7.4726      2.00000
      6      -6.2495      2.00000
      7      -4.0453      2.00000
      8      -4.0452      2.00000
      9      -2.3107      2.00000
     10      -2.3106      2.00000
     11      -1.5310      2.00000
     12      -0.3763      2.00000
     13      -0.3763      2.00000
     14       0.5590      2.00000
     15       0.5619      2.00000
     16       0.9225      2.00000
     17       1.1634      2.00000
     18       2.0378      2.00000
     19       2.0402      2.00000
     20       2.1881      2.00000
     21       2.1892      2.00000
     22       2.3478      2.00000
     23       3.3642      2.00000
     24       4.0813      2.00000
     25       4.0967      2.00000
     26       4.2165      2.00000
     27       4.9719      2.00000
     28       5.2410      2.00000
     29       5.2427      2.00000
     30       5.4684      2.00000
     31       5.9745      2.00000
     32       6.5029      2.00000
     33      13.0260      0.00000
     34      13.4206      0.00000
     35      15.3017      0.00000
     36      16.4106      0.00000
     37      16.6256      0.00000
     38      16.6352      0.00000
     39      16.6739      0.00000
     40      16.6873      0.00000
     41      16.7707      0.00000

 k-point    71 :       0.3333    0.5000    0.5000
  band No.  band energies     occupation 
      1     -10.3776      2.00000
      2      -9.6756      2.00000
      3      -7.6074      2.00000
      4      -6.9864      2.00000
      5      -6.9862      2.00000
      6      -5.2643      2.00000
      7      -5.1833      2.00000
      8      -5.1826      2.00000
      9      -2.7767      2.00000
     10      -1.9872      2.00000
     11      -1.9868      2.00000
     12      -1.1352      2.00000
     13      -1.1351      2.00000
     14       0.3118      2.00000
     15       1.1332      2.00000
     16       1.1384      2.00000
     17       1.5083      2.00000
     18       1.5206      2.00000
     19       2.8981      2.00000
     20       2.9054      2.00000
     21       3.1388      2.00000
     22       3.2453      2.00000
     23       3.3114      2.00000
     24       3.3172      2.00000
     25       3.9756      2.00000
     26       4.3068      2.00000
     27       4.3154      2.00000
     28       4.3772      2.00000
     29       5.4814      2.00000
     30       6.2782      2.00000
     31       6.9879      2.00000
     32       6.9964      2.00000
     33      13.7753      0.00000
     34      14.6808      0.00000
     35      14.7339      0.00000
     36      14.8638      0.00000
     37      14.8654      0.00000
     38      15.2287      0.00000
     39      15.2292      0.00000
     40      15.8604      0.00000
     41      16.3747      0.00000

 k-point    72 :       0.5000    0.5000    0.5000
  band No.  band energies     occupation 
      1     -10.2097      2.00000
      2     -10.1944      2.00000
      3      -6.2231      2.00000
      4      -6.2063      2.00000
      5      -6.2050      2.00000
      6      -6.2021      2.00000
      7      -6.2014      2.00000
      8      -6.1873      2.00000
      9      -1.6777      2.00000
     10      -1.6732      2.00000
     11      -1.6727      2.00000
     12      -1.6678      2.00000
     13      -1.6658      2.00000
     14      -1.6478      2.00000
     15       2.1764      2.00000
     16       2.2113      2.00000
     17       2.2161      2.00000
     18       2.2212      2.00000
     19       2.2219      2.00000
     20       2.2241      2.00000
     21       2.3033      2.00000
     22       2.3150      2.00000
     23       4.0232      2.00000
     24       4.0244      2.00000
     25       4.0284      2.00000
     26       4.0344      2.00000
     27       4.0419      2.00000
     28       4.0573      2.00000
     29       6.8930      2.00000
     30       6.8936      2.00000
     31       6.8993      2.00000
     32       6.9258      2.00000
     33      14.2803      0.00000
     34      14.2841      0.00000
     35      14.2846      0.00000
     36      14.2864      0.00000
     37      14.3044      0.00000
     38      14.3086      0.00000
     39      15.8146      0.00000
     40      15.8378      0.00000
     41      15.8608      0.00000


--------------------------------------------------------------------------------------------------------


 soft charge-density along one line, spin component           1
         0         1         2         3         4         5         6         7         8         9
 total charge-density along one line
 
 pseudopotential strength for first ion, spin component:           1
  9.510  -0.003   0.000   0.000   0.000  -0.000  -0.000  -0.000
 -0.003  -0.002   0.000   0.000   0.000  -0.000  -0.000  -0.000
  0.000   0.000  -3.730  -0.000  -0.000  -0.006  -0.000  -0.000
  0.000   0.000  -0.000  -3.730  -0.000  -0.000  -0.006  -0.000
  0.000   0.000  -0.000  -0.000  -3.730  -0.000  -0.000  -0.006
 -0.000  -0.000  -0.006  -0.000  -0.000  -0.759   0.000  -0.000
 -0.000  -0.000  -0.000  -0.006  -0.000   0.000  -0.759  -0.000
 -0.000  -0.000  -0.000  -0.000  -0.006  -0.000  -0.000  -0.759
 total augmentation occupancy for first ion, spin component:           1
  1.413  -0.882   0.000   0.000   0.004   0.000   0.000   0.001
 -0.882   0.804  -0.000  -0.000  -0.004  -0.000  -0.000  -0.001
  0.000  -0.000   1.054   0.000   0.003   0.162   0.000   0.001
  0.000  -0.000   0.000   1.054   0.002   0.000   0.162   0.001
  0.004  -0.004   0.003   0.002   1.054   0.001   0.001   0.162
  0.000  -0.000   0.162   0.000   0.001   0.030   0.000   0.000
  0.000  -0.000   0.000   0.162   0.001   0.000   0.030   0.000
  0.001  -0.001   0.001   0.001   0.162   0.000   0.000   0.030


------------------------ aborting loop because EDIFF is reached ----------------------------------------


    CHARGE:  cpu time    6.30: real time   12.59
    FORLOC:  cpu time    0.11: real time    0.23
    FORNL :  cpu time   18.84: real time   37.71
    STRESS:  cpu time   28.91: real time   57.84
    FORHAR:  cpu time    0.21: real time    0.42
    MIXING:  cpu time    0.02: real time    0.06
    OFIELD:  cpu time    0.00: real time    0.00

 ---------------------------------------------------------------------------------------------

         DFTD3 V3.0 Rev 1        
 IVDW         = 12
 DF pbe       
 parameters
 VDW_S6       =    1.0000
 VDW_S8       =    0.7875
 VDW_A1       =    0.4289
 VDW_A2       =    4.4407
 k1-k3        =   16.0000    1.3333   -4.0000
 VDW_RADIUS   =   50.2022 A
 VDW_CNRADIUS =   21.1671 A
 Edisp (eV)   -2.79980

 E6    (eV) :    -1.9922
 E8    (eV) :    -0.8076
 % E8        : 28.85
    FORVDW:  cpu time    0.18: real time    0.61

  FORCE on cell =-STRESS in cart. coord.  units (eV):
  Direction    XX          YY          ZZ          XY          YZ          ZX
  --------------------------------------------------------------------------------------
  Alpha Z   210.10221   210.10221   210.10221
  Ewald    -900.53082  -900.52770  -900.53447     1.40074     0.00949     0.99047
  Hartree    73.86645    73.86911    73.86814     0.23066     0.00137     0.16310
  E(xc)    -234.63365  -234.63367  -234.63368     0.00492     0.00003     0.00348
  Local    -104.03994  -104.05211  -104.04308    -1.44037    -0.01272    -1.01849
  n-local   -49.24612   -49.04978   -49.44423     0.11098    -0.07095    -0.12688
  augment    -5.07221    -5.07216    -5.07218    -0.00074     0.00003    -0.00052
  Kinetic   989.92847   988.46949   991.39917    -1.05319     0.52458     1.03022
  Fock        0.00000     0.00000     0.00000     0.00000     0.00000     0.00000
  vdW        -2.76427    -2.76427    -2.76427    -0.00015     0.00000    -0.00011
  -------------------------------------------------------------------------------------
  Total     -22.38989   -22.38955   -22.39171    -0.00725     0.00305    -0.00513
  in kB    -361.32776  -361.32229  -361.35709    -0.11703     0.04922    -0.08275
  external pressure =     -361.34 kB  Pullay stress =        0.00 kB


 VOLUME and BASIS-vectors are now :
 -----------------------------------------------------------------------------
  energy-cutoff  :      800.00
  volume of cell :       99.28
      direct lattice vectors                 reciprocal lattice vectors
     5.197471083  0.000000000  0.000000000     0.192401263 -0.111082921 -0.078547487
     2.598735542  4.501141994  0.000000000     0.000000000  0.222165842 -0.078547487
     2.598735542  1.500380665  4.243717369     0.000000000  0.000000000  0.235642460

  length of vectors
     5.197471083  5.197471083  5.197471083     0.235642460  0.235642460  0.235642460


 FORCES acting on ions
    electron-ion (+dipol)            ewald-force                    non-local-force                 convergence-correction
 -----------------------------------------------------------------------------------------------
   0.127E+01 0.134E-01 0.944E-02   -.146E+01 -.158E-01 -.112E-01   -.190E+00 -.571E-03 -.404E-03   0.540E-04 0.957E-06 0.677E-06
   -.502E+00 0.209E-03 0.148E-03   0.533E+00 -.877E-06 -.247E-05   0.259E-01 -.183E-03 -.129E-03   -.603E-04 -.128E-05 -.907E-06
   -.591E-01 -.256E+00 -.263E-01   0.469E-01 0.281E+00 0.138E-01   0.133E-01 0.728E-02 0.198E-02   0.102E-05 -.364E-04 0.160E-04
   -.591E-01 0.256E+00 0.263E-01   0.469E-01 -.281E+00 -.138E-01   0.133E-01 -.725E-02 -.205E-02   0.590E-05 0.363E-04 -.180E-04
   -.591E-01 -.110E+00 -.232E+00   0.469E-01 0.107E+00 0.260E+00   0.133E-01 0.430E-02 0.620E-02   0.102E-05 0.293E-05 -.396E-04
   -.591E-01 0.110E+00 0.232E+00   0.469E-01 -.107E+00 -.260E+00   0.133E-01 -.435E-02 -.615E-02   0.590E-05 -.483E-05 0.403E-04
   0.131E+00 -.747E-04 -.528E-04   -.138E+00 -.877E-06 -.247E-05   0.580E-02 0.336E-04 0.238E-04   -.519E-05 0.325E-05 0.230E-05
   -.910E-01 0.667E-05 0.475E-05   0.972E-01 -.877E-06 -.247E-05   -.232E-02 0.126E-04 0.893E-05   0.287E-05 -.892E-06 -.631E-06
   -.580E+00 -.625E+00 -.442E+00   0.670E+00 0.666E+00 0.471E+00   0.672E-02 -.241E-01 -.171E-01   -.286E-06 -.148E-04 -.105E-04
   -.579E+00 0.615E+00 0.435E+00   0.667E+00 -.654E+00 -.462E+00   0.409E-02 0.248E-01 0.175E-01   0.654E-05 0.791E-05 0.559E-05
   0.494E+00 -.516E-02 0.192E-02   -.474E+00 0.519E-02 -.165E-02   0.478E-01 0.191E-03 -.114E-03   0.220E-04 0.521E-05 -.269E-05
   -.185E+00 0.126E-02 -.218E-03   0.176E+00 -.132E-02 0.250E-03   0.380E-02 0.129E-05 -.515E-05   -.274E-04 0.475E-06 -.138E-05
   0.494E+00 0.906E-04 -.549E-02   -.474E+00 0.175E-03 0.544E-02   0.478E-01 -.441E-04 0.219E-03   0.220E-04 -.804E-06 0.581E-05
   -.185E+00 0.208E-03 0.127E-02   0.176E+00 -.207E-03 -.133E-02   0.380E-02 -.443E-05 0.293E-05   -.274E-04 -.115E-05 0.909E-06
   -.175E-01 -.967E-01 -.684E-01   0.186E-01 0.904E-01 0.639E-01   -.318E-02 0.404E-02 0.286E-02   0.148E-05 -.165E-04 -.117E-04
   -.181E-01 0.967E-01 0.684E-01   0.192E-01 -.904E-01 -.639E-01   -.323E-02 -.405E-02 -.286E-02   0.353E-05 0.153E-04 0.108E-04
 -----------------------------------------------------------------------------------------------
   0.522E-05 -.912E-04 -.168E-04   0.520E-14 0.560E-13 -.247E-13   0.514E-05 0.738E-04 0.522E-04   0.570E-05 -.430E-05 -.304E-05
 
 
 POSITION                                       TOTAL-FORCE (eV/Angst)
 -----------------------------------------------------------------------------------
      0.01000      0.00000      0.00000        -0.373321     -0.003058     -0.002162
      2.59874      0.00000      0.00000         0.057470      0.000023      0.000016
      1.29937      2.25057      0.00000         0.001062      0.032514     -0.010473
      3.89810      2.25057      0.00000         0.001107     -0.032589      0.010388
      1.29937      0.75019      2.12186         0.001062      0.000964      0.034145
      3.89810      0.75019      2.12186         0.001107     -0.001069     -0.034188
      2.59874      3.00076      2.12186        -0.000678     -0.000040     -0.000028
      5.19747      3.00076      2.12186         0.003870      0.000017      0.000012
      1.29937      0.75019      0.53046         0.096538      0.016605      0.011741
      3.89810      0.75019      0.53046         0.091952     -0.013741     -0.009716
      2.59874      3.00076      0.53046         0.068014      0.000234      0.000155
      5.19747      3.00076      0.53046        -0.006005     -0.000058      0.000020
      2.59874      1.50038      2.65232         0.068014      0.000225      0.000169
      5.19747      1.50038      2.65232        -0.006005     -0.000001     -0.000062
      3.89810      3.75095      2.65232        -0.002103     -0.002274     -0.001608
      6.49684      3.75095      2.65232        -0.002081      0.002249      0.001590
 -----------------------------------------------------------------------------------
    total drift:                                0.000016     -0.000022      0.000032


--------------------------------------------------------------------------------------------------------



  FREE ENERGIE OF THE ION-ELECTRON SYSTEM (eV)
  ---------------------------------------------------
  free  energy   TOTEN  =      -147.49690550 eV

  energy  without entropy=     -147.49690550  energy(sigma->0) =     -147.49690550
 


--------------------------------------------------------------------------------------------------------


    POTLOK:  cpu time    0.66: real time    1.99


--------------------------------------------------------------------------------------------------------


     LOOP+:  cpu time 1295.52: real time 2593.29
    4ORBIT:  cpu time    0.00: real time    0.00
 BZINTS: Fermi energy:  8.579333; 64.000000 electrons
         Band energy:   3.478784;  BLOECHL correction:  0.000000

 total amount of memory used by VASP on root node   381078. kBytes
========================================================================

   base      :      30000. kBytes
   nonl-proj :      24903. kBytes
   fftplans  :      30736. kBytes
   grid      :      47517. kBytes
   one-center:         49. kBytes
   wavefun   :     247873. kBytes
 
  
  
 General timing and accounting informations for this job:
 ========================================================
  
                  Total CPU time used (sec):     1302.200
                            User time (sec):     1234.567
                          System time (sec):       67.633
                         Elapsed time (sec):     2606.934
  
                   Maximum memory used (kb):      418536.
                   Average memory used (kb):           0.
  
                          Minor page faults:     11289637
                          Major page faults:            5
                 Voluntary context switches:          852
