  32  32   0   0
  0.9167123E+01  0.4932875E-09  0.4932875E-09  0.1392668E-08  0.5000000E-15
  1.000000000000000E-004
  CAR 
 graphite                                
     14.88657764    -17.24218397  301      4.35478632      1.00000000
    -17.242  0.0000E+00  0.0000E+00
    -17.135  0.0000E+00  0.0000E+00
    -17.028  0.0000E+00  0.0000E+00
    -16.921  0.0000E+00  0.0000E+00
    -16.814  0.0000E+00  0.0000E+00
    -16.707  0.0000E+00  0.0000E+00
    -16.600  0.0000E+00  0.0000E+00
    -16.493  0.0000E+00  0.0000E+00
    -16.385  0.0000E+00  0.0000E+00
    -16.278  0.0000E+00  0.0000E+00
    -16.171  0.0000E+00  0.0000E+00
    -16.064  0.0000E+00  0.0000E+00
    -15.957  0.0000E+00  0.0000E+00
    -15.850  0.0000E+00  0.0000E+00
    -15.743  0.0000E+00  0.0000E+00
    -15.636  0.0000E+00  0.0000E+00
    -15.529  0.0000E+00  0.0000E+00
    -15.422  0.0000E+00  0.0000E+00
    -15.314  0.0000E+00  0.0000E+00
    -15.207  0.2816E+00  0.3749E-02
    -15.100  0.2571E+01  0.1410E+00
    -14.993  0.4070E+01  0.4955E+00
    -14.886  0.5161E+01  0.1008E+01
    -14.779  0.4856E+01  0.1520E+01
    -14.672  0.5123E+01  0.2058E+01
    -14.565  0.5022E+01  0.2604E+01
    -14.458  0.4809E+01  0.3130E+01
    -14.351  0.4841E+01  0.3643E+01
    -14.243  0.5067E+01  0.4173E+01
    -14.136  0.5293E+01  0.4728E+01
    -14.029  0.7175E+01  0.5379E+01
    -13.922  0.7949E+01  0.6194E+01
    -13.815  0.6204E+01  0.7039E+01
    -13.708  0.2509E+01  0.7479E+01
    -13.601  0.1878E+01  0.7701E+01
    -13.494  0.2140E+01  0.7912E+01
    -13.387  0.2505E+01  0.8161E+01
    -13.280  0.2870E+01  0.8449E+01
    -13.173  0.7429E+01  0.8891E+01
    -13.065  0.9444E+01  0.9992E+01
    -12.958  0.7170E+01  0.1093E+02
    -12.851  0.3995E+01  0.1142E+02
    -12.744  0.4095E+01  0.1185E+02
    -12.637  0.4195E+01  0.1229E+02
    -12.530  0.4324E+01  0.1275E+02
    -12.423  0.4458E+01  0.1322E+02
    -12.316  0.4582E+01  0.1370E+02
    -12.209  0.4707E+01  0.1420E+02
    -12.102  0.5413E+01  0.1474E+02
    -11.994  0.6288E+01  0.1535E+02
    -11.887  0.6159E+01  0.1604E+02
    -11.780  0.5651E+01  0.1667E+02
    -11.673  0.5403E+01  0.1726E+02
    -11.566  0.5565E+01  0.1785E+02
    -11.459  0.5728E+01  0.1845E+02
    -11.352  0.5891E+01  0.1907E+02
    -11.245  0.6054E+01  0.1971E+02
    -11.138  0.5609E+01  0.2033E+02
    -11.031  0.5336E+01  0.2092E+02
    -10.924  0.5380E+01  0.2149E+02
    -10.816  0.4329E+01  0.2202E+02
    -10.709  0.4365E+01  0.2247E+02
    -10.602  0.4990E+01  0.2297E+02
    -10.495  0.5168E+01  0.2352E+02
    -10.388  0.5346E+01  0.2408E+02
    -10.281  0.7495E+01  0.2476E+02
    -10.174  0.1129E+02  0.2584E+02
    -10.067  0.9007E+01  0.2692E+02
     -9.960  0.6727E+01  0.2777E+02
     -9.853  0.4825E+01  0.2837E+02
     -9.745  0.4358E+01  0.2886E+02
     -9.638  0.3905E+01  0.2931E+02
     -9.531  0.3452E+01  0.2970E+02
     -9.424  0.6621E+01  0.3041E+02
     -9.317  0.2036E+01  0.3089E+02
     -9.210  0.1835E+01  0.3110E+02
     -9.103  0.1635E+01  0.3129E+02
     -8.996  0.1434E+01  0.3145E+02
     -8.889  0.1233E+01  0.3159E+02
     -8.782  0.1504E+01  0.3173E+02
     -8.675  0.2001E+01  0.3192E+02
     -8.567  0.2498E+01  0.3216E+02
     -8.460  0.3083E+01  0.3246E+02
     -8.353  0.7039E+01  0.3297E+02
     -8.246  0.1169E+02  0.3398E+02
     -8.139  0.4983E+01  0.3470E+02
     -8.032  0.5542E+01  0.3523E+02
     -7.925  0.6675E+01  0.3589E+02
     -7.818  0.7808E+01  0.3666E+02
     -7.711  0.8941E+01  0.3756E+02
     -7.604  0.9713E+01  0.3858E+02
     -7.496  0.5613E+01  0.3937E+02
     -7.389  0.5561E+01  0.3997E+02
     -7.282  0.5658E+01  0.4057E+02
     -7.175  0.5519E+01  0.4117E+02
     -7.068  0.5369E+01  0.4175E+02
     -6.961  0.5193E+01  0.4231E+02
     -6.854  0.5075E+01  0.4286E+02
     -6.747  0.4956E+01  0.4340E+02
     -6.640  0.4838E+01  0.4393E+02
     -6.533  0.4719E+01  0.4444E+02
     -6.426  0.4601E+01  0.4494E+02
     -6.318  0.4483E+01  0.4542E+02
     -6.211  0.4374E+01  0.4590E+02
     -6.104  0.4780E+01  0.4638E+02
     -5.997  0.5359E+01  0.4692E+02
     -5.890  0.5937E+01  0.4753E+02
     -5.783  0.6516E+01  0.4819E+02
     -5.676  0.7094E+01  0.4892E+02
     -5.569  0.7673E+01  0.4971E+02
     -5.462  0.8252E+01  0.5057E+02
     -5.355  0.8830E+01  0.5148E+02
     -5.247  0.5106E+01  0.5231E+02
     -5.140  0.4794E+01  0.5276E+02
     -5.033  0.7192E+01  0.5346E+02
     -4.926  0.5767E+01  0.5416E+02
     -4.819  0.4341E+01  0.5470E+02
     -4.712  0.2916E+01  0.5509E+02
     -4.605  0.1490E+01  0.5532E+02
     -4.498  0.1736E+01  0.5546E+02
     -4.391  0.3177E+01  0.5572E+02
     -4.284  0.4618E+01  0.5614E+02
     -4.176  0.6059E+01  0.5671E+02
     -4.069  0.1171E+02  0.5765E+02
     -3.962  0.1088E+02  0.5886E+02
     -3.855  0.1125E+02  0.6001E+02
     -3.748  0.1077E+02  0.6133E+02
     -3.641  0.5114E+01  0.6214E+02
     -3.534  0.5389E+01  0.6268E+02
     -3.427  0.6360E+01  0.6331E+02
     -3.320  0.8956E+01  0.6408E+02
     -3.213  0.1405E+02  0.6531E+02
     -3.106  0.2041E+02  0.6713E+02
     -2.998  0.6673E+01  0.6890E+02
     -2.891  0.6738E+01  0.6962E+02
     -2.784  0.7020E+01  0.7035E+02
     -2.677  0.7447E+01  0.7112E+02
     -2.570  0.9303E+01  0.7199E+02
     -2.463  0.1804E+02  0.7337E+02
     -2.356  0.1436E+02  0.7509E+02
     -2.249  0.1159E+02  0.7646E+02
     -2.142  0.1412E+02  0.7774E+02
     -2.035  0.3982E+02  0.8037E+02
     -1.927  0.1888E+02  0.8263E+02
     -1.820  0.1291E+02  0.8465E+02
     -1.713  0.1392E+02  0.8607E+02
     -1.606  0.1589E+02  0.8766E+02
     -1.499  0.9925E+01  0.8912E+02
     -1.392  0.6692E+01  0.9001E+02
     -1.285  0.7626E+01  0.9075E+02
     -1.178  0.8303E+01  0.9161E+02
     -1.071  0.9089E+01  0.9253E+02
     -0.964  0.1032E+02  0.9357E+02
     -0.857  0.1021E+02  0.9468E+02
     -0.749  0.1066E+02  0.9578E+02
     -0.642  0.2005E+02  0.9749E+02
     -0.535  0.1135E+02  0.9877E+02
     -0.428  0.1159E+02  0.9999E+02
     -0.321  0.1190E+02  0.1013E+03
     -0.214  0.1019E+02  0.1024E+03
     -0.107  0.1021E+02  0.1035E+03
      0.000  0.9795E+01  0.1046E+03
      0.107  0.9618E+01  0.1056E+03
      0.214  0.9528E+01  0.1066E+03
      0.322  0.9538E+01  0.1077E+03
      0.429  0.9202E+01  0.1087E+03
      0.536  0.9008E+01  0.1096E+03
      0.643  0.9050E+01  0.1106E+03
      0.750  0.9683E+01  0.1116E+03
      0.857  0.9688E+01  0.1127E+03
      0.964  0.1009E+02  0.1137E+03
      1.071  0.1096E+02  0.1149E+03
      1.178  0.9647E+01  0.1160E+03
      1.285  0.8207E+01  0.1169E+03
      1.392  0.6636E+01  0.1177E+03
      1.500  0.5885E+01  0.1184E+03
      1.607  0.5005E+01  0.1190E+03
      1.714  0.3731E+01  0.1194E+03
      1.821  0.2825E+01  0.1198E+03
      1.928  0.3449E+01  0.1201E+03
      2.035  0.5101E+01  0.1206E+03
      2.142  0.7611E+01  0.1212E+03
      2.249  0.1188E+02  0.1222E+03
      2.356  0.7888E+01  0.1232E+03
      2.463  0.6779E+01  0.1240E+03
      2.571  0.5976E+01  0.1247E+03
      2.678  0.4524E+01  0.1253E+03
      2.785  0.3697E+01  0.1257E+03
      2.892  0.3247E+01  0.1261E+03
      2.999  0.2901E+01  0.1264E+03
      3.106  0.2544E+01  0.1267E+03
      3.213  0.2215E+01  0.1269E+03
      3.320  0.1909E+01  0.1272E+03
      3.427  0.1555E+01  0.1273E+03
      3.534  0.1345E+01  0.1275E+03
      3.642  0.1135E+01  0.1276E+03
      3.749  0.9247E+00  0.1277E+03
      3.856  0.7147E+00  0.1278E+03
      3.963  0.5302E+00  0.1279E+03
      4.070  0.3671E+00  0.1280E+03
      4.177  0.2180E+00  0.1280E+03
      4.284  0.8103E-01  0.1280E+03
      4.391  0.2807E-01  0.1280E+03
      4.498  0.1414E+00  0.1280E+03
      4.605  0.2678E+00  0.1280E+03
      4.712  0.4096E+00  0.1281E+03
      4.820  0.5697E+00  0.1281E+03
      4.927  0.7617E+00  0.1282E+03
      5.034  0.9864E+00  0.1283E+03
      5.141  0.1211E+01  0.1284E+03
      5.248  0.1437E+01  0.1285E+03
      5.355  0.1662E+01  0.1287E+03
      5.462  0.1888E+01  0.1289E+03
      5.569  0.3282E+01  0.1292E+03
      5.676  0.3873E+01  0.1296E+03
      5.783  0.4226E+01  0.1300E+03
      5.891  0.6516E+01  0.1305E+03
      5.998  0.1002E+02  0.1314E+03
      6.105  0.1045E+02  0.1327E+03
      6.212  0.8202E+01  0.1337E+03
      6.319  0.6639E+01  0.1345E+03
      6.426  0.6048E+01  0.1352E+03
      6.533  0.5711E+01  0.1358E+03
      6.640  0.5205E+01  0.1364E+03
      6.747  0.4550E+01  0.1369E+03
      6.854  0.4148E+01  0.1374E+03
      6.961  0.3770E+01  0.1378E+03
      7.069  0.3798E+01  0.1382E+03
      7.176  0.4149E+01  0.1386E+03
      7.283  0.4600E+01  0.1391E+03
      7.390  0.4846E+01  0.1396E+03
      7.497  0.4737E+01  0.1401E+03
      7.604  0.4624E+01  0.1406E+03
      7.711  0.4433E+01  0.1411E+03
      7.818  0.4268E+01  0.1415E+03
      7.925  0.4157E+01  0.1420E+03
      8.032  0.4082E+01  0.1424E+03
      8.140  0.4032E+01  0.1429E+03
      8.247  0.3993E+01  0.1433E+03
      8.354  0.3967E+01  0.1437E+03
      8.461  0.4041E+01  0.1442E+03
      8.568  0.4207E+01  0.1446E+03
      8.675  0.4089E+01  0.1450E+03
      8.782  0.3964E+01  0.1455E+03
      8.889  0.3898E+01  0.1459E+03
      8.996  0.3874E+01  0.1463E+03
      9.103  0.3829E+01  0.1467E+03
      9.210  0.3848E+01  0.1471E+03
      9.318  0.3883E+01  0.1476E+03
      9.425  0.3915E+01  0.1480E+03
      9.532  0.3947E+01  0.1484E+03
      9.639  0.3977E+01  0.1488E+03
      9.746  0.3999E+01  0.1492E+03
      9.853  0.4262E+01  0.1497E+03
      9.960  0.4640E+01  0.1502E+03
     10.067  0.6414E+01  0.1507E+03
     10.174  0.5659E+01  0.1514E+03
     10.281  0.5433E+01  0.1520E+03
     10.389  0.5553E+01  0.1526E+03
     10.496  0.5413E+01  0.1532E+03
     10.603  0.6590E+01  0.1538E+03
     10.710  0.4247E+01  0.1544E+03
     10.817  0.2739E+01  0.1548E+03
     10.924  0.3229E+01  0.1551E+03
     11.031  0.4010E+01  0.1555E+03
     11.138  0.3163E+01  0.1558E+03
     11.245  0.2996E+01  0.1562E+03
     11.352  0.3067E+01  0.1565E+03
     11.460  0.3228E+01  0.1568E+03
     11.567  0.4034E+01  0.1572E+03
     11.674  0.6588E+01  0.1577E+03
     11.781  0.7373E+01  0.1585E+03
     11.888  0.9511E+01  0.1594E+03
     11.995  0.1140E+02  0.1606E+03
     12.102  0.1294E+02  0.1619E+03
     12.209  0.1319E+02  0.1633E+03
     12.316  0.1347E+02  0.1647E+03
     12.423  0.1330E+02  0.1662E+03
     12.530  0.8697E+01  0.1674E+03
     12.638  0.1586E+01  0.1680E+03
     12.745  0.7061E-01  0.1680E+03
     12.852  0.4251E-02  0.1680E+03
     12.959  0.0000E+00  0.1680E+03
     13.066  0.0000E+00  0.1680E+03
     13.173  0.0000E+00  0.1680E+03
     13.280  0.0000E+00  0.1680E+03
     13.387  0.0000E+00  0.1680E+03
     13.494  0.0000E+00  0.1680E+03
     13.601  0.0000E+00  0.1680E+03
     13.709  0.0000E+00  0.1680E+03
     13.816  0.0000E+00  0.1680E+03
     13.923  0.0000E+00  0.1680E+03
     14.030  0.0000E+00  0.1680E+03
     14.137  0.0000E+00  0.1680E+03
     14.244  0.0000E+00  0.1680E+03
     14.351  0.0000E+00  0.1680E+03
     14.458  0.0000E+00  0.1680E+03
     14.565  0.0000E+00  0.1680E+03
     14.672  0.0000E+00  0.1680E+03
     14.779  0.0000E+00  0.1680E+03
     14.887  0.0000E+00  0.1680E+03
