   32   32    1    1
  0.9167123E+01  0.4932875E-09  0.4932875E-09  0.1392668E-08  0.5000000E-15
  1.000000000000000E-004
  CAR 
 graphite                                
    128     76     84
 
  0.0000000E+00  0.0000000E+00  0.0000000E+00  0.6944444E-02
    1      -15.242184
    2      -15.133334
    3      -15.132963
    4      -15.018355
    5       -9.941517
    6       -9.931048
    7       -9.928257
    8       -9.898985
    9       -9.897349
   10       -9.887360
   11       -9.885786
   12       -9.885780
   13       -9.882114
   14       -9.860187
   15       -9.847836
   16       -9.845235
   17       -8.873934
   18       -8.872978
   19       -8.871572
   20       -8.849147
   21       -8.848507
   22       -8.846462
   23       -8.845717
   24       -8.845708
   25       -8.843582
   26       -8.811159
   27       -8.810310
   28       -8.807976
   29       -3.998095
   30       -3.260906
   31       -3.259415
   32       -2.377197
   33       -2.048574
   34       -2.046438
   35       -2.031701
   36       -2.028849
   37       -2.028844
   38       -2.028833
   39       -2.025122
   40       -2.012637
   41       -2.010083
   42       -2.009607
   43       -2.006967
   44       -1.991751
   45        1.342214
   46        1.347541
   47        1.348124
   48        1.351890
   49        1.359549
   50        1.363366
   51        1.363823
   52        1.368911
   53        1.679452
   54        1.683094
   55        1.685152
   56        1.994759
   57        1.997406
   58        2.004530
   59        2.004969
   60        2.005004
   61        2.008735
   62        2.230818
   63        2.246725
   64        2.248536
   65        5.861669
   66        5.863870
   67        5.868048
   68        6.013510
   69        6.016094
   70        6.018097
   71        6.020542
   72        6.020830
   73        6.023822
   74        6.442592
   75        6.448771
   76        6.451943
   77        8.375181
   78       10.731784
   79       10.734385
   80       11.596054
   81       11.599863
   82       11.631715
   83       11.743324
   84       11.747412
 
  0.1666667E+00 -0.2775558E-16  0.0000000E+00  0.1388889E-01
    1      -15.076894
    2      -14.969127
    3      -14.968763
    4      -14.855384
    5      -11.230598
    6      -11.149100
    7      -11.148796
    8      -11.064274
    9      -10.361801
   10      -10.354512
   11      -10.290672
   12      -10.289960
   13      -10.282938
   14      -10.282201
   15      -10.216964
   16      -10.209165
   17       -8.243370
   18       -8.237240
   19       -8.187264
   20       -8.185376
   21       -8.180144
   22       -8.179524
   23       -8.126065
   24       -8.119679
   25       -7.398777
   26       -7.341162
   27       -7.339676
   28       -7.280241
   29       -3.797556
   30       -3.065147
   31       -3.063662
   32       -2.538261
   33       -2.521709
   34       -2.514172
   35       -2.513975
   36       -2.498288
   37       -2.496210
   38       -2.489657
   39       -2.472911
   40       -2.187999
   41       -1.884253
   42       -1.866527
   43       -1.863889
   44       -1.845969
   45        0.623530
   46        0.693250
   47        0.704217
   48        0.708004
   49        0.718180
   50        1.004669
   51        1.012851
   52        1.016796
   53        1.026941
   54        1.157674
   55        1.159648
   56        1.467681
   57        1.472597
   58        1.736819
   59        1.887516
   60        1.890033
   61        1.896174
   62        1.896874
   63        2.283359
   64        2.295296
   65        6.070879
   66        6.072622
   67        6.294604
   68        6.297807
   69        6.300214
   70        6.303466
   71        6.720829
   72        6.727579
   73        6.786870
   74        7.118373
   75        7.122112
   76        7.602003
   77        8.578299
   78       10.915034
   79       10.917617
   80       11.686998
   81       11.827979
   82       11.829213
   83       11.967764
   84       12.355695
 
  0.3333333E+00 -0.5551115E-16  0.0000000E+00  0.1388889E-01
    1      -14.582773
    2      -14.478298
    3      -14.477954
    4      -14.368236
    5      -12.638096
    6      -12.546458
    7      -12.546165
    8      -12.450631
    9      -10.782491
   10      -10.778835
   11      -10.704588
   12      -10.703961
   13      -10.700747
   14      -10.699743
   15      -10.623009
   16      -10.619225
   17       -7.070886
   18       -7.061788
   19       -7.019100
   20       -7.017173
   21       -7.009376
   22       -7.008464
   23       -6.963714
   24       -6.954735
   25       -5.286282
   26       -5.239355
   27       -5.237611
   28       -5.189628
   29       -3.692691
   30       -3.678614
   31       -3.660933
   32       -3.660491
   33       -3.647465
   34       -3.645410
   35       -3.627682
   36       -3.613437
   37       -3.200496
   38       -2.483010
   39       -2.481533
   40       -1.626588
   41       -1.410598
   42       -1.393701
   43       -1.390859
   44       -1.373708
   45       -0.956436
   46       -0.935297
   47       -0.931438
   48       -0.911182
   49       -0.904178
   50       -0.265819
   51       -0.264300
   52        0.207407
   53        0.219754
   54        0.223573
   55        0.236741
   56        0.479114
   57        1.177621
   58        1.181096
   59        1.699264
   60        1.701754
   61        1.704920
   62        1.705685
   63        2.268472
   64        2.274561
   65        6.601257
   66        6.604558
   67        6.869951
   68        6.872006
   69        6.874546
   70        6.877632
   71        7.209805
   72        7.213431
   73        8.943298
   74        9.188073
   75        9.258382
   76        9.261201
   77        9.668284
   78       11.452739
   79       11.455440
   80       11.553074
   81       11.978046
   82       12.052683
   83       12.054253
   84       12.283986
 
  0.5000000E+00 -0.5551115E-16  0.0000000E+00  0.6944444E-02
    1      -13.767136
    2      -13.764435
    3      -13.669173
    4      -13.666575
    5      -13.666558
    6      -13.663722
    7      -13.563961
    8      -13.561198
    9      -10.930656
   10      -10.928994
   11      -10.851481
   12      -10.850028
   13      -10.850009
   14      -10.848090
   15      -10.767974
   16      -10.766260
   17       -6.166577
   18       -6.164955
   19       -6.138637
   20       -6.138635
   21       -6.138076
   22       -6.134197
   23       -6.111270
   24       -6.108759
   25       -4.582612
   26       -4.580888
   27       -4.564990
   28       -4.562503
   29       -4.561409
   30       -4.561407
   31       -4.540778
   32       -4.539727
   33       -3.070598
   34       -3.067157
   35       -3.037390
   36       -3.032201
   37       -3.032196
   38       -3.031659
   39       -2.998592
   40       -2.996074
   41       -2.224148
   42       -2.221941
   43       -1.534924
   44       -1.532775
   45       -1.532640
   46       -1.529568
   47       -0.717618
   48       -0.715111
   49       -0.677523
   50       -0.674399
   51       -0.661591
   52       -0.660300
   53       -0.660279
   54       -0.653660
   55       -0.644237
   56       -0.636360
   57        1.062666
   58        1.064677
   59        1.615291
   60        1.618488
   61        1.618688
   62        1.619952
   63        2.239990
   64        2.242247
   65        6.935325
   66        6.937756
   67        7.175635
   68        7.175940
   69        7.175952
   70        7.180593
   71        7.418075
   72        7.420566
   73       10.200627
   74       10.201463
   75       11.360524
   76       11.363863
   77       11.513045
   78       11.521430
   79       11.522015
   80       11.527433
   81       11.860730
   82       11.864272
   83       12.224476
   84       12.228305
 
  0.0000000E+00  0.1666667E+00  0.0000000E+00  0.1388889E-01
    1      -15.076890
    2      -14.969125
    3      -14.968757
    4      -14.855380
    5      -11.230611
    6      -11.149108
    7      -11.148821
    8      -11.064294
    9      -10.361889
   10      -10.354292
   11      -10.290887
   12      -10.289965
   13      -10.282930
   14      -10.281614
   15      -10.217006
   16      -10.208879
   17       -8.243703
   18       -8.238111
   19       -8.187273
   20       -8.186604
   21       -8.180409
   22       -8.180102
   23       -8.126296
   24       -8.120340
   25       -7.397896
   26       -7.339710
   27       -7.339416
   28       -7.279406
   29       -3.797566
   30       -3.065158
   31       -3.063674
   32       -2.537169
   33       -2.521490
   34       -2.514163
   35       -2.511765
   36       -2.498259
   37       -2.496210
   38       -2.488449
   39       -2.472935
   40       -2.188013
   41       -1.885260
   42       -1.866533
   43       -1.866267
   44       -1.847451
   45        0.622960
   46        0.696740
   47        0.708008
   48        0.708365
   49        0.719803
   50        1.003286
   51        1.012845
   52        1.012941
   53        1.022570
   54        1.157456
   55        1.158407
   56        1.467825
   57        1.473548
   58        1.735952
   59        1.887863
   60        1.890026
   61        1.896221
   62        1.898840
   63        2.283459
   64        2.296396
   65        6.069292
   66        6.072271
   67        6.294045
   68        6.296313
   69        6.299765
   70        6.301936
   71        6.720429
   72        6.725898
   73        6.788444
   74        7.120545
   75        7.122898
   76        7.603470
   77        8.578291
   78       10.915000
   79       10.917582
   80       11.686400
   81       11.827809
   82       11.828152
   83       11.967129
   84       12.329669
 
  0.1666667E+00  0.1666667E+00  0.0000000E+00  0.1388889E-01
    1      -14.746944
    2      -14.641379
    3      -14.641028
    4      -14.530079
    5      -11.851270
    6      -11.848438
    7      -11.766148
    8      -11.763478
    9      -11.763460
   10      -11.760432
   11      -11.674963
   12      -11.672060
   13       -9.516716
   14       -9.475965
   15       -9.474729
   16       -9.439172
   17       -8.470203
   18       -8.449160
   19       -8.445875
   20       -8.415384
   21       -6.291250
   22       -6.287860
   23       -6.240776
   24       -6.236964
   25       -6.236946
   26       -6.234183
   27       -6.185222
   28       -6.181947
   29       -3.864371
   30       -3.831668
   31       -3.829800
   32       -3.796215
   33       -3.398428
   34       -2.675808
   35       -2.674332
   36       -2.210369
   37       -2.207897
   38       -2.188004
   39       -2.186458
   40       -2.186453
   41       -2.182561
   42       -2.163873
   43       -2.160655
   44       -1.812277
   45       -0.340947
   46       -0.329979
   47       -0.326122
   48       -0.316672
   49       -0.012241
   50       -0.010277
   51        0.327738
   52        0.334235
   53        0.337995
   54        0.347368
   55        0.582622
   56        0.584545
   57        0.584636
   58        0.587641
   59        1.261190
   60        1.263540
   61        2.279011
   62        2.592583
   63        2.594922
   64        2.819206
   65        5.767013
   66        5.799818
   67        5.804303
   68        6.041306
   69        7.744908
   70        7.747326
   71        8.069396
   72        8.073321
   73        8.073723
   74        8.075542
   75        8.484978
   76        8.487662
   77        8.986710
   78       11.283165
   79       11.285760
   80       12.430549
   81       12.434050
   82       12.609912
   83       12.624388
   84       12.641057
 
  0.3333333E+00  0.1666667E+00  0.0000000E+00  0.1388889E-01
    1      -14.091140
    2      -13.989915
    3      -13.989592
    4      -13.883492
    5      -13.120059
    6      -13.025272
    7      -13.024956
    8      -12.925921
    9      -12.166153
   10      -12.077763
   11      -12.077378
   12      -11.985369
   13       -9.495055
   14       -9.429958
   15       -9.429590
   16       -9.363135
   17       -7.605342
   18       -7.562868
   19       -7.560186
   20       -7.516374
   21       -5.298686
   22       -5.266231
   23       -5.264241
   24       -5.229387
   25       -5.134570
   26       -5.097975
   27       -5.096397
   28       -5.059452
   29       -4.152514
   30       -4.114061
   31       -4.112350
   32       -4.073163
   33       -3.109521
   34       -3.085076
   35       -3.083666
   36       -3.058043
   37       -2.610012
   38       -2.066344
   39       -2.044345
   40       -2.040773
   41       -2.017224
   42       -1.907493
   43       -1.906243
   44       -1.571235
   45       -1.551756
   46       -1.549203
   47       -1.529324
   48       -1.459423
   49       -1.074593
   50       -0.794946
   51       -0.793564
   52       -0.675932
   53       -0.662341
   54       -0.658131
   55       -0.643477
   56       -0.345076
   57       -0.014027
   58        0.276976
   59        0.278164
   60        0.997551
   61        2.582754
   62        3.001212
   63        3.003266
   64        3.403313
   65        5.473901
   66        5.656230
   67        5.659556
   68        5.911369
   69        8.545174
   70        8.787663
   71        8.789394
   72        9.046700
   73        9.802584
   74       10.033417
   75       10.279410
   76       10.282080
   77       10.586919
   78       11.012496
   79       11.972479
   80       11.978464
   81       12.220748
   82       12.279931
   83       12.464943
   84       12.470384
 
  0.5000000E+00  0.1666667E+00  0.0000000E+00  0.1388889E-01
    1      -14.092336
    2      -13.991111
    3      -13.990776
    4      -13.884682
    5      -13.118376
    6      -13.023586
    7      -13.023282
    8      -12.924245
    9      -12.167372
   10      -12.078988
   11      -12.078594
   12      -11.986591
   13       -9.492183
   14       -9.426804
   15       -9.426595
   16       -9.359814
   17       -7.600616
   18       -7.557281
   19       -7.556273
   20       -7.511662
   21       -5.306934
   22       -5.274039
   23       -5.273462
   24       -5.238126
   25       -5.143929
   26       -5.107691
   27       -5.104780
   28       -5.068139
   29       -4.156189
   30       -4.118072
   31       -4.115678
   32       -4.076832
   33       -3.098420
   34       -3.074398
   35       -3.071456
   36       -3.046353
   37       -2.611306
   38       -2.064291
   39       -2.041662
   40       -2.039916
   41       -2.015583
   42       -1.908728
   43       -1.907524
   44       -1.567816
   45       -1.548666
   46       -1.545331
   47       -1.525698
   48       -1.457699
   49       -1.075856
   50       -0.793289
   51       -0.791840
   52       -0.677672
   53       -0.663460
   54       -0.661117
   55       -0.646390
   56       -0.346359
   57       -0.012384
   58        0.275512
   59        0.276780
   60        0.995891
   61        2.584110
   62        3.005250
   63        3.006162
   64        3.410714
   65        5.471264
   66        5.656851
   67        5.658520
   68        5.911101
   69        8.541429
   70        8.784275
   71        8.786670
   72        9.045282
   73        9.800887
   74       10.033574
   75       10.278085
   76       10.281223
   77       10.584784
   78       11.014841
   79       11.971612
   80       11.977537
   81       12.219360
   82       12.277707
   83       12.463783
   84       12.469011
 
 -0.3333333E+00  0.1666667E+00  0.0000000E+00  0.1388889E-01
    1      -14.747659
    2      -14.642096
    3      -14.641735
    4      -14.530789
    5      -11.853453
    6      -11.847659
    7      -11.767241
    8      -11.766869
    9      -11.761391
   10      -11.761113
   11      -11.677276
   12      -11.671446
   13       -9.506074
   14       -9.463967
   15       -9.463748
   16       -9.426791
   17       -8.470485
   18       -8.447505
   19       -8.447297
   20       -8.414910
   21       -6.299190
   22       -6.293521
   23       -6.247935
   24       -6.245824
   25       -6.242167
   26       -6.240473
   27       -6.193238
   28       -6.187803
   29       -3.877882
   30       -3.844435
   31       -3.844180
   32       -3.809838
   33       -3.399222
   34       -2.676593
   35       -2.675126
   36       -2.205925
   37       -2.192897
   38       -2.184112
   39       -2.181334
   40       -2.170894
   41       -2.168484
   42       -2.159199
   43       -2.146299
   44       -1.813060
   45       -0.345445
   46       -0.333927
   47       -0.333757
   48       -0.322653
   49       -0.015202
   50       -0.009044
   51        0.334111
   52        0.341893
   53        0.341975
   54        0.350399
   55        0.579708
   56        0.581020
   57        0.586188
   58        0.587914
   59        1.257017
   60        1.264382
   61        2.281915
   62        2.601680
   63        2.601925
   64        2.834490
   65        5.761739
   66        5.801504
   67        5.803437
   68        6.044260
   69        7.741164
   70        7.744478
   71        8.065510
   72        8.068837
   73        8.069149
   74        8.072428
   75        8.481753
   76        8.483132
   77        8.985659
   78       11.282073
   79       11.284662
   80       12.432099
   81       12.447879
   82       12.608812
   83       12.637277
   84       12.642864
 
 -0.1666667E+00  0.1666667E+00  0.0000000E+00  0.1388889E-01
    1      -15.077129
    2      -14.969363
    3      -14.968992
    4      -14.855617
    5      -11.236906
    6      -11.155458
    7      -11.155169
    8      -11.070704
    9      -10.353200
   10      -10.351225
   11      -10.282243
   12      -10.280590
   13      -10.280578
   14      -10.278219
   15      -10.207942
   16      -10.205899
   17       -8.241520
   18       -8.239742
   19       -8.185507
   20       -8.182964
   21       -8.182952
   22       -8.182054
   23       -8.123998
   24       -8.122318
   25       -7.405230
   26       -7.347819
   27       -7.345869
   28       -7.286624
   29       -3.797833
   30       -3.065422
   31       -3.063942
   32       -2.537805
   33       -2.535849
   34       -2.514173
   35       -2.513335
   36       -2.513331
   37       -2.509742
   38       -2.489515
   39       -2.486877
   40       -2.188277
   41       -1.868181
   42       -1.850293
   43       -1.848044
   44       -1.830129
   45        0.617332
   46        0.685269
   47        0.695275
   48        0.699571
   49        0.711208
   50        1.011987
   51        1.021843
   52        1.025708
   53        1.033886
   54        1.150498
   55        1.151961
   56        1.473438
   57        1.475483
   58        1.727376
   59        1.896555
   60        1.897311
   61        1.897407
   62        1.900997
   63        2.295395
   64        2.297486
   65        6.068828
   66        6.071297
   67        6.294502
   68        6.299689
   69        6.299945
   70        6.301435
   71        6.722992
   72        6.725868
   73        6.785291
   74        7.114254
   75        7.118079
   76        7.597454
   77        8.577928
   78       10.914606
   79       10.917189
   80       11.719330
   81       11.860452
   82       11.861553
   83       11.999861
   84       12.330218
 
  0.0000000E+00  0.3333333E+00  0.0000000E+00  0.1388889E-01
    1      -14.582757
    2      -14.478289
    3      -14.477930
    4      -14.368219
    5      -12.638061
    6      -12.546438
    7      -12.546114
    8      -12.450595
    9      -10.782807
   10      -10.778591
   11      -10.705359
   12      -10.703975
   13      -10.700742
   14      -10.698967
   15      -10.623258
   16      -10.618907
   17       -7.071388
   18       -7.062690
   19       -7.019111
   20       -7.018576
   21       -7.009530
   22       -7.009328
   23       -6.964084
   24       -6.955412
   25       -5.285276
   26       -5.237637
   27       -5.237383
   28       -5.188683
   29       -3.691574
   30       -3.678312
   31       -3.660496
   32       -3.658617
   33       -3.646910
   34       -3.645409
   35       -3.626394
   36       -3.613192
   37       -3.200539
   38       -2.483053
   39       -2.481590
   40       -1.626648
   41       -1.411706
   42       -1.393708
   43       -1.393507
   44       -1.375399
   45       -0.954261
   46       -0.931934
   47       -0.931432
   48       -0.910410
   49       -0.903639
   50       -0.266005
   51       -0.264754
   52        0.206024
   53        0.219748
   54        0.219942
   55        0.233838
   56        0.478722
   57        1.177699
   58        1.181934
   59        1.699542
   60        1.701715
   61        1.704958
   62        1.707470
   63        2.268683
   64        2.275535
   65        6.600177
   66        6.603488
   67        6.868545
   68        6.870440
   69        6.874547
   70        6.876469
   71        7.208414
   72        7.212831
   73        8.944411
   74        9.188074
   75        9.259453
   76        9.262067
   77        9.669247
   78       11.452597
   79       11.455300
   80       11.552966
   81       11.977337
   82       12.052679
   83       12.052752
   84       12.283339
 
  0.1666667E+00  0.3333333E+00  0.0000000E+00  0.1388889E-01
    1      -14.091126
    2      -13.989906
    3      -13.989572
    4      -13.883477
    5      -13.120024
    6      -13.025254
    7      -13.024901
    8      -12.925883
    9      -12.166198
   10      -12.077779
   11      -12.077453
   12      -11.985416
   13       -9.494993
   14       -9.429844
   15       -9.429575
   16       -9.363067
   17       -7.605688
   18       -7.562871
   19       -7.560997
   20       -7.516854
   21       -5.298260
   22       -5.265504
   23       -5.264238
   24       -5.229068
   25       -5.135879
   26       -5.099072
   27       -5.097974
   28       -5.060826
   29       -4.151194
   30       -4.112353
   31       -4.111466
   32       -4.071882
   33       -3.107971
   34       -3.083664
   35       -3.081958
   36       -3.056441
   37       -2.610049
   38       -2.065103
   39       -2.042584
   40       -2.040767
   41       -2.016521
   42       -1.907508
   43       -1.906297
   44       -1.572628
   45       -1.552289
   46       -1.551757
   47       -1.531100
   48       -1.459633
   49       -1.074643
   50       -0.795152
   51       -0.793855
   52       -0.676561
   53       -0.662344
   54       -0.660054
   55       -0.645359
   56       -0.344761
   57       -0.014322
   58        0.277294
   59        0.278565
   60        0.997983
   61        2.583211
   62        3.002112
   63        3.003287
   64        3.403725
   65        5.473392
   66        5.656194
   67        5.658233
   68        5.910597
   69        8.543937
   70        8.786774
   71        8.788037
   72        9.045679
   73        9.802588
   74       10.034506
   75       10.280425
   76       10.282960
   77       10.587841
   78       11.012454
   79       11.972236
   80       11.978269
   81       12.220782
   82       12.280254
   83       12.465477
   84       12.470711
 
  0.3333333E+00  0.3333333E+00  0.0000000E+00  0.1388889E-01
    1      -13.284096
    2      -13.281494
    3      -13.279007
    4      -13.189712
    5      -13.186511
    6      -13.186494
    7      -13.185041
    8      -13.183608
    9      -13.181304
   10      -13.087603
   11      -13.085051
   12      -13.082482
   13       -8.278033
   14       -8.215311
   15       -8.213538
   16       -8.207619
   17       -8.205562
   18       -8.201502
   19       -8.199339
   20       -8.138746
   21       -6.164012
   22       -6.163818
   23       -6.161603
   24       -6.160976
   25       -3.397723
   26       -3.394224
   27       -3.392733
   28       -3.379247
   29       -3.374882
   30       -3.374874
   31       -3.374355
   32       -3.373888
   33       -3.369603
   34       -3.357229
   35       -3.355308
   36       -3.351431
   37       -2.039999
   38       -2.035720
   39       -2.033351
   40       -2.026235
   41       -2.023532
   42       -2.021851
   43       -2.020917
   44       -2.020902
   45       -2.016696
   46       -2.008213
   47       -2.006933
   48       -2.001696
   49       -1.648206
   50       -1.646083
   51       -1.643495
   52       -0.977368
   53       -0.974199
   54       -0.974062
   55       -0.972825
   56       -0.971462
   57       -0.968829
   58       -0.184056
   59       -0.181777
   60       -0.179093
   61        3.848031
   62        4.343051
   63        4.349373
   64        4.353771
   65        4.354041
   66        4.368898
   67        4.370336
   68        4.926436
   69       10.543609
   70       10.546605
   71       10.549882
   72       10.724149
   73       10.731458
   74       10.731700
   75       10.732581
   76       10.733290
   77       10.734153
   78       10.819054
   79       10.820881
   80       10.825419
   81       10.923014
   82       10.925942
   83       10.929605
   84       12.886578
 
  0.5000000E+00  0.3333333E+00  0.0000000E+00  0.1388889E-01
    1      -14.093036
    2      -13.991819
    3      -13.991464
    4      -13.885377
    5      -13.121913
    6      -13.027168
    7      -13.026761
    8      -12.927767
    9      -12.162370
   10      -12.073931
   11      -12.073649
   12      -11.981593
   13       -9.484856
   14       -9.419586
   15       -9.419224
   16       -9.352600
   17       -7.608960
   18       -7.565850
   19       -7.565204
   20       -7.520831
   21       -5.305250
   22       -5.272615
   23       -5.271651
   24       -5.236587
   25       -5.142313
   26       -5.106230
   27       -5.103765
   28       -5.067369
   29       -4.163056
   30       -4.124950
   31       -4.122183
   32       -4.083296
   33       -3.104132
   34       -3.080553
   35       -3.077235
   36       -3.052375
   37       -2.612136
   38       -2.073292
   39       -2.050564
   40       -2.048450
   41       -2.024080
   42       -1.909631
   43       -1.908463
   44       -1.557450
   45       -1.538035
   46       -1.535041
   47       -1.515434
   48       -1.461708
   49       -1.076730
   50       -0.797316
   51       -0.795994
   52       -0.667643
   53       -0.653169
   54       -0.651169
   55       -0.636364
   56       -0.341020
   57       -0.016621
   58        0.280844
   59        0.282352
   60        1.001538
   61        2.589536
   62        3.009993
   63        3.011161
   64        3.413880
   65        5.473648
   66        5.652844
   67        5.654370
   68        5.901441
   69        8.545078
   70        8.784256
   71        8.786790
   72        9.040597
   73        9.799956
   74       10.027956
   75       10.274224
   76       10.277282
   77       10.584093
   78       11.010196
   79       11.968687
   80       11.974831
   81       12.225983
   82       12.274125
   83       12.464501
   84       12.469955
 
 -0.3333333E+00  0.3333333E+00  0.0000000E+00  0.1388889E-01
    1      -14.583708
    2      -14.479244
    3      -14.478871
    4      -14.369164
    5      -12.641890
    6      -12.550298
    7      -12.549912
    8      -12.454424
    9      -10.775207
   10      -10.773479
   11      -10.697592
   12      -10.696017
   13      -10.696000
   14      -10.694077
   15      -10.615639
   16      -10.613865
   17       -7.069960
   18       -7.068073
   19       -7.018638
   20       -7.015820
   21       -7.015807
   22       -7.015011
   23       -6.963035
   24       -6.961288
   25       -5.295308
   26       -5.248479
   27       -5.246332
   28       -5.198435
   29       -3.690088
   30       -3.688439
   31       -3.658308
   32       -3.658103
   33       -3.658092
   34       -3.654550
   35       -3.625336
   36       -3.623162
   37       -3.201601
   38       -2.484109
   39       -2.482655
   40       -1.627714
   41       -1.395641
   42       -1.378581
   43       -1.376045
   44       -1.358972
   45       -0.966249
   46       -0.944825
   47       -0.941717
   48       -0.920874
   49       -0.908528
   50       -0.270248
   51       -0.268970
   52        0.217960
   53        0.230833
   54        0.234377
   55        0.246914
   56        0.474150
   57        1.184163
   58        1.186096
   59        1.707304
   60        1.708226
   61        1.708360
   62        1.711848
   63        2.276832
   64        2.279062
   65        6.601334
   66        6.603955
   67        6.867309
   68        6.872106
   69        6.872293
   70        6.873332
   71        7.205173
   72        7.207796
   73        8.937500
   74        9.186690
   75        9.252121
   76        9.255818
   77        9.663968
   78       11.451303
   79       11.454019
   80       11.552007
   81       12.007529
   82       12.081934
   83       12.083267
   84       12.311233
 
 -0.1666667E+00  0.3333333E+00  0.0000000E+00  0.1388889E-01
    1      -14.747647
    2      -14.642090
    3      -14.641718
    4      -14.530777
    5      -11.853854
    6      -11.847374
    7      -11.768141
    8      -11.767174
    9      -11.761313
   10      -11.759984
   11      -11.677576
   12      -11.671030
   13       -9.505387
   14       -9.463948
   15       -9.462348
   16       -9.426066
   17       -8.472183
   18       -8.450286
   19       -8.447502
   20       -8.416316
   21       -6.299718
   22       -6.292456
   23       -6.247942
   24       -6.247455
   25       -6.240480
   26       -6.239088
   27       -6.193634
   28       -6.186472
   29       -3.876954
   30       -3.844421
   31       -3.842164
   32       -3.808718
   33       -3.399253
   34       -2.676626
   35       -2.675164
   36       -2.207103
   37       -2.193046
   38       -2.184117
   39       -2.183680
   40       -2.170412
   41       -2.168483
   42       -2.160297
   43       -2.146017
   44       -1.813102
   45       -0.344040
   46       -0.333921
   47       -0.329983
   48       -0.319016
   49       -0.015330