  32  32   0   0
  0.7090409E+01  0.4934311E-09  0.4934311E-09  0.1076119E-08  0.5000000E-15
  1.000000000000000E-004
  CAR 
 graphite                                
     18.15060800    -14.77854783  301      6.76499595      1.00000000
    -14.779  0.0000E+00  0.0000E+00
    -14.669  0.0000E+00  0.0000E+00
    -14.559  0.0000E+00  0.0000E+00
    -14.449  0.0000E+00  0.0000E+00
    -14.339  0.0000E+00  0.0000E+00
    -14.230  0.0000E+00  0.0000E+00
    -14.120  0.0000E+00  0.0000E+00
    -14.010  0.0000E+00  0.0000E+00
    -13.900  0.0000E+00  0.0000E+00
    -13.791  0.1774E-13  0.1948E-14
    -13.681  0.4959E-09  0.5444E-10
    -13.571  0.1414E-05  0.1552E-06
    -13.461  0.4748E-03  0.5227E-04
    -13.352  0.2493E-01  0.2789E-02
    -13.242  0.2782E+00  0.3332E-01
    -13.132  0.8207E+00  0.1234E+00
    -13.022  0.1337E+01  0.2702E+00
    -12.913  0.1742E+01  0.4614E+00
    -12.803  0.1831E+01  0.6624E+00
    -12.693  0.2339E+01  0.9192E+00
    -12.583  0.2827E+01  0.1229E+01
    -12.474  0.2372E+01  0.1490E+01
    -12.364  0.3019E+01  0.1821E+01
    -12.254  0.3549E+01  0.2211E+01
    -12.144  0.3949E+01  0.2644E+01
    -12.034  0.3648E+01  0.3045E+01
    -11.925  0.4159E+01  0.3501E+01
    -11.815  0.4711E+01  0.4018E+01
    -11.705  0.5657E+01  0.4639E+01
    -11.595  0.4994E+01  0.5187E+01
    -11.486  0.4889E+01  0.5724E+01
    -11.376  0.4397E+01  0.6206E+01
    -11.266  0.4692E+01  0.6721E+01
    -11.156  0.5229E+01  0.7295E+01
    -11.047  0.5705E+01  0.7922E+01
    -10.937  0.5149E+01  0.8487E+01
    -10.827  0.4979E+01  0.9033E+01
    -10.717  0.3932E+01  0.9465E+01
    -10.608  0.4946E+01  0.1001E+02
    -10.498  0.5249E+01  0.1058E+02
    -10.388  0.5822E+01  0.1122E+02
    -10.278  0.4806E+01  0.1175E+02
    -10.168  0.5044E+01  0.1230E+02
    -10.059  0.5393E+01  0.1290E+02
     -9.949  0.5299E+01  0.1348E+02
     -9.839  0.4061E+01  0.1392E+02
     -9.729  0.4481E+01  0.1442E+02
     -9.620  0.5299E+01  0.1500E+02
     -9.510  0.5718E+01  0.1562E+02
     -9.400  0.6246E+01  0.1631E+02
     -9.290  0.5699E+01  0.1694E+02
     -9.181  0.4464E+01  0.1743E+02
     -9.071  0.4508E+01  0.1792E+02
     -8.961  0.4799E+01  0.1845E+02
     -8.851  0.4315E+01  0.1892E+02
     -8.742  0.5226E+01  0.1949E+02
     -8.632  0.6680E+01  0.2023E+02
     -8.522  0.6716E+01  0.2096E+02
     -8.412  0.5606E+01  0.2158E+02
     -8.302  0.5309E+01  0.2216E+02
     -8.193  0.4057E+01  0.2261E+02
     -8.083  0.4538E+01  0.2311E+02
     -7.973  0.5297E+01  0.2369E+02
     -7.863  0.5534E+01  0.2430E+02
     -7.754  0.7206E+01  0.2509E+02
     -7.644  0.7443E+01  0.2590E+02
     -7.534  0.6938E+01  0.2666E+02
     -7.424  0.5952E+01  0.2732E+02
     -7.315  0.5373E+01  0.2791E+02
     -7.205  0.5181E+01  0.2848E+02
     -7.095  0.4437E+01  0.2896E+02
     -6.985  0.4461E+01  0.2945E+02
     -6.876  0.5622E+01  0.3007E+02
     -6.766  0.4223E+01  0.3053E+02
     -6.656  0.2179E+01  0.3077E+02
     -6.546  0.2407E+01  0.3104E+02
     -6.436  0.2306E+01  0.3129E+02
     -6.327  0.2573E+01  0.3157E+02
     -6.217  0.5078E+01  0.3213E+02
     -6.107  0.5925E+01  0.3278E+02
     -5.997  0.3769E+01  0.3319E+02
     -5.888  0.4141E+01  0.3365E+02
     -5.778  0.5587E+01  0.3426E+02
     -5.668  0.7120E+01  0.3504E+02
     -5.558  0.7162E+01  0.3583E+02
     -5.449  0.5798E+01  0.3647E+02
     -5.339  0.6095E+01  0.3714E+02
     -5.229  0.6193E+01  0.3781E+02
     -5.119  0.7159E+01  0.3860E+02
     -5.010  0.6892E+01  0.3936E+02
     -4.900  0.6049E+01  0.4002E+02
     -4.790  0.4983E+01  0.4057E+02
     -4.680  0.4213E+01  0.4103E+02
     -4.571  0.5009E+01  0.4158E+02
     -4.461  0.5416E+01  0.4217E+02
     -4.351  0.5662E+01  0.4280E+02
     -4.241  0.5385E+01  0.4339E+02
     -4.131  0.4317E+01  0.4386E+02
     -4.022  0.3987E+01  0.4430E+02
     -3.912  0.3611E+01  0.4470E+02
     -3.802  0.3913E+01  0.4512E+02
     -3.692  0.5530E+01  0.4573E+02
     -3.583  0.6383E+01  0.4643E+02
     -3.473  0.5707E+01  0.4706E+02
     -3.363  0.4571E+01  0.4756E+02
     -3.253  0.5351E+01  0.4815E+02
     -3.144  0.4735E+01  0.4867E+02
     -3.034  0.5892E+01  0.4931E+02
     -2.924  0.7926E+01  0.5018E+02
     -2.814  0.7174E+01  0.5097E+02
     -2.705  0.5450E+01  0.5157E+02
     -2.595  0.5551E+01  0.5218E+02
     -2.485  0.5775E+01  0.5281E+02
     -2.375  0.6503E+01  0.5353E+02
     -2.265  0.7027E+01  0.5430E+02
     -2.156  0.7745E+01  0.5515E+02
     -2.046  0.8908E+01  0.5613E+02
     -1.936  0.9289E+01  0.5715E+02
     -1.826  0.7262E+01  0.5794E+02
     -1.717  0.6674E+01  0.5868E+02
     -1.607  0.6586E+01  0.5940E+02
     -1.497  0.6574E+01  0.6012E+02
     -1.387  0.7390E+01  0.6093E+02
     -1.278  0.8679E+01  0.6188E+02
     -1.168  0.9256E+01  0.6290E+02
     -1.058  0.1031E+02  0.6403E+02
     -0.948  0.1171E+02  0.6532E+02
     -0.839  0.9396E+01  0.6635E+02
     -0.729  0.7065E+01  0.6712E+02
     -0.619  0.6667E+01  0.6785E+02
     -0.509  0.8542E+01  0.6879E+02
     -0.399  0.1002E+02  0.6989E+02
     -0.290  0.1158E+02  0.7116E+02
     -0.180  0.1175E+02  0.7245E+02
     -0.070  0.1158E+02  0.7372E+02
      0.040  0.1126E+02  0.7496E+02
      0.149  0.1190E+02  0.7626E+02
      0.259  0.1261E+02  0.7765E+02
      0.369  0.1216E+02  0.7898E+02
      0.479  0.1533E+02  0.8067E+02
      0.588  0.1545E+02  0.8236E+02
      0.698  0.1526E+02  0.8404E+02
      0.808  0.1298E+02  0.8546E+02
      0.918  0.1237E+02  0.8682E+02
      1.027  0.1428E+02  0.8839E+02
      1.137  0.1155E+02  0.8966E+02
      1.247  0.8202E+01  0.9056E+02
      1.357  0.9780E+01  0.9163E+02
      1.467  0.1185E+02  0.9293E+02
      1.576  0.1228E+02  0.9428E+02
      1.686  0.1040E+02  0.9542E+02
      1.796  0.9009E+01  0.9641E+02
      1.906  0.7371E+01  0.9722E+02
      2.015  0.7712E+01  0.9806E+02
      2.125  0.1130E+02  0.9930E+02
      2.235  0.1240E+02  0.1007E+03
      2.345  0.1075E+02  0.1018E+03
      2.454  0.9113E+01  0.1028E+03
      2.564  0.8015E+01  0.1037E+03
      2.674  0.7801E+01  0.1046E+03
      2.784  0.8743E+01  0.1055E+03
      2.893  0.1268E+02  0.1069E+03
      3.003  0.1187E+02  0.1082E+03
      3.113  0.8342E+01  0.1092E+03
      3.223  0.6136E+01  0.1098E+03
      3.332  0.7470E+01  0.1106E+03
      3.442  0.1080E+02  0.1118E+03
      3.552  0.1268E+02  0.1132E+03
      3.662  0.9371E+01  0.1143E+03
      3.772  0.7719E+01  0.1151E+03
      3.881  0.6311E+01  0.1158E+03
      3.991  0.5502E+01  0.1164E+03
      4.101  0.5110E+01  0.1170E+03
      4.211  0.5809E+01  0.1176E+03
      4.320  0.5584E+01  0.1182E+03
      4.430  0.5659E+01  0.1188E+03
      4.540  0.6041E+01  0.1195E+03
      4.650  0.3156E+01  0.1198E+03
      4.759  0.3112E+01  0.1202E+03
      4.869  0.5921E+01  0.1208E+03
      4.979  0.9772E+01  0.1219E+03
      5.089  0.8820E+01  0.1229E+03
      5.198  0.4836E+01  0.1234E+03
      5.308  0.3561E+01  0.1238E+03
      5.418  0.6584E+01  0.1245E+03
      5.528  0.6680E+01  0.1252E+03
      5.638  0.4266E+01  0.1257E+03
      5.747  0.2585E+01  0.1260E+03
      5.857  0.2553E+01  0.1263E+03
      5.967  0.2516E+01  0.1266E+03
      6.077  0.2727E+01  0.1269E+03
      6.186  0.2195E+01  0.1271E+03
      6.296  0.1611E+01  0.1273E+03
      6.406  0.2288E+01  0.1275E+03
      6.516  0.2069E+01  0.1278E+03
      6.625  0.1194E+01  0.1279E+03
      6.735  0.8774E+00  0.1280E+03
      6.845  0.6698E+00  0.1281E+03
      6.955  0.4416E+00  0.1281E+03
      7.064  0.9053E-01  0.1281E+03
      7.174  0.8013E-01  0.1281E+03
      7.284  0.9367E+00  0.1282E+03
      7.394  0.1952E+01  0.1284E+03
      7.504  0.1359E+01  0.1286E+03
      7.613  0.9348E+00  0.1287E+03
      7.723  0.1283E+01  0.1288E+03
      7.833  0.8295E+00  0.1289E+03
      7.943  0.7803E+00  0.1290E+03
      8.052  0.2530E+01  0.1293E+03
      8.162  0.4020E+01  0.1297E+03
      8.272  0.3477E+01  0.1301E+03
      8.382  0.3377E+01  0.1305E+03
      8.491  0.4521E+01  0.1310E+03
      8.601  0.7200E+01  0.1318E+03
      8.711  0.1011E+02  0.1329E+03
      8.821  0.6955E+01  0.1336E+03
      8.930  0.7056E+01  0.1344E+03
      9.040  0.7233E+01  0.1352E+03
      9.150  0.5632E+01  0.1358E+03
      9.260  0.5195E+01  0.1364E+03
      9.369  0.5438E+01  0.1370E+03
      9.479  0.5021E+01  0.1375E+03
      9.589  0.5700E+01  0.1382E+03
      9.699  0.5441E+01  0.1388E+03
      9.809  0.4132E+01  0.1392E+03
      9.918  0.4488E+01  0.1397E+03
     10.028  0.4322E+01  0.1402E+03
     10.138  0.5317E+01  0.1408E+03
     10.248  0.4389E+01  0.1413E+03
     10.357  0.2695E+01  0.1415E+03
     10.467  0.3745E+01  0.1420E+03
     10.577  0.5400E+01  0.1426E+03
     10.687  0.4342E+01  0.1430E+03
     10.796  0.2720E+01  0.1433E+03
     10.906  0.2712E+01  0.1436E+03
     11.016  0.4068E+01  0.1441E+03
     11.126  0.3663E+01  0.1445E+03
     11.235  0.2730E+01  0.1448E+03
     11.345  0.3410E+01  0.1451E+03
     11.455  0.4752E+01  0.1457E+03
     11.565  0.4459E+01  0.1462E+03
     11.675  0.2765E+01  0.1465E+03
     11.784  0.1659E+01  0.1466E+03
     11.894  0.2821E+01  0.1470E+03
     12.004  0.2564E+01  0.1472E+03
     12.114  0.2122E+01  0.1475E+03
     12.223  0.3236E+01  0.1478E+03
     12.333  0.4357E+01  0.1483E+03
     12.443  0.3336E+01  0.1487E+03
     12.553  0.3084E+01  0.1490E+03
     12.662  0.3017E+01  0.1493E+03
     12.772  0.3075E+01  0.1497E+03
     12.882  0.2039E+01  0.1499E+03
     12.992  0.1551E+01  0.1501E+03
     13.101  0.2710E+01  0.1504E+03
     13.211  0.3069E+01  0.1507E+03
     13.321  0.1828E+01  0.1509E+03
     13.431  0.1987E+01  0.1511E+03
     13.541  0.4171E+01  0.1516E+03
     13.650  0.4540E+01  0.1521E+03
     13.760  0.4585E+01  0.1526E+03
     13.870  0.5876E+01  0.1532E+03
     13.980  0.6587E+01  0.1539E+03
     14.089  0.5726E+01  0.1546E+03
     14.199  0.5248E+01  0.1552E+03
     14.309  0.4840E+01  0.1557E+03
     14.419  0.6250E+01  0.1564E+03
     14.528  0.6711E+01  0.1571E+03
     14.638  0.9153E+01  0.1581E+03
     14.748  0.8634E+01  0.1591E+03
     14.858  0.1021E+02  0.1602E+03
     14.967  0.1229E+02  0.1615E+03
     15.077  0.1164E+02  0.1628E+03
     15.187  0.1241E+02  0.1642E+03
     15.297  0.1009E+02  0.1653E+03
     15.407  0.7218E+01  0.1661E+03
     15.516  0.4970E+01  0.1666E+03
     15.626  0.3054E+01  0.1669E+03
     15.736  0.2046E+01  0.1672E+03
     15.846  0.2090E+01  0.1674E+03
     15.955  0.1611E+01  0.1676E+03
     16.065  0.1141E+01  0.1677E+03
     16.175  0.8455E+00  0.1678E+03
     16.285  0.2536E+00  0.1678E+03
     16.394  0.1451E+00  0.1678E+03
     16.504  0.3976E+00  0.1679E+03
     16.614  0.6455E+00  0.1680E+03
     16.724  0.3395E+00  0.1680E+03
     16.833  0.5241E-01  0.1680E+03
     16.943  0.1341E-02  0.1680E+03
     17.053  0.4116E-05  0.1680E+03
     17.163  0.1344E-08  0.1680E+03
     17.272  0.4419E-13  0.1680E+03
     17.382  0.0000E+00  0.1680E+03
     17.492  0.0000E+00  0.1680E+03
     17.602  0.0000E+00  0.1680E+03
     17.712  0.0000E+00  0.1680E+03
     17.821  0.0000E+00  0.1680E+03
     17.931  0.0000E+00  0.1680E+03
     18.041  0.0000E+00  0.1680E+03
     18.151  0.0000E+00  0.1680E+03
