   32   32    1    1
  0.7090409E+01  0.4934311E-09  0.4934311E-09  0.1076119E-08  0.5000000E-15
  1.000000000000000E-004
  CAR 
 graphite                                
    128    163     84
 
  0.0000000E+00  0.0000000E+00  0.0000000E+00  0.3086420E-02
    1      -13.281768
    2      -12.692357
    3      -12.690665
    4      -11.936599
    5       -7.770923
    6       -7.767875
    7       -7.764781
    8       -7.413932
    9       -7.409343
   10       -7.408873
   11       -7.408488
   12       -7.408121
   13       -7.403488
   14       -7.307474
   15       -7.306224
   16       -7.306068
   17       -6.369119
   18       -6.365700
   19       -6.364567
   20       -6.364186
   21       -6.364118
   22       -6.360474
   23       -6.302870
   24       -6.301986
   25       -6.300538
   26       -6.001382
   27       -5.999232
   28       -5.996701
   29       -2.930128
   30       -0.610322
   31       -0.606877
   32        0.335990
   33        0.338687
   34        0.339832
   35        0.514958
   36        0.517960
   37        0.518048
   38        0.519385
   39        0.521186
   40        0.523018
   41        0.705676
   42        0.708410
   43        0.709696
   44        2.313612
   45        3.085818
   46        3.088130
   47        3.090494
   48        3.828553
   49        3.832957
   50        3.897143
   51        3.900389
   52        3.905208
   53        3.908631
   54        3.972677
   55        3.977071
   56        4.534593
   57        4.538389
   58        4.538931
   59        4.539093
   60        4.539781
   61        4.543583
   62        4.752790
   63        4.753926
   64        4.754140
   65        8.483090
   66        8.491201
   67        8.492903
   68        8.493126
   69        8.493885
   70        8.502094
   71        9.123520
   72        9.124166
   73        9.124561
   74        9.955291
   75        9.958017
   76        9.960436
   77       13.433187
   78       13.437519
   79       13.440680
   80       14.197400
   81       14.202211
   82       14.203190
   83       14.206555
   84       14.208861
 
  0.1111111E+00 -0.6938894E-17  0.0000000E+00  0.6172840E-02
    1      -13.206534
    2      -12.618798
    3      -12.617112
    4      -11.865910
    5       -8.638410
    6       -8.170151
    7       -8.168793
    8       -8.062935
    9       -8.059989
   10       -7.636392
   11       -7.633186
   12       -7.632470
   13       -7.630859
   14       -7.624837
   15       -7.232318
   16       -7.229783
   17       -6.269420
   18       -6.268348
   19       -6.021266
   20       -6.020425
   21       -6.019432
   22       -6.016585
   23       -5.861802
   24       -5.574492
   25       -5.572598
   26       -5.496700
   27       -5.494270
   28       -5.032592
   29       -2.839413
   30       -0.525314
   31       -0.521876
   32        0.096814
   33        0.099718
   34        0.288596
   35        0.291079
   36        0.293530
   37        0.294186
   38        0.411633
   39        0.495631
   40        0.498564
   41        0.590327
   42        0.593571
   43        0.780114
   44        2.390851
   45        2.416748
   46        2.941921
   47        2.944648
   48        3.507260
   49        3.597579
   50        3.603997
   51        3.660561
   52        3.694797
   53        3.744686
   54        3.751356
   55        3.836266
   56        4.123335
   57        4.126328
   58        4.484749
   59        4.488841
   60        4.489433
   61        4.490817
   62        4.967283
   63        4.968706
   64        5.174373
   65        8.615752
   66        8.619059
   67        8.620482
   68        8.627768
   69        8.873438
   70        8.996217
   71        8.997460
   72        9.013109
   73        9.019736
   74       10.105752
   75       10.108682
   76       10.672197
   77       13.485276
   78       13.781925
   79       13.787718
   80       14.249328
   81       14.251122
   82       14.529658
   83       14.535660
   84       14.539343
 
  0.2222222E+00 -0.2775558E-16  0.0000000E+00  0.6172840E-02
    1      -12.981152
    2      -12.398439
    3      -12.396766
    4      -11.654217
    5       -9.680244
    6       -9.176187
    7       -9.174736
    8       -8.561931
    9       -8.435868
   10       -8.433500
   11       -7.974384
   12       -7.972033
   13       -7.971437
   14       -7.969333
   15       -7.438468
   16       -7.436016
   17       -5.683517
   18       -5.681796
   19       -5.327745
   20       -5.326788
   21       -5.325677
   22       -5.323170
   23       -4.877920
   24       -4.875907
   25       -4.535099
   26       -4.169278
   27       -4.166905
   28       -3.737707
   29       -2.567961
   30       -0.538688
   31       -0.536039
   32       -0.319177
   33       -0.316721
   34       -0.314643
   35       -0.313798
   36       -0.271124
   37       -0.267703
   38       -0.074473
   39       -0.071750
   40        0.628863
   41        0.804923
   42        0.808241
   43        0.991967
   44        1.312529
   45        2.621114
   46        2.637487
   47        2.668921
   48        2.671356
   49        2.775426
   50        2.780802
   51        2.920787
   52        3.215801
   53        3.254889
   54        3.257684
   55        3.328132
   56        3.334063
   57        3.448573
   58        4.367473
   59        4.371804
   60        4.372756
   61        4.374019
   62        5.275829
   63        5.424973
   64        5.426697
   65        8.791682
   66        8.792980
   67        8.939020
   68        8.941832
   69        8.943072
   70        8.949946
   71        9.327909
   72       10.199802
   73       10.205396
   74       10.356545
   75       10.359594
   76       11.848807
   77       13.629270
   78       14.388187
   79       14.390418
   80       14.516477
   81       14.737095
   82       14.742537
   83       15.089845
   84       15.181693
 
  0.3333333E+00 -0.5551115E-16  0.0000000E+00  0.6172840E-02
    1      -12.606855
    2      -12.032444
    3      -12.030796
    4      -11.302483
    5      -10.615434
    6      -10.087136
    7      -10.085616
    8       -9.433555
    9       -8.703682
   10       -8.701546
   11       -8.228800
   12       -8.226659
   13       -8.226169
   14       -8.224082
   15       -7.660235
   16       -7.658002
   17       -4.867416
   18       -4.865383
   19       -4.519360
   20       -4.518362
   21       -4.517242
   22       -4.514432
   23       -4.112317
   24       -4.110064
   25       -3.070050
   26       -2.738222
   27       -2.735610
   28       -2.355996
   29       -2.117806
   30       -1.373825
   31       -1.371557
   32       -1.138203
   33       -1.135551
   34       -1.134212
   35       -1.132986
   36       -0.856881
   37       -0.854445
   38        0.147494
   39        0.150905
   40        0.243741
   41        0.981809
   42        1.153068
   43        1.156580
   44        1.335046
   45        1.402903
   46        1.596286
   47        1.600722
   48        1.797446
   49        2.322479
   50        2.325343
   51        2.437044
   52        2.439324
   53        2.632105
   54        2.767794
   55        2.773051
   56        2.912649
   57        2.997970
   58        4.247391
   59        4.251896
   60        4.253040
   61        4.254411
   62        4.779885
   63        5.875618
   64        5.877759
   65        8.659522
   66        8.661731
   67        9.314850
   68        9.316795
   69        9.317775
   70        9.323767
   71       10.527262
   72       10.530211
   73       10.620027
   74       11.624329
   75       11.628885
   76       13.126167
   77       13.858535
   78       14.617583
   79       14.619918
   80       14.699538
   81       14.944404
   82       14.949731
   83       14.989593
   84       15.249919
 
  0.4444444E+00 -0.5551115E-16  0.0000000E+00  0.6172840E-02
    1      -12.085448
    2      -11.522793
    3      -11.521176
    4      -11.419840
    5      -10.872626
    6      -10.871055
    7      -10.812565
    8      -10.187954
    9       -8.841192
   10       -8.839147
   11       -8.360464
   12       -8.358390
   13       -8.357963
   14       -8.355870
   15       -7.781316
   16       -7.779177
   17       -4.061383
   18       -4.059046
   19       -3.782846
   20       -3.781862
   21       -3.781373
   22       -3.777120
   23       -3.522879
   24       -3.520439
   25       -2.049526
   26       -2.047885
   27       -1.905331
   28       -1.901991
   29       -1.901410
   30       -1.899983
   31       -1.640244
   32       -1.638184
   33       -1.549484
   34       -1.493093
   35       -1.261815
   36       -1.258900
   37       -0.933844
   38       -0.701438
   39       -0.032292
   40        0.196658
   41        0.200226
   42        0.475910
   43        0.746406
   44        0.749163
   45        1.454688
   46        1.466598
   47        1.469588
   48        1.618366
   49        1.622157
   50        1.792688
   51        2.020119
   52        2.172647
   53        2.176957
   54        2.310881
   55        2.312963
   56        2.335843
   57        3.508285
   58        4.124704
   59        4.175175
   60        4.179701
   61        4.180915
   62        4.182449
   63        6.147228
   64        6.149862
   65        8.617963
   66        8.621178
   67        9.569867
   68        9.570681
   69        9.571159
   70        9.576721
   71       10.585834
   72       10.588603
   73       12.237033
   74       13.070146
   75       13.073977
   76       13.898044
   77       14.153297
   78       14.289938
   79       14.294425
   80       14.422246
   81       14.474512
   82       14.945586
   83       14.948628
   84       15.322288
 
  0.1694066E-20  0.1111111E+00  0.0000000E+00  0.6172840E-02
    1      -13.206532
    2      -12.618796
    3      -12.617109
    4      -11.865908
    5       -8.638506
    6       -8.170327
    7       -8.168982
    8       -8.062900
    9       -8.059650
   10       -7.636477
   11       -7.633165
   12       -7.632482
   13       -7.630682
   14       -7.624277
   15       -7.231946
   16       -7.229501
   17       -6.270887
   18       -6.268661
   19       -6.023830
   20       -6.020959
   21       -6.019418
   22       -6.016488
   23       -5.860446
   24       -5.575993
   25       -5.572445
   26       -5.494860
   27       -5.493712
   28       -5.031492
   29       -2.839418
   30       -0.525320
   31       -0.521883
   32        0.098437
   33        0.099558
   34        0.290659
   35        0.291121
   36        0.294047
   37        0.294498
   38        0.410196
   39        0.497300
   40        0.498389
   41        0.590155
   42        0.590774
   43        0.778546
   44        2.390925
   45        2.415716
   46        2.942338
   47        2.945619
   48        3.510563
   49        3.603186
   50        3.604001
   51        3.657875
   52        3.697417
   53        3.744685
   54        3.745718
   55        3.832879
   56        4.122905
   57        4.124455
   58        4.485818
   59        4.488849
   60        4.489453
   61        4.492690
   62        4.967167
   63        4.969176
   64        5.173465
   65        8.612764
   66        8.618565
   67        8.620574
   68        8.626097
   69        8.875527
   70        8.994848
   71        8.997532
   72        9.015839
   73        9.021203
   74       10.103630
   75       10.108448
   76       10.673927
   77       13.484499
   78       13.783548
   79       13.786929
   80       14.248365
   81       14.252505
   82       14.518996
   83       14.536483
   84       14.540173
 
  0.1111111E+00  0.1111111E+00  0.0000000E+00  0.6172840E-02
    1      -13.056213
    2      -12.471797
    3      -12.470120
    4      -11.724725
    5       -9.119395
    6       -9.115892
    7       -8.632992
    8       -8.629367
    9       -8.629229
   10       -8.625571
   11       -8.046052
   12       -8.042466
   13       -7.574959
   14       -7.221973
   15       -7.220037
   16       -7.116522
   17       -6.181467
   18       -6.177606
   19       -6.117521
   20       -5.827509
   21       -5.185705
   22       -5.181973
   23       -4.814121
   24       -4.809246
   25       -4.809185
   26       -4.806268
   27       -4.364669
   28       -4.360749
   29       -2.658333
   30       -0.614038
   31       -0.392019
   32       -0.389153
   33       -0.355602
   34       -0.352181
   35       -0.145470
   36        0.244221
   37        0.247297
   38        0.434661
   39        0.436317
   40        0.436407
   41        0.441096
   42        0.638318
   43        0.641615
   44        1.933763
   45        1.936548
   46        2.544750
   47        2.964613
   48        3.064636
   49        3.070864
   50        3.128640
   51        3.346031
   52        3.386759
   53        3.429321
   54        3.436269
   55        3.524094
   56        3.772401
   57        3.774289
   58        3.774834
   59        3.779106
   60        4.796865
   61        4.800130
   62        4.995247
   63        5.385175
   64        5.387165
   65        8.416353
   66        8.423708
   67        8.946888
   68        8.949744
   69        9.171300
   70        9.537643
   71        9.544559
   72        9.545318
   73        9.546115
   74        9.551745
   75       11.153555
   76       11.156831
   77       13.878378
   78       13.883076
   79       14.460250
   80       14.624866
   81       14.629110
   82       14.629430
   83       14.634747
   84       14.692394
 
  0.2222222E+00  0.1111111E+00  0.0000000E+00  0.6172840E-02
    1      -12.756327
    2      -12.178669
    3      -12.177011
    4      -11.442964
    5      -10.109634
    6       -9.594135
    7       -9.592647
    8       -9.468764
    9       -8.970644
   10       -8.969113
   11       -8.960461
   12       -8.364638
   13       -7.665529
   14       -7.249509
   15       -7.248044
   16       -6.859476
   17       -5.910793
   18       -5.676049
   19       -5.672669
   20       -5.258351
   21       -4.382203
   22       -4.028015
   23       -4.026909
   24       -3.778257
   25       -3.615832
   26       -3.430935
   27       -3.428607
   28       -3.028158
   29       -2.297458
   30       -1.549546
   31       -1.300586
   32       -1.297786
   33       -1.010868
   34       -0.306058
   35       -0.092920
   36       -0.092119
   37       -0.018913
   38       -0.015499
   39        0.144068
   40        0.537396
   41        0.722145
   42        0.725371
   43        0.830283
   44        0.921581
   45        1.567586
   46        1.970523
   47        2.115627
   48        2.121658
   49        2.244873
   50        2.798832
   51        2.844377
   52        2.846203
   53        2.850288
   54        2.886650
   55        2.893333
   56        3.010737
   57        3.451631
   58        3.494174
   59        3.496289
   60        4.996064
   61        4.999248
   62        5.127027
   63        5.455422
   64        5.510490
   65        8.418369
   66        8.424832
   67        8.750763
   68        9.231818
   69        9.549633
   70        9.884553
   71       10.095946
   72       10.099881
   73       10.869552
   74       10.874246
   75       11.478768
   76       12.376070
   77       14.069152
   78       14.719363
   79       14.811914
   80       14.813938
   81       14.882127
   82       15.209968
   83       15.248395
   84       15.257789
 
  0.3333333E+00  0.1111111E+00  0.0000000E+00  0.6172840E-02
    1      -12.308503
    2      -11.740794
    3      -11.739165
    4      -11.022272
    5      -10.979894
    6      -10.442932
    7      -10.441387
    8       -9.775296
    9       -9.682160
   10       -9.177683
   11       -9.176226
   12       -8.561863
   13       -7.830174
   14       -7.386209
   15       -7.384905
   16       -6.877184
   17       -5.217506
   18       -4.902988
   19       -4.899811
   20       -4.532797
   21       -3.542554
   22       -3.234631
   23       -3.233086
   24       -2.900681
   25       -2.472491
   26       -2.290840
   27       -2.244759
   28       -2.241792
   29       -1.985066
   30       -1.982393
   31       -1.936338
   32       -1.759893
   33       -1.636907
   34       -1.001024
   35       -0.799414
   36       -0.797855
   37       -0.541558
   38       -0.181331
   39        0.468853
   40        0.472509
   41        0.670379
   42        0.889799
   43        0.894434
   44        0.961777
   45        1.086774
   46        1.137169
   47        1.140480
   48        1.327733
   49        1.340826
   50        1.941833
   51        1.944718
   52        2.131561
   53        2.265354
   54        2.270951
   55        2.421126
   56        3.293114
   57        3.315513
   58        3.317947
   59        3.406921
   60        4.508707
   61        5.086114
   62        5.088844
   63        5.555741
   64        6.164673
   65        8.068478
   66        8.526617
   67        8.531374
   68        9.588691
   69        9.709236
   70       10.534677
   71       10.537561
   72       11.373678
   73       11.600537
   74       12.314404
   75       12.318143
   76       13.645075
   77       14.331645
   78       14.577952
   79       14.778430
   80       14.784056
   81       14.887741
   82       15.076354
   83       15.078837
   84       15.238249
 
  0.4444444E+00  0.1111111E+00  0.0000000E+00  0.6172840E-02
    1      -11.716751
    2      -11.713490
    3      -11.163614
    4      -11.160205
    5      -11.160003
    6      -11.156538
    7      -10.466653
    8      -10.463250
    9       -9.753761
   10       -9.247439
   11       -9.245976
   12       -8.628361
   13       -7.890734
   14       -7.440832
   15       -7.439541
   16       -6.913570
   17       -4.658610
   18       -4.413875
   19       -4.410982
   20       -4.235533
   21       -2.990722
   22       -2.834384
   23       -2.789756
   24       -2.786866
   25       -2.776226
   26       -2.772622
   27       -2.621179
   28       -2.553691
   29       -1.303321
   30       -1.242281
   31       -1.238484
   32       -1.052805
   33       -1.049883
   34       -1.034596
   35       -0.786101
   36       -0.782527
   37       -0.533312
   38       -0.526619
   39       -0.526501
   40       -0.526099
   41       -0.243356
   42       -0.239795
   43        1.143720
   44        1.147161
   45        1.148377
   46        1.152682
   47        1.263027
   48        1.499873
   49        1.505232
   50        1.662170
   51        1.663767
   52        1.663837
   53        1.673644
   54        1.837391
   55        1.843533
   56        3.254197
   57        3.256747
   58        3.377946
   59        3.858710
   60        3.861790
   61        5.109019
   62        5.111158
   63        5.564144
   64        6.664816
   65        7.594821
   66        8.588404
   67        8.591330
   68        9.762892
   69        9.768698
   70       10.705526
   71       10.708175
   72       11.606614
   73       13.006512
   74       13.010353
   75       13.696509
   76       13.702967
   77       13.705617
   78       13.706547
   79       14.633549
   80       14.636930
   81       14.906877
   82       14.911542
   83       15.425030
   84       15.449025
 
 -0.4444444E+00  0.1111111E+00  0.0000000E+00  0.6172840E-02
    1      -12.308589
    2      -11.740879
    3      -11.739249
    4      -11.022355
    5      -10.979758
    6      -10.442794
    7      -10.441249
    8       -9.775129
    9       -9.682398
   10       -9.177894
   11       -9.176437
   12       -8.562075
   13       -7.829824
   14       -7.385788
   15       -7.384527
   16       -6.876646
   17       -5.217143
   18       -4.901553
   19       -4.900255
   20       -4.532329
   21       -3.543514
   22       -3.236361
   23       -3.233116
   24       -2.901396
   25       -2.473364
   26       -2.291210
   27       -2.244795
   28       -2.243699
   29       -1.985636
   30       -1.982540
   31       -1.937339
   32       -1.759999
   33       -1.637271
   34       -0.999930
   35       -0.799267
   36       -0.795583
   37       -0.540320
   38       -0.181168
   39        0.468774
   40        0.472410
   41        0.670774
   42        0.890932
   43        0.893974
   44        0.962175
   45        1.087042
   46        1.137270
   47        1.141204
   48        1.328039
   49        1.340612
   50        1.941958
   51        1.944874
   52        2.131159
   53        2.265844
   54        2.269545
   55        2.420647
   56        3.292858
   57        3.315269
   58        3.317765
   59        3.407349
   60        4.508831
   61        5.087293
   62        5.088847
   63        5.555205
   64        6.166024
   65        8.067223
   66        8.527253
   67        8.530336
   68        9.588621
   69        9.709282
   70       10.534013
   71       10.537861
   72       11.373495
   73       11.600678
   74       12.313988
   75       12.318183
   76       13.644995
   77       14.331410
   78       14.578027
   79       14.778979
   80       14.783560
   81       14.887649
   82       15.075827
   83       15.078947
   84       15.238334
 
 -0.3333333E+00  0.1111111E+00  0.0000000E+00  0.6172840E-02
    1      -12.756388
    2      -12.178729
    3      -12.177071
    4      -11.443023
    5      -10.109469
    6       -9.593946
    7       -9.592461
    8       -9.469216
    9       -8.970686
   10       -8.969249
   11       -8.960989
   12       -8.365079
   13       -7.664735
   14       -7.248404
   15       -7.247271
   16       -6.858159
   17       -5.911015
   18       -5.674673
   19       -5.673699
   20       -5.258030
   21       -4.383075
   22       -4.029672
   23       -4.026946
   24       -3.778571
   25       -3.616632
   26       -3.431403
   27       -3.428828
   28       -3.028492
   29       -2.297535
   30       -1.550806
   31       -1.300859
   32       -1.300066
   33       -1.012135
   34       -0.304546
   35       -0.092637
   36       -0.089362
   37       -0.018989
   38       -0.015579
   39        0.145569
   40        0.537665
   41        0.722275
   42        0.725753
   43        0.830468
   44        0.921813
   45        1.567039
   46        1.970914
   47        2.117590
   48        2.120212
   49        2.244910
   50        2.798780
   51        2.844522
   52        2.846272
   53        2.850325
   54        2.888132
   55        2.891171
   56        3.010246
   57        3.452569
   58        3.493363
   59        3.495876
   60        4.998193
   61        4.999270
   62        5.127149
   63        5.456696
   64        5.509481
   65        8.418996
   66        8.423503
   67        8.749687
   68        9.231867
   69        9.549544
   70        9.884414
   71       10.095097
   72       10.100267
   73       10.869169
   74       10.874218
   75       11.478945
   76       12.375923
   77       14.068966
   78       14.719115
   79       14.811575
   80       14.814100
   81       14.885585
   82       15.209668
   83       15.252172
   84       15.254921
 
 -0.2222222E+00  0.1111111E+00  0.0000000E+00  0.6172840E-02
    1      -13.056249
    2      -12.471833
    3      -12.470155
    4      -11.724760
    5       -9.118259
    6       -9.117451
    7       -8.630848
    8       -8.629609
    9       -8.629447
   10       -8.628208
   11       -8.045000
   12       -8.044072
   13       -7.573457
   14       -7.219770
   15       -7.218991
   16       -7.115308
   17       -6.180164
   18       -6.179608
   19       -6.117562
   20       -5.827902
   21       -5.184671
   22       -5.183863
   23       -4.811953
   24       -4.810908
   25       -4.809512
   26       -4.808339
   27       -4.363555
   28       -4.362831
   29       -2.658379
   30       -0.615477
   31       -0.392383
   32       -0.391680
   33       -0.355642
   34       -0.352220
   35       -0.146899
   36        0.246639
   37        0.246713
   38        0.436274
   39        0.436534
   40        0.439446
   41        0.439757
   42        0.640722
   43        0.640892
   44        1.933978
   45        1.935704
   46        2.544709
   47        2.964739
   48        3.067557
   49        3.067741
   50        3.128246
   51        3.347257
   52        3.387331
   53        3.432524
   54        3.433137
   55        3.523826
   56        3.771945
   57        3.774605
   58        3.774888
   59        3.777703
   60        4.799412
   61        4.800297
   62        4.996358
   63        5.384228
   64        5.386754
   65        8.416884
   66        8.422340
   67        8.947127
   68        8.949684
   69        9.171449
   70        9.537695
   71        9.543118
   72        9.544944
   73        9.545965
   74        9.551960
   75       11.154266
   76       11.156190
   77       13.881052
   78       13.883974
   79       14.531596
   80       14.629186
   81       14.631357
   82       14.632516
   83       14.635054
   84       14.689752
 
 -0.1111111E+00  0.1111111E+00  0.0000000E+00  0.6172840E-02
    1      -13.206544
    2      -12.618808
    3      -12.617121
    4      -11.865919
    5       -8.639378
    6       -8.171222
    7       -8.169852
    8       -8.061989
    9       -8.059240
   10       -7.635127
   11       -7.632413
   12       -7.632152
   13       -7.629756
   14       -7.625775
   15       -7.231045
   16       -7.228828
   17       -6.270959
   18       -6.268900
   19       -6.023371
   20       -6.019748
   21       -6.019500
   22       -6.018494
   23       -5.860724
   24       -5.575383
   25       -5.573177
   26       -5.496092
   27       -5.493330
   28       -5.031902
   29       -2.839433
   30       -0.525335
   31       -0.521898
   32        0.096878
   33        0.099618
   34        0.289695
   35        0.291023
   36        0.291121
   37        0.295566
   38        0.411782
   39        0.495624
   40        0.498642
   41        0.590518
   42        0.593545
   43        0.780118
   44        2.390820
   45        2.414726
   46        2.943280
   47        2.946113
   48        3.510076
   49        3.600489
   50        3.606614
   51        3.657674
   52        3.697699
   53        3.742192
   54        3.748225
   55        3.833299
   56        4.121139
   57        4.123906
   58        4.487695
   59        4.488855
   60        4.489446
   61        4.493657
   62        4.968391
   63        4.969083
   64        5.172071
   65        8.611838
   66        8.620079
   67        8.620960
   68        8.624378
   69        8.875657
   70        8.995260
   71        8.997243
   72        9.015082
   73        9.022122
   74       10.103856
   75       10.107307
   76       10.674375
   77       13.488269
   78       13.781070
   79       13.785506
   80       14.251738
   81       14.254127
   82       14.521323
   83       14.535293
   84       14.539713
 
  0.0000000E+00  0.2222222E+00  0.0000000E+00  0.6172840E-02
    1      -12.981144
    2      -12.398430
    3      -12.396757
    4      -11.654207
    5       -9.680221
    6       -9.176174
    7       -9.174725
    8       -8.561963
    9       -8.436310
   10       -8.432955
   11       -7.975093
   12       -7.972034
   13       -7.971475
   14       -7.968278
   15       -7.438711
   16       -7.435475
   17       -5.685085
   18       -5.681734
   19       -5.330476
   20       -5.327361
   21       -5.325685
   22       -5.322491
   23       -4.879487
   24       -4.875608
   25       -4.533958
   26       -4.167536
   27       -4.166452
   28       -3.736606
   29       -2.567982
   30       -0.537516
   31       -0.535649
   32       -0.317678
   33       -0.316713
   34       -0.313931
   35       -0.312916
   36       -0.271152
   37       -0.267736
   38       -0.073273
   39       -0.071396
   40        0.627350
   41        0.804710
   42        0.805292
   43        0.990313
   44        1.312019
   45        2.621031
   46        2.640291
   47        2.668953
   48        2.672499
   49        2.780609
   50        2.780972
   51        2.923350
   52        3.213196
   53        3.254479
   54        3.256757
   55        3.328069
   56        3.328497
   57        3.445511
   58        4.368278
   59        4.371748
   60        4.372575
   61        4.376164
   62        5.274698
   63        5.425074
   64        5.427454
   65        8.789846
   66        8.792785
   67        8.936001
   68        8.941368
   69        8.943070
   70        8.948512
   71        9.330171
   72       10.201941
   73       10.206460
   74       10.354274
   75       10.359815
   76       11.850031
   77       13.628448
   78       14.387642
   79       14.389329
   80       14.515832
   81       14.738401
   82       14.742236
   83       15.056265
   84       15.177209
 
  0.1111111E+00  0.2222222E+00  0.0000000E+00  0.6172840E-02
    1      -12.756321
    2      -12.178663
    3      -12.177005
    4      -11.442956
    5      -10.109591
    6       -9.594091
    7       -9.592607
    8       -9.468797
    9       -8.970681
   10       -8.969129
   11       -8.960424
   12       -8.364647
   13       -7.665515
   14       -7.249479
   15       -7.248036
   16       -6.859465
   17       -5.910842
   18       -5.676052
   19       -5.672878
   20       -5.258514
   21       -4.383430
   22       -4.029835
   23       -4.027507
   24       -3.777049
   25       -3.617077
   26       -3.429104
   27       -3.428031
   28       -3.026916
   29       -2.297474
   30       -1.549413
   31       -1.300395
   32       -1.297782
   33       -1.010795
   34       -0.304475
   35       -0.092348
   36       -0.089497
   37       -0.018935
   38       -0.015523
   39        0.145691
   40        0.535761
   41        0.721768
   42        0.722395
   43        0.829866
   44        0.919852
   45        1.568142
   46        1.972173
   47        2.118229
   48        2.121660
   49        2.245491