   4   4   0   0
  0.7857534E+01  0.2466437E-09  0.2466437E-09  0.5968576E-09  0.5000000E-15
  1.000000000000000E-004
  CAR 
 graphite                                
     19.99157749    -16.04640337  301      5.72950966      1.00000000
    -16.046  0.0000E+00  0.0000E+00
    -15.926  0.0000E+00  0.0000E+00
    -15.806  0.0000E+00  0.0000E+00
    -15.686  0.0000E+00  0.0000E+00
    -15.566  0.0000E+00  0.0000E+00
    -15.446  0.0000E+00  0.0000E+00
    -15.326  0.0000E+00  0.0000E+00
    -15.206  0.0000E+00  0.0000E+00
    -15.085  0.0000E+00  0.0000E+00
    -14.965  0.0000E+00  0.0000E+00
    -14.845  0.0000E+00  0.0000E+00
    -14.725  0.0000E+00  0.0000E+00
    -14.605  0.0000E+00  0.0000E+00
    -14.485  0.0000E+00  0.0000E+00
    -14.365  0.0000E+00  0.0000E+00
    -14.245  0.0000E+00  0.0000E+00
    -14.124  0.0000E+00  0.0000E+00
    -14.004  0.2770E-03  0.4215E-05
    -13.884  0.9162E-03  0.8704E-04
    -13.764  0.1348E-02  0.2266E-03
    -13.644  0.1668E-02  0.4065E-03
    -13.524  0.2069E-02  0.6302E-03
    -13.404  0.2470E-02  0.9000E-03
    -13.283  0.3072E-02  0.1241E-02
    -13.163  0.3125E-02  0.1610E-02
    -13.043  0.3068E-02  0.1982E-02
    -12.923  0.3098E-02  0.2352E-02
    -12.803  0.3075E-02  0.2723E-02
    -12.683  0.3110E-02  0.3094E-02
    -12.563  0.3125E-02  0.3469E-02
    -12.443  0.3089E-02  0.3843E-02
    -12.322  0.3101E-02  0.4215E-02
    -12.202  0.3122E-02  0.4588E-02
    -12.082  0.3147E-02  0.4965E-02
    -11.962  0.3129E-02  0.5343E-02
    -11.842  0.3127E-02  0.5718E-02
    -11.722  0.3138E-02  0.6094E-02
    -11.602  0.3153E-02  0.6472E-02
    -11.482  0.3167E-02  0.6852E-02
    -11.361  0.3168E-02  0.7232E-02
    -11.241  0.3171E-02  0.7613E-02
    -11.121  0.3178E-02  0.7994E-02
    -11.001  0.3190E-02  0.8377E-02
    -10.881  0.3200E-02  0.8760E-02
    -10.761  0.3208E-02  0.9145E-02
    -10.641  0.3215E-02  0.9531E-02
    -10.521  0.3234E-02  0.9918E-02
    -10.400  0.3242E-02  0.1031E-01
    -10.280  0.3255E-02  0.1070E-01
    -10.160  0.3271E-02  0.1109E-01
    -10.040  0.3285E-02  0.1148E-01
     -9.920  0.3295E-02  0.1188E-01
     -9.800  0.3320E-02  0.1228E-01
     -9.680  0.3351E-02  0.1268E-01
     -9.560  0.3380E-02  0.1308E-01
     -9.439  0.3413E-02  0.1349E-01
     -9.319  0.3466E-02  0.1390E-01
     -9.199  0.3536E-02  0.1432E-01
     -9.079  0.3639E-02  0.1475E-01
     -8.959  0.3783E-02  0.1520E-01
     -8.839  0.4385E-02  0.1568E-01
     -8.719  0.4529E-02  0.1622E-01
     -8.599  0.4385E-02  0.1676E-01
     -8.478  0.5196E-02  0.1730E-01
     -8.358  0.3423E-02  0.1783E-01
     -8.238  0.2894E-02  0.1821E-01
     -8.118  0.2799E-02  0.1855E-01
     -7.998  0.2000E-02  0.1882E-01
     -7.878  0.1724E-02  0.1904E-01
     -7.758  0.2020E-02  0.1926E-01
     -7.638  0.1437E-02  0.1946E-01
     -7.517  0.1258E-02  0.1962E-01
     -7.397  0.1229E-02  0.1976E-01
     -7.277  0.1585E-02  0.1992E-01
     -7.157  0.2680E-02  0.2025E-01
     -7.037  0.3099E-02  0.2059E-01
     -6.917  0.3273E-02  0.2098E-01
     -6.797  0.3637E-02  0.2139E-01
     -6.677  0.3991E-02  0.2183E-01
     -6.556  0.4846E-02  0.2238E-01
     -6.436  0.5237E-02  0.2296E-01
     -6.316  0.4804E-02  0.2356E-01
     -6.196  0.4332E-02  0.2412E-01
     -6.076  0.3710E-02  0.2458E-01
     -5.956  0.3570E-02  0.2502E-01
     -5.836  0.3433E-02  0.2544E-01
     -5.716  0.3288E-02  0.2584E-01
     -5.595  0.3142E-02  0.2623E-01
     -5.475  0.3031E-02  0.2660E-01
     -5.355  0.2966E-02  0.2696E-01
     -5.235  0.2929E-02  0.2731E-01
     -5.115  0.2892E-02  0.2766E-01
     -4.995  0.2855E-02  0.2801E-01
     -4.875  0.2714E-02  0.2834E-01
     -4.755  0.2618E-02  0.2866E-01
     -4.634  0.2893E-02  0.2898E-01
     -4.514  0.3368E-02  0.2936E-01
     -4.394  0.3836E-02  0.2979E-01
     -4.274  0.3750E-02  0.3025E-01
     -4.154  0.3725E-02  0.3070E-01
     -4.034  0.3668E-02  0.3114E-01
     -3.914  0.3612E-02  0.3158E-01
     -3.793  0.3623E-02  0.3201E-01
     -3.673  0.3718E-02  0.3246E-01
     -3.553  0.3818E-02  0.3291E-01
     -3.433  0.3886E-02  0.3337E-01
     -3.313  0.3933E-02  0.3384E-01
     -3.193  0.4258E-02  0.3433E-01
     -3.073  0.4328E-02  0.3485E-01
     -2.953  0.4493E-02  0.3538E-01
     -2.832  0.4679E-02  0.3593E-01
     -2.712  0.4817E-02  0.3650E-01
     -2.592  0.4926E-02  0.3708E-01
     -2.472  0.5056E-02  0.3768E-01
     -2.352  0.5256E-02  0.3830E-01
     -2.232  0.5500E-02  0.3895E-01
     -2.112  0.5724E-02  0.3962E-01
     -1.992  0.5998E-02  0.4032E-01
     -1.871  0.6319E-02  0.4106E-01
     -1.751  0.6408E-02  0.4183E-01
     -1.631  0.6130E-02  0.4259E-01
     -1.511  0.5785E-02  0.4330E-01
     -1.391  0.5991E-02  0.4400E-01
     -1.271  0.6493E-02  0.4475E-01
     -1.151  0.6917E-02  0.4556E-01
     -1.031  0.7287E-02  0.4641E-01
     -0.910  0.8920E-02  0.4736E-01
     -0.790  0.9375E-02  0.4845E-01
     -0.670  0.1091E-01  0.4966E-01
     -0.550  0.1042E-01  0.5097E-01
     -0.430  0.8871E-02  0.5213E-01
     -0.310  0.8078E-02  0.5315E-01
     -0.190  0.7665E-02  0.5409E-01
     -0.070  0.7374E-02  0.5499E-01
      0.051  0.6800E-02  0.5585E-01
      0.171  0.7367E-02  0.5668E-01
      0.291  0.7214E-02  0.5755E-01
      0.411  0.7501E-02  0.5844E-01
      0.531  0.6741E-02  0.5931E-01
      0.651  0.6295E-02  0.6010E-01
      0.771  0.6060E-02  0.6084E-01
      0.891  0.6143E-02  0.6157E-01
      1.012  0.6339E-02  0.6232E-01
      1.132  0.5838E-02  0.6307E-01
      1.252  0.6664E-02  0.6385E-01
      1.372  0.6461E-02  0.6464E-01
      1.492  0.6133E-02  0.6539E-01
      1.612  0.5866E-02  0.6611E-01
      1.732  0.5778E-02  0.6681E-01
      1.852  0.5926E-02  0.6751E-01
      1.973  0.5833E-02  0.6822E-01
      2.093  0.5717E-02  0.6891E-01
      2.213  0.5622E-02  0.6959E-01
      2.333  0.5863E-02  0.7028E-01
      2.453  0.5807E-02  0.7098E-01
      2.573  0.6262E-02  0.7173E-01
      2.693  0.5889E-02  0.7244E-01
      2.813  0.3873E-02  0.7303E-01
      2.934  0.3721E-02  0.7347E-01
      3.054  0.3696E-02  0.7392E-01
      3.174  0.3673E-02  0.7436E-01
      3.294  0.3647E-02  0.7480E-01
      3.414  0.3685E-02  0.7524E-01
      3.534  0.3702E-02  0.7569E-01
      3.654  0.3900E-02  0.7614E-01
      3.774  0.4398E-02  0.7662E-01
      3.895  0.4507E-02  0.7722E-01
      4.015  0.3377E-02  0.7768E-01
      4.135  0.2739E-02  0.7804E-01
      4.255  0.2510E-02  0.7835E-01
      4.375  0.2101E-02  0.7863E-01
      4.495  0.1846E-02  0.7887E-01
      4.615  0.1625E-02  0.7908E-01
      4.735  0.1392E-02  0.7926E-01
      4.856  0.1142E-02  0.7941E-01
      4.976  0.1029E-02  0.7954E-01
      5.096  0.9137E-03  0.7966E-01
      5.216  0.7879E-03  0.7976E-01
      5.336  0.6924E-03  0.7985E-01
      5.456  0.5746E-03  0.7993E-01
      5.576  0.2949E-03  0.7998E-01
      5.697  0.4077E-04  0.8000E-01
      5.817  0.6761E-04  0.8000E-01
      5.937  0.1703E-03  0.8002E-01
      6.057  0.2778E-03  0.8004E-01
      6.177  0.3899E-03  0.8008E-01
      6.297  0.5075E-03  0.8014E-01
      6.417  0.5980E-03  0.8020E-01
      6.537  0.7329E-03  0.8028E-01
      6.658  0.8979E-03  0.8038E-01
      6.778  0.1078E-02  0.8050E-01
      6.898  0.1302E-02  0.8064E-01
      7.018  0.1540E-02  0.8081E-01
      7.138  0.2743E-02  0.8105E-01
      7.258  0.3465E-02  0.8142E-01
      7.378  0.5636E-02  0.8197E-01
      7.498  0.5879E-02  0.8273E-01
      7.619  0.4168E-02  0.8328E-01
      7.739  0.3926E-02  0.8377E-01
      7.859  0.3772E-02  0.8423E-01
      7.979  0.3749E-02  0.8467E-01
      8.099  0.3466E-02  0.8511E-01
      8.219  0.3429E-02  0.8553E-01
      8.339  0.3426E-02  0.8594E-01
      8.459  0.3385E-02  0.8635E-01
      8.580  0.3031E-02  0.8673E-01
      8.700  0.2883E-02  0.8709E-01
      8.820  0.2762E-02  0.8743E-01
      8.940  0.2659E-02  0.8775E-01
      9.060  0.2562E-02  0.8807E-01
      9.180  0.2476E-02  0.8837E-01
      9.300  0.2414E-02  0.8866E-01
      9.420  0.2358E-02  0.8895E-01
      9.541  0.2306E-02  0.8923E-01
      9.661  0.2257E-02  0.8950E-01
      9.781  0.2210E-02  0.8977E-01
      9.901  0.2164E-02  0.9003E-01
     10.021  0.2117E-02  0.9029E-01
     10.141  0.2071E-02  0.9054E-01
     10.261  0.2029E-02  0.9079E-01
     10.381  0.1988E-02  0.9103E-01
     10.502  0.1954E-02  0.9127E-01
     10.622  0.1922E-02  0.9150E-01
     10.742  0.1891E-02  0.9173E-01
     10.862  0.1860E-02  0.9195E-01
     10.982  0.1830E-02  0.9217E-01
     11.102  0.1800E-02  0.9239E-01
     11.222  0.1770E-02  0.9261E-01
     11.342  0.1741E-02  0.9282E-01
     11.463  0.1808E-02  0.9303E-01
     11.583  0.1918E-02  0.9325E-01
     11.703  0.2026E-02  0.9349E-01
     11.823  0.2053E-02  0.9373E-01
     11.943  0.2090E-02  0.9398E-01
     12.063  0.2131E-02  0.9424E-01
     12.183  0.2170E-02  0.9449E-01
     12.303  0.2223E-02  0.9476E-01
     12.424  0.2451E-02  0.9503E-01
     12.544  0.2735E-02  0.9535E-01
     12.664  0.2721E-02  0.9568E-01
     12.784  0.2681E-02  0.9600E-01
     12.904  0.3044E-02  0.9634E-01
     13.024  0.3804E-02  0.9675E-01
     13.144  0.4404E-02  0.9725E-01
     13.264  0.4777E-02  0.9780E-01
     13.385  0.5251E-02  0.9840E-01
     13.505  0.6190E-02  0.9909E-01
     13.625  0.7024E-02  0.9987E-01
     13.745  0.8994E-02  0.1008E+00
     13.865  0.9746E-02  0.1020E+00
     13.985  0.1020E-01  0.1032E+00
     14.105  0.1255E-01  0.1044E+00
     14.226  0.1247E-01  0.1061E+00
     14.346  0.9904E-02  0.1074E+00
     14.466  0.8636E-02  0.1085E+00
     14.586  0.7535E-02  0.1095E+00
     14.706  0.6385E-02  0.1103E+00
     14.826  0.6949E-02  0.1111E+00
     14.946  0.5912E-02  0.1119E+00
     15.066  0.5452E-02  0.1125E+00
     15.187  0.5662E-02  0.1132E+00
     15.307  0.4624E-02  0.1138E+00
     15.427  0.3599E-02  0.1143E+00
     15.547  0.3015E-02  0.1147E+00
     15.667  0.3092E-02  0.1151E+00
     15.787  0.3119E-02  0.1155E+00
     15.907  0.3002E-02  0.1158E+00
     16.027  0.3120E-02  0.1162E+00
     16.148  0.3685E-02  0.1166E+00
     16.268  0.4126E-02  0.1171E+00
     16.388  0.4498E-02  0.1176E+00
     16.508  0.4580E-02  0.1181E+00
     16.628  0.3122E-02  0.1186E+00
     16.748  0.2429E-02  0.1189E+00
     16.868  0.2262E-02  0.1192E+00
     16.988  0.1233E-02  0.1194E+00
     17.109  0.1010E-02  0.1196E+00
     17.229  0.8658E-03  0.1197E+00
     17.349  0.7684E-03  0.1198E+00
     17.469  0.6452E-03  0.1199E+00
     17.589  0.5221E-03  0.1199E+00
     17.709  0.2922E-03  0.1200E+00
     17.829  0.8576E-04  0.1200E+00
     17.949  0.3348E-05  0.1200E+00
     18.070  0.0000E+00  0.1200E+00
     18.190  0.0000E+00  0.1200E+00
     18.310  0.0000E+00  0.1200E+00
     18.430  0.0000E+00  0.1200E+00
     18.550  0.0000E+00  0.1200E+00
     18.670  0.0000E+00  0.1200E+00
     18.790  0.0000E+00  0.1200E+00
     18.910  0.0000E+00  0.1200E+00
     19.031  0.0000E+00  0.1200E+00
     19.151  0.0000E+00  0.1200E+00
     19.271  0.0000E+00  0.1200E+00
     19.391  0.0000E+00  0.1200E+00
     19.511  0.0000E+00  0.1200E+00
     19.631  0.0000E+00  0.1200E+00
     19.751  0.0000E+00  0.1200E+00
     19.871  0.0000E+00  0.1200E+00
     19.992  0.0000E+00  0.1200E+00
