# Thermal properties / unit cell (natom)

unit:
  temperature:   K
  free_energy:   kJ/mol
  entropy:       J/K/mol
  heat_capacity: J/K/mol

natom:     4
num_modes: 3888
num_integrated_modes: 3876

zero_point_energy:      66.6108111
high_T_entropy:        228.4811420

thermal_properties:
- temperature:         0.0000000
  free_energy:        66.6108111
  entropy:             0.0000000
  heat_capacity:       0.0000000
  energy:             66.6108111

- temperature:        10.0000000
  free_energy:        66.6108061
  entropy:             0.0032053
  heat_capacity:       0.0147836
  energy:             66.6108382

- temperature:        20.0000000
  free_energy:        66.6106490
  entropy:             0.0320846
  heat_capacity:       0.0769058
  energy:             66.6112907

- temperature:        30.0000000
  free_energy:        66.6101129
  entropy:             0.0777506
  heat_capacity:       0.1633005
  energy:             66.6124454

- temperature:        40.0000000
  free_energy:        66.6090195
  entropy:             0.1459523
  heat_capacity:       0.3384473
  energy:             66.6148576

- temperature:        50.0000000
  free_energy:        66.6070689
  entropy:             0.2514374
  heat_capacity:       0.6405939
  energy:             66.6196408

- temperature:        60.0000000
  free_energy:        66.6038302
  entropy:             0.4049499
  heat_capacity:       1.0799739
  energy:             66.6281272

- temperature:        70.0000000
  free_energy:        66.5987871
  entropy:             0.6132271
  heat_capacity:       1.6611460
  energy:             66.6417130

- temperature:        80.0000000
  free_energy:        66.5913679
  entropy:             0.8808115
  heat_capacity:       2.3869514
  energy:             66.6618328

- temperature:        90.0000000
  free_energy:        66.5809629
  entropy:             1.2107488
  heat_capacity:       3.2560465
  energy:             66.6899303

- temperature:       100.0000000
  free_energy:        66.5669393
  entropy:             1.6047058
  heat_capacity:       4.2618465
  energy:             66.7274099

- temperature:       110.0000000
  free_energy:        66.5486542
  entropy:             2.0630157
  heat_capacity:       5.3931284
  energy:             66.7755859

- temperature:       120.0000000
  free_energy:        66.5254673
  entropy:             2.5847917
  heat_capacity:       6.6353074
  energy:             66.8356423

- temperature:       130.0000000
  free_energy:        66.4967531
  entropy:             3.1681041
  heat_capacity:       7.9718482
  energy:             66.9086066

- temperature:       140.0000000
  free_energy:        66.4619093
  entropy:             3.8101949
  heat_capacity:       9.3855783
  energy:             66.9953366

- temperature:       150.0000000
  free_energy:        66.4203644
  entropy:             4.5077013
  heat_capacity:      10.8597842
  energy:             67.0965196

- temperature:       160.0000000
  free_energy:        66.3715830
  entropy:             5.2568696
  heat_capacity:      12.3790238
  energy:             67.2126821

- temperature:       170.0000000
  free_energy:        66.3150680
  entropy:             6.0537438
  heat_capacity:      13.9296398
  energy:             67.3442045

- temperature:       180.0000000
  free_energy:        66.2503625
  entropy:             6.8943226
  heat_capacity:      15.4999996
  energy:             67.4913405

- temperature:       190.0000000
  free_energy:        66.1770490
  entropy:             7.7746796
  heat_capacity:      17.0805169
  energy:             67.6542381

- temperature:       200.0000000
  free_energy:        66.0947489
  entropy:             8.6910505
  heat_capacity:      18.6635182
  energy:             67.8329590

- temperature:       210.0000000
  free_energy:        66.0031198
  entropy:             9.6398898
  heat_capacity:      20.2430165
  energy:             68.0274966

- temperature:       220.0000000
  free_energy:        65.9018538
  entropy:            10.6179019
  heat_capacity:      21.8144424
  energy:             68.2377923

- temperature:       230.0000000
  free_energy:        65.7906747
  entropy:            11.6220540
  heat_capacity:      23.3743696
  energy:             68.4637471

- temperature:       240.0000000
  free_energy:        65.6693349
  entropy:            12.6495745
  heat_capacity:      24.9202604
  energy:             68.7052328

- temperature:       250.0000000
  free_energy:        65.5376137
  entropy:            13.6979420
  heat_capacity:      26.4502431
  energy:             68.9620992

- temperature:       260.0000000
  free_energy:        65.3953142
  entropy:            14.7648682
  heat_capacity:      27.9629284
  energy:             69.2341800

- temperature:       270.0000000
  free_energy:        65.2422614
  entropy:            15.8482784
  heat_capacity:      29.4572641
  energy:             69.5212966

- temperature:       280.0000000
  free_energy:        65.0783000
  entropy:            16.9462904
  heat_capacity:      30.9324247
  energy:             69.8232613

- temperature:       290.0000000
  free_energy:        64.9032926
  entropy:            18.0571939
  heat_capacity:      32.3877324
  energy:             70.1398789

- temperature:       300.0000000
  free_energy:        64.7171183
  entropy:            19.1794315
  heat_capacity:      33.8226015
  energy:             70.4709478

- temperature:       310.0000000
  free_energy:        64.5196710
  entropy:            20.3115808
  heat_capacity:      35.2365032
  energy:             70.8162610

- temperature:       320.0000000
  free_energy:        64.3108581
  entropy:            21.4523384
  heat_capacity:      36.6289450
  energy:             71.1756063

- temperature:       330.0000000
  free_energy:        64.0905995
  entropy:            22.6005070
  heat_capacity:      37.9994598
  energy:             71.5487668

- temperature:       340.0000000
  free_energy:        63.8588269
  entropy:            23.7549826
  heat_capacity:      39.3476038
  energy:             71.9355210

- temperature:       350.0000000
  free_energy:        63.6154823
  entropy:            24.9147448
  heat_capacity:      40.6729569
  energy:             72.3356429

- temperature:       360.0000000
  free_energy:        63.3605175
  entropy:            26.0788480
  heat_capacity:      41.9751271
  energy:             72.7489028

- temperature:       370.0000000
  free_energy:        63.0938938
  entropy:            27.2464141
  heat_capacity:      43.2537560
  energy:             73.1750670

- temperature:       380.0000000
  free_energy:        62.8155804
  entropy:            28.4166262
  heat_capacity:      44.5085237
  energy:             73.6138984

- temperature:       390.0000000
  free_energy:        62.5255550
  entropy:            29.5887232
  heat_capacity:      45.7391536
  energy:             74.0651570

- temperature:       400.0000000
  free_energy:        62.2238021
  entropy:            30.7619955
  heat_capacity:      46.9454167
  energy:             74.5286002

- temperature:       410.0000000
  free_energy:        61.9103133
  entropy:            31.9357809
  heat_capacity:      48.1271343
  energy:             75.0039835

- temperature:       420.0000000
  free_energy:        61.5850868
  entropy:            33.1094616
  heat_capacity:      49.2841800
  energy:             75.4910607

- temperature:       430.0000000
  free_energy:        61.2481264
  entropy:            34.2824610
  heat_capacity:      50.4164803
  energy:             75.9895846

- temperature:       440.0000000
  free_energy:        60.8994417
  entropy:            35.4542411
  heat_capacity:      51.5240143
  energy:             76.4993077

- temperature:       450.0000000
  free_energy:        60.5390473
  entropy:            36.6243003
  heat_capacity:      52.6068130
  energy:             77.0199825

- temperature:       460.0000000
  free_energy:        60.1669629
  entropy:            37.7921714
  heat_capacity:      53.6649568
  energy:             77.5513618

- temperature:       470.0000000
  free_energy:        59.7832126
  entropy:            38.9574196
  heat_capacity:      54.6985741
  energy:             78.0931998

- temperature:       480.0000000
  free_energy:        59.3878246
  entropy:            40.1196405
  heat_capacity:      55.7078374
  energy:             78.6452521

- temperature:       490.0000000
  free_energy:        58.9808312
  entropy:            41.2784591
  heat_capacity:      56.6929609
  energy:             79.2072761

- temperature:       500.0000000
  free_energy:        58.5622680
  entropy:            42.4335275
  heat_capacity:      57.6541970
  energy:             79.7790317

- temperature:       510.0000000
  free_energy:        58.1321742
  entropy:            43.5845239
  heat_capacity:      58.5918326
  energy:             80.3602814

- temperature:       520.0000000
  free_energy:        57.6905921
  entropy:            44.7311513
  heat_capacity:      59.5061858
  energy:             80.9507907

- temperature:       530.0000000
  free_energy:        57.2375666
  entropy:            45.8731358
  heat_capacity:      60.3976023
  energy:             81.5503286

- temperature:       540.0000000
  free_energy:        56.7731457
  entropy:            47.0102257
  heat_capacity:      61.2664521
  energy:             82.1586676

- temperature:       550.0000000
  free_energy:        56.2973792
  entropy:            48.1421901
  heat_capacity:      62.1131263
  energy:             82.7755838

- temperature:       560.0000000
  free_energy:        55.8103196
  entropy:            49.2688176
  heat_capacity:      62.9380336
  energy:             83.4008575

- temperature:       570.0000000
  free_energy:        55.3120213
  entropy:            50.3899158
  heat_capacity:      63.7415980
  energy:             84.0342733

- temperature:       580.0000000
  free_energy:        54.8025403
  entropy:            51.5053094
  heat_capacity:      64.5242555
  energy:             84.6756198

- temperature:       590.0000000
  free_energy:        54.2819347
  entropy:            52.6148399
  heat_capacity:      65.2864515
  energy:             85.3246902

- temperature:       600.0000000
  free_energy:        53.7502636
  entropy:            53.7183643
  heat_capacity:      66.0286390
  energy:             85.9812821

- temperature:       610.0000000
  free_energy:        53.2075878
  entropy:            54.8157541
  heat_capacity:      66.7512759
  energy:             86.6451978

- temperature:       620.0000000
  free_energy:        52.6539693
  entropy:            55.9068947
  heat_capacity:      67.4548234
  energy:             87.3162440

- temperature:       630.0000000
  free_energy:        52.0894711
  entropy:            56.9916843
  heat_capacity:      68.1397437
  energy:             87.9942322

- temperature:       640.0000000
  free_energy:        51.5141571
  entropy:            58.0700332
  heat_capacity:      68.8064991
  energy:             88.6789783

- temperature:       650.0000000
  free_energy:        50.9280922
  entropy:            59.1418631
  heat_capacity:      69.4555500
  energy:             89.3703031

- temperature:       660.0000000
  free_energy:        50.3313418
  entropy:            60.2071061
  heat_capacity:      70.0873540
  energy:             90.0680318

- temperature:       670.0000000
  free_energy:        49.7239722
  entropy:            61.2657046
  heat_capacity:      70.7023646
  energy:             90.7719942

- temperature:       680.0000000
  free_energy:        49.1060500
  entropy:            62.3176098
  heat_capacity:      71.3010301
  energy:             91.4820247

- temperature:       690.0000000
  free_energy:        48.4776424
  entropy:            63.3627817
  heat_capacity:      71.8837932
  energy:             92.1979618

- temperature:       700.0000000
  free_energy:        47.8388169
  entropy:            64.4011886
  heat_capacity:      72.4510898
  energy:             92.9196490

- temperature:       710.0000000
  free_energy:        47.1896413
  entropy:            65.4328059
  heat_capacity:      73.0033485
  energy:             93.6469335

- temperature:       720.0000000
  free_energy:        46.5301835
  entropy:            66.4576163
  heat_capacity:      73.5409904
  energy:             94.3796672

- temperature:       730.0000000
  free_energy:        45.8605117
  entropy:            67.4756086
  heat_capacity:      74.0644282
  energy:             95.1177060

- temperature:       740.0000000
  free_energy:        45.1806941
  entropy:            68.4867780
  heat_capacity:      74.5740660
  energy:             95.8609098

- temperature:       750.0000000
  free_energy:        44.4907989
  entropy:            69.4911250
  heat_capacity:      75.0702995
  energy:             96.6091426

- temperature:       760.0000000
  free_energy:        43.7908943
  entropy:            70.4886554
  heat_capacity:      75.5535148
  energy:             97.3622724

- temperature:       770.0000000
  free_energy:        43.0810485
  entropy:            71.4793796
  heat_capacity:      76.0240892
  energy:             98.1201708

- temperature:       780.0000000
  free_energy:        42.3613294
  entropy:            72.4633127
  heat_capacity:      76.4823907
  energy:             98.8827133

- temperature:       790.0000000
  free_energy:        41.6318048
  entropy:            73.4404735
  heat_capacity:      76.9287778
  energy:             99.6497789

- temperature:       800.0000000
  free_energy:        40.8925424
  entropy:            74.4108848
  heat_capacity:      77.3635997
  energy:            100.4212503

- temperature:       810.0000000
  free_energy:        40.1436095
  entropy:            75.3745728
  heat_capacity:      77.7871963
  energy:            101.1970135

- temperature:       820.0000000
  free_energy:        39.3850732
  entropy:            76.3315666
  heat_capacity:      78.1998983
  energy:            101.9769579

- temperature:       830.0000000
  free_energy:        38.6170004
  entropy:            77.2818986
  heat_capacity:      78.6020271
  energy:            102.7609762

- temperature:       840.0000000
  free_energy:        37.8394574
  entropy:            78.2256034
  heat_capacity:      78.9938949
  energy:            103.5489642

- temperature:       850.0000000
  free_energy:        37.0525103
  entropy:            79.1627184
  heat_capacity:      79.3758050
  energy:            104.3408209

- temperature:       860.0000000
  free_energy:        36.2562248
  entropy:            80.0932829
  heat_capacity:      79.7480520
  energy:            105.1364481

- temperature:       870.0000000
  free_energy:        35.4506663
  entropy:            81.0173383
  heat_capacity:      80.1109215
  energy:            105.9357507

- temperature:       880.0000000
  free_energy:        34.6358996
  entropy:            81.9349279
  heat_capacity:      80.4646908
  energy:            106.7386362

- temperature:       890.0000000
  free_energy:        33.8119892
  entropy:            82.8460965
  heat_capacity:      80.8096289
  energy:            107.5450150

- temperature:       900.0000000
  free_energy:        32.9789989
  entropy:            83.7508903
  heat_capacity:      81.1459964
  energy:            108.3548002

- temperature:       910.0000000
  free_energy:        32.1369924
  entropy:            84.6493569
  heat_capacity:      81.4740460
  energy:            109.1679072

- temperature:       920.0000000
  free_energy:        31.2860327
  entropy:            85.5415451
  heat_capacity:      81.7940227
  energy:            109.9842542

- temperature:       930.0000000
  free_energy:        30.4261823
  entropy:            86.4275046
  heat_capacity:      82.1061637
  energy:            110.8037616

- temperature:       940.0000000
  free_energy:        29.5575032
  entropy:            87.3072861
  heat_capacity:      82.4106990
  energy:            111.6263521

- temperature:       950.0000000
  free_energy:        28.6800570
  entropy:            88.1809410
  heat_capacity:      82.7078513
  energy:            112.4519510

- temperature:       960.0000000
  free_energy:        27.7939046
  entropy:            89.0485215
  heat_capacity:      82.9978363
  energy:            113.2804853

- temperature:       970.0000000
  free_energy:        26.8991066
  entropy:            89.9100802
  heat_capacity:      83.2808629
  energy:            114.1118845

- temperature:       980.0000000
  free_energy:        25.9957229
  entropy:            90.7656705
  heat_capacity:      83.5571333
  energy:            114.9460800

- temperature:       990.0000000
  free_energy:        25.0838130
  entropy:            91.6153458
  heat_capacity:      83.8268433
  energy:            115.7830053

- temperature:      1000.0000000
  free_energy:        24.1634356
  entropy:            92.4591601
  heat_capacity:      84.0901827
  energy:            116.6225956
