32   
4    

1    
  0.0055486365931299  -0.0000002500890244   0.0083194129537387
  -0.2819000800    0.0097525400    0.0343482000
   0.0411535000    0.0093488000    0.0165745000
  -0.0003120800   -0.0187042200    0.0177001500
   0.0031226200    0.0301460400    0.0181520400
  -0.0265999200    0.0057137800    0.0451563500
  -0.0136105400    0.0082984500    0.0423341000
  -0.0232463000   -0.0003523000    0.0443777400
  -0.0182143500    0.0090128100    0.0410675700
   0.0028785800   -0.0066823500   -0.0338593900
  -0.0000985000   -0.0110561200   -0.0353312700
   0.0027582300   -0.0057191100   -0.0345169000
   0.0006427600   -0.0071795800   -0.0896326700
  -0.0026104000   -0.0001338000   -0.0284937600
   0.0072071600   -0.0047438900   -0.0298390900
   0.0052195500   -0.0105957000   -0.0274414500
  -0.0025537000   -0.0045678300   -0.0891580800
   0.0075202000   -0.0019300800   -0.0275164300
   0.0514900900    0.0033850400   -0.0266986400
   0.1106082000    0.0269645900   -0.0243973500
   0.1252236300   -0.0446672700   -0.0310985400
   0.0167779000   -0.0010292200    0.0068657100
   0.0168044900    0.0002059100   -0.0343395900
   0.0076726600   -0.0106965900   -0.0361707000
   0.0114812600    0.0001975200   -0.0311174700
  -0.0368096400    0.0242344700    0.0361145500
   0.0254616300    0.0211020300    0.0608293000
  -0.0075633200   -0.0331989300    0.0481625500
   0.0010057500    0.0032815600    0.0126581500
   0.0192565700   -0.0107575100    0.0590331300
  -0.0323292600   -0.0115920800    0.0360948700
  -0.0082723500    0.0300620000    0.0473954900
  -0.0021643200    0.0019010300    0.0127469300

1    
 -0.0055486365931299   0.0000002500890244  -0.0083194129537387
   0.2681805500    0.0068274400   -0.0329250800
  -0.0558639900    0.0071953000   -0.0162637000
  -0.0185972200    0.0260412000   -0.0166839400
  -0.0174625400   -0.0208495800   -0.0176801400
   0.0117620600    0.0030918300   -0.0446384200
  -0.0012483000    0.0057703400   -0.0423331500
   0.0026389200    0.0062718600   -0.0408415300
   0.0056279700   -0.0023299500   -0.0427951700
   0.0055160900   -0.0021608400    0.0288227900
   0.0168879300    0.0013822800    0.0271872600
   0.0102669200   -0.0079789200    0.0266725500
   0.0183103300   -0.0029310100    0.0880677900
   0.0148358500   -0.0069486700    0.0347320500
   0.0138257000   -0.0039453500    0.0334568400
   0.0145336100   -0.0028675800    0.0349895400
   0.0178680800   -0.0047632800    0.0887880600
   0.0074143000   -0.0026910100    0.0269362500
  -0.0379537500    0.0056664100    0.0269863700
  -0.1145117200   -0.0453835100    0.0303427100
  -0.1020876200    0.0296364500    0.0235906500
  -0.0036311000   -0.0019963400   -0.0073210200
  -0.0036969700    0.0012485500    0.0338936800
  -0.0010100500   -0.0000772000    0.0314888800
   0.0013729400   -0.0086142000    0.0356121400
   0.0185218700   -0.0114401700   -0.0351484400
  -0.0308105000   -0.0114474000   -0.0588867500
  -0.0017378100    0.0313233200   -0.0469483800
  -0.0059455200    0.0001007200   -0.0136592400
  -0.0410729200    0.0216403400   -0.0603542600
   0.0225425200    0.0215916100   -0.0358306800
  -0.0040180800   -0.0323838900   -0.0485325900
  -0.0104575800    0.0010212300   -0.0107250800

17   
  0.0055486365931299  -0.0000002500890244   0.0083194129537387
  -0.0112222100    0.0046749900   -0.0294180100
   0.0326933700   -0.0046069700   -0.0320425700
   0.1127910800    0.0473999600   -0.0327684200
   0.0951211100   -0.0291665600   -0.0311445500
  -0.0002891900    0.0057462300   -0.0028482800
  -0.0005634400   -0.0013917200   -0.0315634600
   0.0015954700    0.0043908700   -0.0314494100
  -0.0093194500    0.0115517400   -0.0310156400
  -0.0121187200    0.0063593300    0.0295682500
   0.0345279500    0.0093686100    0.0655623000
   0.0049211500   -0.0326385900    0.0470313100
   0.0105913100   -0.0043114000    0.0193451600
   0.0270398900   -0.0148369500    0.0677963400
  -0.0038175000   -0.0125763300    0.0325228500
   0.0059268600    0.0142768700    0.0511534400
   0.0139999100   -0.0022919500    0.0177595700
  -0.2993723400   -0.0048092800   -0.1528771300
   0.0421279000   -0.0065756300    0.0014969700
  -0.0007514700   -0.0338480300    0.0016755900
  -0.0054111000    0.0300829800    0.0037569800
   0.0015111000   -0.0022781700   -0.0223220300
   0.0011369600   -0.0088349400    0.0156716800
   0.0005909000   -0.0065077100    0.0153045600
  -0.0068628000    0.0053189100    0.0130463900
   0.0070601500    0.0013458000    0.0142423900
  -0.0180168900   -0.0085881800    0.0012166900
  -0.0039404900    0.0158494600    0.0082693000
  -0.0050667300    0.0047568100   -0.0138594700
  -0.0146276000    0.0149463700   -0.0010471900
   0.0041210800    0.0028562800    0.0128056600
  -0.0020383100   -0.0090953200    0.0049977600
  -0.0023379800    0.0034325100   -0.0108670300

17   
 -0.0055486365931299   0.0000002500890244  -0.0083194129537387
  -0.0063467400    0.0044764700    0.0336170600
  -0.0494583100   -0.0022631400    0.0357131900
  -0.1119184100   -0.0278884000    0.0354456400
  -0.1305847800    0.0496589900    0.0371262200
  -0.0171823800    0.0044249900    0.0069318900
  -0.0157112700   -0.0003925500    0.0350428500
  -0.0076595600    0.0128571500    0.0354819900
  -0.0189104800    0.0063816700    0.0344157100
   0.0214140600   -0.0131378500   -0.0354923600
  -0.0091295100   -0.0150341500   -0.0716142000
   0.0123011900    0.0138188200   -0.0537120400
   0.0035259600   -0.0055003000   -0.0216889000
  -0.0178476900    0.0095825700   -0.0699349500
   0.0290006300    0.0064999700   -0.0345488900
   0.0113390600   -0.0323997300   -0.0515970800
   0.0068663200   -0.0064815700   -0.0237051300
   0.3122168800   -0.0090665600    0.1519096900
  -0.0290388000   -0.0044637000   -0.0016254300
   0.0186648700    0.0286105500   -0.0043096300
   0.0131879800   -0.0340941800   -0.0043959300
   0.0109079800   -0.0053578100    0.0212930300
   0.0118659300   -0.0078761800   -0.0171279300
   0.0193964400    0.0046022900   -0.0146419700
   0.0111155400   -0.0072426200   -0.0150199400
  -0.0195263800    0.0032735600   -0.0110282600
   0.0027407200    0.0157116400    0.0022538600
  -0.0115274600   -0.0066587300   -0.0051641500
  -0.0094161500    0.0022591100    0.0123700900
   0.0038660400   -0.0085054700   -0.0005124200
  -0.0176144600    0.0020403900   -0.0132790500
  -0.0089175200    0.0183118000   -0.0066200700
  -0.0076197300    0.0038529500    0.0144171000
