   32   32    1    1
  0.8817899E+01  0.4932875E-09  0.4932875E-09  0.1339614E-08  0.5000000E-15
  1.000000000000000E-004
  CAR 
 graphite                                
    128    163     84
 
  0.0000000E+00  0.0000000E+00  0.0000000E+00  0.3086420E-02
    1      -14.940152
    2      -14.793497
    3      -14.792915
    4      -14.635944
    5       -9.616523
    6       -9.606151
    7       -9.603191
    8       -9.555884
    9       -9.554304
   10       -9.543933
   11       -9.542567
   12       -9.542557
   13       -9.538476
   14       -9.504209
   15       -9.491213
   16       -9.488681
   17       -8.536905
   18       -8.535462
   19       -8.534454
   20       -8.505356
   21       -8.504529
   22       -8.502312
   23       -8.501953
   24       -8.501943
   25       -8.499307
   26       -8.451153
   27       -8.450306
   28       -8.447854
   29       -3.814801
   30       -2.921375
   31       -2.919640
   32       -1.831721
   33       -1.709613
   34       -1.707317
   35       -1.691720
   36       -1.681616
   37       -1.680819
   38       -1.680813
   39       -1.676733
   40       -1.664064
   41       -1.662133
   42       -1.652663
   43       -1.649863
   44       -1.634590
   45        1.688017
   46        1.695298
   47        1.696243
   48        1.701603
   49        1.707484
   50        1.712347
   51        1.713663
   52        1.720529
   53        1.926340
   54        1.929308
   55        1.931327
   56        2.332616
   57        2.335193
   58        2.342539
   59        2.342862
   60        2.342962
   61        2.346961
   62        2.608778
   63        2.626817
   64        2.628536
   65        6.206534
   66        6.208704
   67        6.214918
   68        6.345008
   69        6.348023
   70        6.350124
   71        6.352427
   72        6.352736
   73        6.356302
   74        6.880512
   75        6.886984
   76        6.890305
   77        9.012502
   78       11.661714
   79       11.665241
   80       11.888425
   81       11.892373
   82       11.924021
   83       12.085030
   84       12.086322
 
  0.1111111E+00 -0.1387779E-16  0.0000000E+00  0.6172840E-02
    1      -14.866486
    2      -14.720382
    3      -14.719804
    4      -14.563573
    5      -10.403601
    6      -10.298956
    7      -10.298296
    8      -10.189486
    9       -9.865230
   10       -9.856337
   11       -9.775297
   12       -9.774450
   13       -9.765698
   14       -9.764724
   15       -9.683930
   16       -9.673834
   17       -8.234742
   18       -8.230758
   19       -8.164207
   20       -8.161923
   21       -8.158778
   22       -8.157711
   23       -8.082699
   24       -8.077890
   25       -7.720406
   26       -7.638752
   27       -7.637277
   28       -7.551238
   29       -3.725321
   30       -2.834291
   31       -2.832558
   32       -1.935926
   33       -1.918895
   34       -1.904603
   35       -1.904300
   36       -1.888144
   37       -1.886273
   38       -1.872598
   39       -1.855467
   40       -1.748102
   41       -1.635247
   42       -1.608483
   43       -1.605489
   44       -1.578627
   45        1.335922
   46        1.393292
   47        1.406013
   48        1.409960
   49        1.421660
   50        1.533641
   51        1.544023
   52        1.548667
   53        1.560640
   54        1.808521
   55        1.812801
   56        1.915782
   57        1.918364
   58        2.281081
   59        2.283603
   60        2.290512
   61        2.291389
   62        2.487093
   63        2.664669
   64        2.680351
   65        6.282648
   66        6.287045
   67        6.477521
   68        6.481280
   69        6.482992
   70        6.487006
   71        6.567972
   72        6.889673
   73        6.893986
   74        7.016144
   75        7.024105
   76        7.487558
   77        9.101203
   78       11.737913
   79       11.741426
   80       11.931680
   81       12.123443
   82       12.124866
   83       12.224171
   84       12.258224
 
  0.2222222E+00 -0.2775558E-16  0.0000000E+00  0.6172840E-02
    1      -14.645708
    2      -14.501479
    3      -14.500913
    4      -14.346817
    5      -11.415762
    6      -11.299089
    7      -11.298601
    8      -11.176039
    9      -10.212435
   10      -10.206487
   11      -10.109913
   12      -10.109429
   13      -10.103796
   14      -10.102742
   15      -10.002550
   16       -9.996169
   17       -7.555099
   18       -7.547810
   19       -7.476555
   20       -7.474395
   21       -7.468345
   22       -7.467428
   23       -7.391397
   24       -7.383921
   25       -6.394304
   26       -6.317948
   27       -6.316562
   28       -6.237256
   29       -3.457749
   30       -2.574129
   31       -2.572406
   32       -2.543308
   33       -2.527238
   34       -2.504906
   35       -2.504722
   36       -2.489479
   37       -2.487671
   38       -2.465119
   39       -2.448990
   40       -1.498451
   41       -1.419984
   42       -1.393912
   43       -1.390835
   44       -1.364538
   45        0.313867
   46        0.566959
   47        0.587521
   48        0.591432
   49        0.611929
   50        1.025845
   51        1.027887
   52        1.112948
   53        1.127805
   54        1.132533
   55        1.148190
   56        1.585703
   57        1.590048
   58        1.834430
   59        2.160198
   60        2.162647
   61        2.167897
   62        2.168813
   63        2.727573
   64        2.738783
   65        6.524827
   66        6.526598
   67        6.812246
   68        6.815470
   69        6.817847
   70        6.821479
   71        7.324063
   72        7.329555
   73        7.693294
   74        8.113242
   75        8.116834
   76        8.699938
   77        9.368012
   78       11.964912
   79       11.968411
   80       12.048362
   81       12.233245
   82       12.234898
   83       12.403524
   84       13.075263
 
  0.3333333E+00  0.2775558E-16  0.0000000E+00  0.6172840E-02
    1      -14.278980
    2      -14.137856
    3      -14.137309
    4      -13.986766
    5      -12.329275
    6      -12.204659
    7      -12.204173
    8      -12.072170
    9      -10.468855
   10      -10.465160
   11      -10.361651
   12      -10.361144
   13      -10.357938
   14      -10.356664
   15      -10.248887
   16      -10.245026
   17       -6.746665
   18       -6.737671
   19       -6.674367
   20       -6.672106
   21       -6.664734
   22       -6.663508
   23       -6.596951
   24       -6.588069
   25       -4.959935
   26       -4.893888
   27       -4.892266
   28       -4.824065
   29       -3.359605
   30       -3.345629
   31       -3.314484
   32       -3.314166
   33       -3.301086
   34       -3.299170
   35       -3.267229
   36       -3.253098
   37       -3.014646
   38       -2.144047
   39       -2.142317
   40       -1.086830
   41       -1.070728
   42       -1.045866
   43       -1.042620
   44       -1.017082
   45       -0.709129
   46       -0.618546
   47       -0.587182
   48       -0.584079
   49       -0.552603
   50        0.071945
   51        0.073734
   52        0.549374
   53        0.568037
   54        0.572426
   55        0.591735
   56        0.993957
   57        1.393244
   58        1.396613
   59        2.036540
   60        2.039056
   61        2.042234
   62        2.043188
   63        2.738334
   64        2.745169
   65        6.877961
   66        6.880908
   67        7.204319
   68        7.206637
   69        7.208934
   70        7.212456
   71        7.630018
   72        7.633390
   73        9.199694
   74        9.591736
   75        9.595189
   76        9.813141
   77       10.106696
   78       12.070146
   79       12.316840
   80       12.317912
   81       12.321541
   82       12.401376
   83       12.403294
   84       12.707767
 
  0.4444444E+00 -0.5551115E-16  0.0000000E+00  0.6172840E-02
    1      -13.768269
    2      -13.631455
    3      -13.630941
    4      -13.485313
    5      -13.116636
    6      -12.985322
    7      -12.984801
    8      -12.845389
    9      -10.600826
   10      -10.598799
   11      -10.492140
   12      -10.491251
   13      -10.490203
   14      -10.488436
   15      -10.376988
   16      -10.374899
   17       -5.994681
   18       -5.987831
   19       -5.942536
   20       -5.940052
   21       -5.935775
   22       -5.933147
   23       -5.888005
   24       -5.881840
   25       -4.107736
   26       -4.100052
   27       -4.071338
   28       -4.069717
   29       -4.063425
   30       -4.061163
   31       -4.028621
   32       -4.020180
   33       -3.478386
   34       -3.423955
   35       -3.421955
   36       -3.365832
   37       -2.401140
   38       -2.005480
   39       -1.963210
   40       -1.960615
   41       -1.916376
   42       -1.626682
   43       -1.549378
   44       -1.547762
   45       -0.803811
   46       -0.802115
   47       -0.604241
   48       -0.580521
   49       -0.577035
   50       -0.552943
   51       -0.521113
   52       -0.048367
   53       -0.026686
   54       -0.022672
   55       -0.000535
   56        0.183000
   57        1.287028
   58        1.289296
   59        1.962283
   60        1.965199
   61        1.966288
   62        1.967458
   63        2.728610
   64        2.731750
   65        7.161444
   66        7.164314
   67        7.472791
   68        7.473660
   69        7.474668
   70        7.478895
   71        7.798946
   72        7.801527
   73       10.433372
   74       10.825287
   75       11.131019
   76       11.135110
   77       11.220689
   78       11.560924
   79       12.421172
   80       12.468492
   81       12.478481
   82       12.507298
   83       12.596243
   84       12.598695
 
 -0.6776264E-20  0.1111111E+00  0.0000000E+00  0.6172840E-02
    1      -14.866484
    2      -14.720381
    3      -14.719801
    4      -14.563571
    5      -10.403709
    6      -10.298978
    7      -10.298522
    8      -10.189630
    9       -9.865212
   10       -9.856014
   11       -9.775239
   12       -9.774450
   13       -9.765691
   14       -9.764038
   15       -9.683907
   16       -9.673442
   17       -8.235103
   18       -8.231771
   19       -8.164220
   20       -8.163470
   21       -8.158829
   22       -8.158559
   23       -8.082992
   24       -8.078703
   25       -7.719388
   26       -7.637316
   27       -7.636763
   28       -7.550296
   29       -3.725325
   30       -2.834295
   31       -2.832564
   32       -1.934725
   33       -1.918786
   34       -1.904594
   35       -1.901795
   36       -1.888271
   37       -1.886272
   38       -1.871317
   39       -1.855547
   40       -1.748109
   41       -1.636331
   42       -1.608487
   43       -1.607942
   44       -1.580056
   45        1.335158
   46        1.397100
   47        1.409962
   48        1.410613
   49        1.423403
   50        1.532022
   51        1.544020
   52        1.544279
   53        1.556260
   54        1.808741
   55        1.813769
   56        1.915630
   57        1.916574
   58        2.281441
   59        2.283600
   60        2.290537
   61        2.293536
   62        2.485999
   63        2.664727
   64        2.681465
   65        6.280845
   66        6.286950
   67        6.476936
   68        6.479802
   69        6.482615
   70        6.485241
   71        6.569808
   72        6.892216
   73        6.894998
   74        7.016004
   75        7.022011
   76        7.489345
   77        9.101197
   78       11.737881
   79       11.741395
   80       11.931039
   81       12.123225
   82       12.123723
   83       12.224952
   84       12.258384
 
  0.1111111E+00  0.1111111E+00  0.0000000E+00  0.6172840E-02
    1      -14.719157
    2      -14.574285
    3      -14.573714
    4      -14.418895
    5      -10.869505
    6      -10.866519
    7      -10.759519
    8      -10.756946
    9      -10.756926
   10      -10.753491
   11      -10.641439
   12      -10.638387
   13       -9.427153
   14       -9.367358
   15       -9.366294
   16       -9.317032
   17       -8.350731
   18       -8.321667
   19       -8.318023
   20       -8.269801
   21       -7.037011
   22       -7.033721
   23       -6.958522
   24       -6.954885
   25       -6.954864
   26       -6.952052
   27       -6.872807
   28       -6.869591
   29       -3.546690
   30       -2.660595
   31       -2.658866
   32       -2.602679
   33       -2.564496
   34       -2.562605
   35       -2.523693
   36       -1.791177
   37       -1.788767
   38       -1.760769
   39       -1.759739
   40       -1.759733
   41       -1.755477
   42       -1.728989
   43       -1.725967
   44       -1.581404
   45        0.862924
   46        0.876044
   47        0.880996
   48        0.891470
   49        0.900770
   50        0.902009
   51        1.219682
   52        1.228103
   53        1.232810
   54        1.244293
   55        1.555509
   56        1.556870
   57        1.556972
   58        1.560524
   59        2.193584
   60        2.267247
   61        2.269570
   62        2.599011
   63        2.601249
   64        2.869869
   65        6.198017
   66        6.273801
   67        6.279010
   68        6.705016
   69        7.046851
   70        7.049383
   71        7.431674
   72        7.436354
   73        7.436841
   74        7.438625
   75        8.014406
   76        8.017232
   77        9.279296
   78       11.891252
   79       11.894759
   80       12.303299
   81       12.307364
   82       12.494440
   83       12.496819
   84       12.501590
 
  0.2222222E+00  0.1111111E+00  0.0000000E+00  0.6172840E-02
    1      -14.425307
    2      -14.282913
    3      -14.282359
    4      -14.130406
    5      -11.835524
    6      -11.715267
    7      -11.714787
    8      -11.587913
    9      -11.210593
   10      -11.096044
   11      -11.095454
   12      -10.974810
   13       -9.479097
   14       -9.392398
   15       -9.391949
   16       -9.304873
   17       -7.887327
   18       -7.821855
   19       -7.818798
   20       -7.745765
   21       -6.250278
   22       -6.176982
   23       -6.176252
   24       -6.100207
   25       -5.653187
   26       -5.582613
   27       -5.581230
   28       -5.508221
   29       -3.511509
   30       -3.464996
   31       -3.463164
   32       -3.415205
   33       -3.191212
   34       -2.318246
   35       -2.315225
   36       -2.313487
   37       -2.280964
   38       -2.280822
   39       -2.242772
   40       -1.502944
   41       -1.474355
   42       -1.471347
   43       -1.442373
   44       -1.250522
   45       -0.144444
   46       -0.090718
   47       -0.069509
   48       -0.065271
   49       -0.044999
   50        0.563182
   51        0.605235
   52        0.607007
   53        0.674868
   54        0.688579
   55        0.693942
   56        0.709568
   57        1.268452
   58        1.269624
   59        1.477196
   60        2.068977
   61        2.328239
   62        2.801379
   63        2.803553
   64        3.183558
   65        6.168909
   66        6.282638
   67        6.287404
   68        6.649105
   69        7.621899
   70        8.006122
   71        8.008501
   72        8.398714
   73        8.502346
   74        8.804853
   75        8.807965
   76        9.335147
   77        9.636372
   78       12.194648
   79       12.198248
   80       12.431150
   81       12.636583
   82       12.638142
   83       12.680800
   84       13.059151
 
  0.3333333E+00  0.1111111E+00  0.0000000E+00  0.6172840E-02
    1      -13.986470
    2      -13.847801
    3      -13.847274
    4      -13.699556
    5      -12.686622
    6      -12.558887
    7      -12.558380
    8      -12.423124
    9      -11.419665
   10      -11.302991
   11      -11.302391
   12      -11.179672
   13       -9.623297
   14       -9.526284
   15       -9.525977
   16       -9.425256
   17       -7.121782
   18       -7.055612
   19       -7.052725
   20       -6.983696
   21       -5.449309
   22       -5.389146
   23       -5.387698
   24       -5.326084
   25       -4.450127
   26       -4.401916
   27       -4.399897
   28       -4.348775
   29       -4.202723
   30       -4.143332
   31       -4.141718
   32       -4.080803
   33       -3.017739
   34       -2.978096
   35       -2.977324
   36       -2.935281
   37       -2.662540
   38       -1.803177
   39       -1.801396
   40       -1.337903
   41       -1.303348
   42       -1.299737
   43       -1.266120
   44       -1.120334
   45       -1.086318
   46       -1.059276
   47       -1.056151
   48       -1.028817
   49       -0.761252
   50       -0.318567
   51       -0.316887
   52        0.049272
   53        0.069139
   54        0.073877
   55        0.094636
   56        0.352882
   57        0.636572
   58        1.084177
   59        1.085429
   60        1.932464
   61        2.324952
   62        2.892004
   63        2.893803
   64        3.461075
   65        6.151623
   66        6.402292
   67        6.406064
   68        6.749474
   69        8.130762
   70        8.461637
   71        8.463740
   72        8.827741
   73        9.965455
   74       10.170703
   75       10.312128
   76       10.314948
   77       10.754922
   78       11.743984
   79       12.590162
   80       12.596175
   81       12.707230
   82       12.814090
   83       12.815866
   84       13.064481
 
  0.4444444E+00  0.1111111E+00  0.0000000E+00  0.6172840E-02
    1      -13.407162
    2      -13.404206
    3      -13.274323
    4      -13.272276
    5      -13.271327
    6      -13.268591
    7      -13.130693
    8      -13.127678
    9      -11.490233
   10      -11.373101
   11      -11.372492
   12      -11.249058
   13       -9.678149
   14       -9.579160
   15       -9.578736
   16       -9.475585
   17       -6.610591
   18       -6.568250
   19       -6.565542
   20       -6.525384
   21       -4.974093
   22       -4.970798
   23       -4.946111
   24       -4.944111
   25       -4.938940
   26       -4.935606
   27       -4.911563
   28       -4.902555
   29       -3.432569
   30       -3.409667
   31       -3.407008
   32       -3.379075
   33       -2.743630
   34       -2.739477
   35       -2.697843
   36       -2.693330
   37       -2.691371
   38       -2.691296
   39       -2.645859
   40       -2.642307
   41       -1.969379
   42       -1.966884
   43       -1.133713
   44       -1.131761
   45       -1.130930
   46       -1.127838
   47       -0.559803
   48       -0.555443
   49       -0.534257
   50       -0.534081
   51       -0.531879
   52       -0.524980
   53       -0.507433
   54       -0.500152
   55       -0.126521
   56       -0.123734
   57        0.280810
   58        1.020327
   59        1.021641
   60        1.883373
   61        2.313081
   62        2.915769
   63        2.917082
   64        3.565728
   65        6.156472
   66        6.469977
   67        6.472607
   68        6.804368
   69        8.350578
   70        8.639107
   71        8.641418
   72        8.928719
   73       10.877544
   74       10.879261
   75       11.560309
   76       11.563658
   77       11.801907
   78       11.808456
   79       11.809253
   80       11.812669
   81       12.166853
   82       12.170681
   83       12.936443
   84       12.944529
 
 -0.4444444E+00  0.1111111E+00  0.0000000E+00  0.6172840E-02
    1      -13.987214
    2      -13.848550
    3      -13.848008
    4      -13.700295
    5      -12.685440
    6      -12.557705
    7      -12.557213
    8      -12.421938
    9      -11.421431
   10      -11.304803
   11      -11.304198
   12      -11.181464
   13       -9.620383
   14       -9.523229
   15       -9.522752
   16       -9.421937
   17       -7.115226
   18       -7.048149
   19       -7.047010
   20       -6.977215
   21       -5.459188
   22       -5.399523
   23       -5.396559
   24       -5.335392
   25       -4.460619
   26       -4.411798
   27       -4.411452
   28       -4.359647
   29       -4.205270
   30       -4.146077
   31       -4.144105
   32       -4.083391
   33       -3.005104
   34       -2.966129
   35       -2.963553
   36       -2.922239
   37       -2.663349
   38       -1.803966
   39       -1.802208
   40       -1.336413
   41       -1.301324
   42       -1.299101
   43       -1.264901
   44       -1.119136
   45       -1.083725
   46       -1.056990
   47       -1.053413
   48       -1.026271
   49       -0.762049
   50       -0.317432
   51       -0.315684
   52        0.047784
   53        0.068132
   54        0.071409
   55        0.092407
   56        0.351138
   57        0.637692
   58        1.082013
   59        1.083379
   60        1.929688
   61        2.326555
   62        2.896110
   63        2.896946
   64        3.468867
   65        6.149981
   66        6.404179
   67        6.406224
   68        6.749791
   69        8.126723
   70        8.457583
   71        8.460653
   72        8.826271
   73        9.965407
   74       10.169605
   75       10.311035
   76       10.314101
   77       10.753165
   78       11.745614
   79       12.589685
   80       12.595643
   81       12.704605
   82       12.811492
   83       12.814095
   84       13.059607
 
 -0.3333333E+00  0.1111111E+00  0.0000000E+00  0.6172840E-02
    1      -14.425828
    2      -14.283446
    3      -14.282882
    4      -14.130927
    5      -11.834132
    6      -11.713871
    7      -11.713397
    8      -11.586521
    9      -11.214169
   10      -11.099658
   11      -11.099082
   12      -10.978454
   13       -9.472623
   14       -9.385331
   15       -9.384852
   16       -9.297031
   17       -7.883156
   18       -7.815924
   19       -7.815311
   20       -7.740681
   21       -6.260134
   22       -6.187616
   23       -6.185138
   24       -6.109841
   25       -5.655676
   26       -5.585210
   27       -5.583628
   28       -5.510744
   29       -3.525281
   30       -3.478076
   31       -3.477742
   32       -3.429070
   33       -3.191799
   34       -2.315818
   35       -2.314112
   36       -2.302163
   37       -2.265965
   38       -2.263737
   39       -2.226633
   40       -1.500988
   41       -1.472511
   42       -1.469296
   43       -1.440431
   44       -1.251104
   45       -0.143156
   46       -0.091598
   47       -0.069686
   48       -0.068178
   49       -0.046860
   50        0.559861
   51        0.606446
   52        0.608269
   53        0.676887
   54        0.691209
   55        0.694024
   56        0.709311
   57        1.264198
   58        1.265615
   59        1.478324
   60        2.063311
   61        2.330466
   62        2.808964
   63        2.809431
   64        3.197936
   65        6.164124
   66        6.285452
   67        6.287738
   68        6.652191
   69        7.617353
   70        7.999926
   71        8.003712
   72        8.398215
   73        8.498358
   74        8.803444
   75        8.806880
   76        9.333243
   77        9.635566
   78       12.193754
   79       12.197334
   80       12.429536
   81       12.634479
   82       12.636532
   83       12.680829
   84       13.058404
 
 -0.2222222E+00  0.1111111E+00  0.0000000E+00  0.6172840E-02
    1      -14.719449
    2      -14.574611
    3      -14.574034
    4      -14.419220
    5      -10.873421
    6      -10.866390
    7      -10.762511
    8      -10.762010
    9      -10.755407
   10      -10.754876
   11      -10.645596
   12      -10.638397
   13       -9.416232
   14       -9.354932
   15       -9.354491
   16       -9.303633
   17       -8.350963
   18       -8.319566
   19       -8.319114
   20       -8.268597
   21       -7.042950
   22       -7.037994
   23       -6.963841
   24       -6.961517
   25       -6.958459
   26       -6.957034
   27       -6.878862
   28       -6.873999
   29       -3.547044
   30       -2.660947
   31       -2.659225
   32       -2.618166
   33       -2.579316
   34       -2.578845
   35       -2.539249
   36       -1.788062
   37       -1.773341
   38       -1.758540
   39       -1.755521
   40       -1.743426
   41       -1.741284
   42       -1.725665
   43       -1.711102
   44       -1.581720
   45        0.857374
   46        0.870480
   47        0.871078
   48        0.883298
   49        0.896329
   50        0.903101
   51        1.228060
   52        1.237911
   53        1.238235
   54        1.249111
   55        1.550226
   56        1.551730
   57        1.557930
   58        1.560220
   59        2.195908
   60        2.259160
   61        2.269745
   62        2.608463
   63        2.608935
   64        2.887755
   65        6.191373
   66        6.277215
   67        6.279877
   68        6.711228
   69        7.046300
   70        7.046807
   71        7.428491
   72        7.432251
   73        7.432805
   74        7.436202
   75        8.010904
   76        8.013199
   77        9.278795
   78       11.890626
   79       11.894129
   80       12.304464
   81       12.337595
   82       12.495607
   83       12.498241
   84       12.530011
 
 -0.1111111E+00  0.1111111E+00  0.0000000E+00  0.6172840E-02
    1      -14.866591
    2      -14.720487
    3      -14.719905
    4      -14.563675
    5      -10.411265
    6      -10.306645
    7      -10.306302
    8      -10.197580
    9       -9.856017
   10       -9.853745
   11       -9.765822
   12       -9.764283
   13       -9.764265
   14       -9.761214
   15       -9.673622
   16       -9.671307
   17       -8.234107
   18       -8.232169
   19       -8.163044
   20       -8.160397
   21       -8.160383
   22       -8.159274
   23       -8.081218
   24       -8.079388
   25       -7.725066
   26       -7.643960
   27       -7.641528
   28       -7.556121
   29       -3.725444
   30       -2.834413
   31       -2.832683
   32       -1.935992
   33       -1.933822
   34       -1.904932
   35       -1.904197
   36       -1.904190
   37       -1.900127
   38       -1.872907
   39       -1.870158
   40       -1.748227
   41       -1.619164
   42       -1.591968
   43       -1.589898
   44       -1.562744
   45        1.329880
   46        1.386345
   47        1.397863
   48        1.402845
   49        1.415866
   50        1.539909
   51        1.551982
   52        1.556150
   53        1.566646
   54        1.812849
   55        1.815007
   56        1.907541
   57        1.909219
   58        2.290456
   59        2.291049
   60        2.291174
   61        2.295095
   62        2.473829
   63        2.680015
   64        2.681966
   65        6.280704
   66        6.283073
   67        6.477736
   68        6.483304
   69        6.483578
   70        6.485394
   71        6.570291
   72        6.886545
   73        6.891260
   74        7.020153
   75        7.023246
   76        7.482992
   77        9.101026
   78       11.737657
   79       11.741171
   80       11.964400
   81       12.156243
   82       12.157360
   83       12.222306
   84       12.226089
 
 -0.1355253E-19  0.2222222E+00  0.0000000E+00  0.6172840E-02
    1      -14.645701
    2      -14.501477
    3      -14.500900
    4      -14.346809
    5      -11.415744
    6      -11.299085
    7      -11.298573
    8      -11.176026
    9      -10.212602
   10      -10.206264
   11      -10.110334
   12      -10.109457
   13      -10.103789
   14      -10.102072
   15      -10.002663
   16       -9.995885
   17       -7.555469
   18       -7.548669
   19       -7.476566
   20       -7.475705
   21       -7.468438
   22       -7.468192
   23       -7.391684
   24       -7.384595
   25       -6.393368
   26       -6.316599
   27       -6.316082
   28       -6.236359
   29       -3.457768
   30       -2.574146
   31       -2.572429
   32       -2.542158
   33       -2.527129
   34       -2.504880
   35       -2.502326
   36       -2.489366
   37       -2.487670
   38       -2.463823
   39       -2.448944
   40       -1.498479
   41       -1.421127
   42       -1.393917
   43       -1.393427
   44       -1.366055
   45        0.313387
   46        0.569816
   47        0.591431
   48        0.591867
   49        0.613731
   50        1.025643
   51        1.026940
   52        1.111266
   53        1.127801
   54        1.128176
   55        1.144749
   56        1.585820
   57        1.590973
   58        1.833707
   59        2.160542
   60        2.162628
   61        2.167935
   62        2.170784
   63        2.727716
   64        2.739903
   65        6.523229
   66        6.526114
   67        6.811470
   68        6.813761
   69        6.817689
   70        6.819922
   71        7.323250
   72        7.328252
   73        7.694785
   74        8.115063
   75        8.117683
   76        8.701238
   77        9.367997
   78       11.964795
   79       11.968295
   80       12.047691
   81       12.233154
   82       12.233604
   83       12.402818
   84       13.072759
 
  0.1111111E+00  0.2222222E+00  0.0000000E+00  0.6172840E-02
    1      -14.425302
    2      -14.282911
    3      -14.282350
    4      -14.130400
    5      -11.835485
    6      -11.715256
    7      -11.714719
    8      -11.587874
    9      -11.210621
   10      -11.096049
   11      -11.095503
   12      -10.974836
   13       -9.479086
   14       -9.392378
   15       -9.391947
   16       -9.304861
   17       -7.887395
   18       -7.821855
   19       -7.818963
   20       -7.745864
   21       -6.251303
   22       -6.178295
   23       -6.176956
   24       -6.101203
   25       -5.652166
   26       -5.581256
   27       -5.580579
   28       -5.507230
   29       -3.511415
   30       -3.464837
   31       -3.463164
   32       -3.415137
   33       -3.191227
   34       -2.317017
   35       -2.315233
   36       -2.313508
   37       -2.280928
   38       -2.278221
   39       -2.241343
   40       -1.504187
   41       -1.474365
   42       -1.474096
   43       -1.443938
   44       -1.250543
   45       -0.144801
   46       -0.089087
   47       -0.067492
   48       -0.065270
   49       -0.044319