       N       E                     dE             d eps       ncg     rms          rms(c)
DAV:   1     0.592129029733E+03    0.59213E+03   -0.71765E+04 27384   0.160E+03
DAV:   2    -0.263098676136E+03   -0.85523E+03   -0.82408E+03 33972   0.311E+02
DAV:   3    -0.312644506211E+03   -0.49546E+02   -0.49067E+02 33288   0.753E+01
DAV:   4    -0.313583259784E+03   -0.93875E+00   -0.93691E+00 34884   0.112E+01
DAV:   5    -0.313610151096E+03   -0.26891E-01   -0.26880E-01 34968   0.178E+00    0.221E+01
DAV:   6    -0.299164331400E+03    0.14446E+02   -0.14907E+01 31296   0.107E+01    0.116E+01
DAV:   7    -0.294591448777E+03    0.45729E+01   -0.15624E+01 30960   0.110E+01    0.193E+00
DAV:   8    -0.294654239631E+03   -0.62791E-01   -0.40247E-01 30900   0.184E+00    0.325E-01
DAV:   9    -0.294655498255E+03   -0.12586E-02   -0.26418E-02 32724   0.510E-01    0.152E-01
DAV:  10    -0.294655828034E+03   -0.32978E-03   -0.37990E-03 32364   0.208E-01    0.991E-02
DAV:  11    -0.294656477689E+03   -0.64965E-03   -0.39597E-03 35028   0.161E-01    0.761E-02
DAV:  12    -0.294656714871E+03   -0.23718E-03   -0.87654E-04 31020   0.967E-02    0.513E-02
DAV:  13    -0.294656753016E+03   -0.38146E-04   -0.25076E-03 41712   0.121E-01    0.470E-02
DAV:  14    -0.294656705810E+03    0.47206E-04   -0.83906E-04 33624   0.787E-02    0.209E-02
DAV:  15    -0.294656701207E+03    0.46029E-05   -0.42279E-05 31260   0.227E-02    0.155E-02
DAV:  16    -0.294656712446E+03   -0.11239E-04   -0.28371E-04 36108   0.238E-02    0.237E-02
DAV:  17    -0.294656705223E+03    0.72229E-05   -0.11658E-05 31248   0.103E-02    0.200E-02
DAV:  18    -0.294656699520E+03    0.57030E-05   -0.10090E-05 21012   0.730E-03    0.121E-02
DAV:  19    -0.294656701899E+03   -0.23792E-05   -0.83595E-05 24624   0.107E-02    0.168E-02
DAV:  20    -0.294656699310E+03    0.25890E-05   -0.47886E-06 19248   0.533E-03    0.117E-02
DAV:  21    -0.294656703279E+03   -0.39689E-05   -0.10555E-04 23772   0.110E-02    0.189E-02
DAV:  22    -0.294656700550E+03    0.27287E-05   -0.26826E-06 18636   0.452E-03    0.164E-02
DAV:  23    -0.294656698381E+03    0.21692E-05   -0.56278E-06 18516   0.333E-03    0.740E-03
DAV:  24    -0.294656698222E+03    0.15892E-06   -0.94189E-07 18384   0.184E-03
   1 F= -.29966966E+03 E0= -.29966966E+03  d E =0.000000E+00
