   16   16    1    1
  0.5951728E+01  0.5125773E-09  0.5125773E-09  0.5125773E-09  0.5000000E-15
  1.000000000000000E-004
  CAR 
 diamond                                 
     64     72     41
 
  0.0000000E+00  0.0000000E+00  0.0000000E+00  0.6944444E-02
    1      -11.769403
    2       -6.277961
    3       -6.266117
    4       -6.266064
    5       -6.254814
    6       -3.792509
    7       -3.781554
    8       -3.781426
    9       -3.771306
   10       -3.379854
   11       -3.365695
   12       -3.361324
   13       -3.361226
   14       -3.356758
   15       -3.341576
   16        3.046187
   17        3.056363
   18        3.057085
   19        3.057152
   20        3.057866
   21        3.067907
   22        6.360413
   23        6.382598
   24        6.389602
   25        6.390145
   26        6.392678
   27        6.393205
   28        6.400420
   29        6.422286
   30        9.050971
   31        9.069100
   32        9.087652
   33       13.707079
   34       13.718836
   35       13.727683
   36       13.727842
   37       13.736254
   38       13.746912
   39       14.510793
   40       14.527042
   41       14.543544
 
  0.1666667E+00 -0.1387779E-16 -0.3469447E-16  0.1388889E-01
    1      -11.583457
    2       -7.354825
    3       -6.299386
    4       -6.292771
    5       -6.283936
    6       -4.531241
    7       -4.524024
    8       -4.516734
    9       -3.435665
   10       -3.426015
   11       -3.422939
   12       -2.382908
   13       -2.013381
   14       -2.005512
   15       -1.998143
   16        2.531772
   17        2.535013
   18        2.544875
   19        3.210770
   20        3.218158
   21        3.218867
   22        5.752566
   23        5.758089
   24        5.780918
   25        6.045649
   26        6.055942
   27        6.060677
   28        6.499693
   29        6.513164
   30        7.901736
   31        8.748376
   32        8.764403
   33       13.723394
   34       13.728747
   35       13.739633
   36       14.826361
   37       14.838673
   38       14.846227
   39       14.927393
   40       14.942962
   41       15.174892
 
  0.3333333E+00 -0.5551115E-16 -0.6938894E-16  0.1388889E-01
    1      -11.028178
    2       -8.860113
    3       -6.254259
    4       -6.247477
    5       -6.239641
    6       -5.409097
    7       -5.402205
    8       -5.394813
    9       -2.526927
   10       -2.517682
   11       -2.514197
   12       -0.925476
   13       -0.916328
   14       -0.911779
   15        0.022255
   16        1.770341
   17        1.773171
   18        1.785848
   19        3.680304
   20        3.688605
   21        3.688879
   22        4.253618
   23        4.259132
   24        4.278170
   25        5.271953
   26        5.281522
   27        5.284199
   28        5.452590
   29        6.844166
   30        6.858091
   31        8.084140
   32        8.098699
   33       14.201191
   34       14.205174
   35       14.216344
   36       15.798049
   37       15.813985
   38       15.965035
   39       15.969654
   40       15.981117
   41       16.146208
 
  0.5000000E+00 -0.2775558E-16 -0.8326673E-16  0.6944444E-02
    1      -10.120375
    2      -10.104733
    3       -5.989731
    4       -5.975291
    5       -5.974228
    6       -5.971430
    7       -5.969859
    8       -5.953645
    9       -1.400609
   10       -1.382686
   11       -1.380544
   12       -1.375896
   13       -1.375385
   14       -1.370573
   15        2.576628
   16        2.579418
   17        2.579715
   18        2.584178
   19        2.589751
   20        2.614247
   21        2.699226
   22        2.722427
   23        4.389479
   24        4.405645
   25        4.413096
   26        4.419150
   27        4.423376
   28        4.424607
   29        7.377749
   30        7.404931
   31        7.410453
   32        7.411320
   33       14.973736
   34       14.979346
   35       14.997831
   36       14.999545
   37       15.000271
   38       15.003739
   39       16.622566
   40       16.636320
   41       16.650995
 
  0.0000000E+00  0.1666667E+00 -0.6938894E-17  0.1388889E-01
    1      -11.583456
    2       -7.353867
    3       -6.302047
    4       -6.292811
    5       -6.283894
    6       -4.535051
    7       -4.524190
    8       -4.513468
    9       -3.435650
   10       -3.425849
   11       -3.416149
   12       -2.388140
   13       -2.016202
   14       -2.004866
   15       -1.993148
   16        2.527651
   17        2.533531
   18        2.539318
   19        3.212068
   20        3.218880
   21        3.225816
   22        5.747506
   23        5.754837
   24        5.761537
   25        6.053118
   26        6.061557
   27        6.070546
   28        6.496988
   29        6.520784
   30        7.888775
   31        8.749804
   32        8.777941
   33       13.722697
   34       13.733442
   35       13.743530
   36       14.824626
   37       14.835857
   38       14.844639
   39       14.915061
   40       14.941193
   41       15.185963
 
  0.1666667E+00  0.1666667E+00 -0.4163336E-16  0.1388889E-01
    1      -11.521522
    2       -6.715306
    3       -6.704775
    4       -6.701667
    5       -6.691613
    6       -5.794538
    7       -3.226659
    8       -3.214783
    9       -3.214716
   10       -3.204053
   11       -2.924628
   12       -2.915299
   13       -2.911918
   14       -2.901416
   15       -0.699733
   16        2.559219
   17        2.563940
   18        2.567898
   19        2.572531
   20        3.292292
   21        3.300846
   22        5.542368
   23        5.551912
   24        5.560251
   25        5.569500
   26        6.322082
   27        6.339044
   28        6.341732
   29        6.359028
   30        8.198817
   31        8.218520
   32        8.452500
   33       13.185582
   34       14.331219
   35       14.679286
   36       14.692872
   37       14.696581
   38       14.708905
   39       14.850187
   40       15.586721
   41       15.604033
 
  0.3333333E+00  0.1666667E+00 -0.8326673E-16  0.1388889E-01
    1      -11.089414
    2       -8.220541
    3       -6.898792
    4       -6.888964
    5       -6.778282
    6       -5.854387
    7       -4.196986
    8       -4.186475
    9       -2.993236
   10       -1.994544
   11       -1.984086
   12       -1.910172
   13       -1.900685
   14       -0.697078
   15        0.564761
   16        1.429487
   17        1.438061
   18        2.946321
   19        2.952815
   20        3.147587
   21        3.684415
   22        3.800653
   23        4.534420
   24        4.543411
   25        5.611948
   26        5.636917
   27        5.807668
   28        5.822929
   29        6.286068
   30        6.833106
   31        7.437451
   32        8.144235
   33       13.553905
   34       14.608702
   35       14.969944
   36       14.982109
   37       16.142090
   38       16.385097
   39       16.592511
   40       16.622345
   41       16.927951
 
  0.5000000E+00  0.1666667E+00 -0.8326673E-16  0.1388889E-01
    1      -10.293827
    2       -9.569356
    3       -7.434439
    4       -6.790534
    5       -6.780816
    6       -4.964426
    7       -4.913398
    8       -4.902478
    9       -2.567222
   10       -1.690157
   11       -1.680388
   12       -0.842456
   13       -0.832370
   14        0.677732
   15        1.441105
   16        1.454496
   17        1.864311
   18        1.892188
   19        3.300921
   20        3.309566
   21        3.546402
   22        3.655693
   23        3.663165
   24        3.679380
   25        4.351174
   26        4.697730
   27        4.709517
   28        4.771119
   29        5.931522
   30        6.748425
   31        7.494191
   32        7.514543
   33       14.471147
   34       15.419217
   35       15.451936
   36       15.574163
   37       15.586815
   38       15.957778
   39       15.970912
   40       16.618448
   41       17.332371
 
 -0.3333333E+00  0.1666667E+00  0.8326673E-16  0.1388889E-01
    1      -10.598891
    2       -9.151717
    3       -7.746449
    4       -6.356635
    5       -6.346880
    6       -5.412488
    7       -5.401187
    8       -4.109538
    9       -2.627306
   10       -2.617075
   11       -2.113954
   12       -0.383703
   13       -0.025620
   14       -0.014883
   15        0.568069
   16        0.997913
   17        2.387404
   18        2.393578
   19        2.907826
   20        2.925281
   21        3.635980
   22        3.644522
   23        3.997970
   24        4.574264
   25        4.603950
   26        4.612967
   27        4.949892
   28        5.197558
   29        6.262427
   30        6.505426
   31        6.798300
   32        8.211830
   33       14.656071
   34       15.028792
   35       15.041744
   36       15.554565
   37       15.768650
   38       16.167004
   39       16.395045
   40       16.409498
   41       16.789705
 
 -0.1666667E+00  0.1666667E+00  0.4370361E-16  0.1388889E-01
    1      -11.274418
    2       -7.722049
    3       -7.708078
    4       -5.830518
    5       -5.818960
    6       -5.595571
    7       -5.585505
    8       -3.353163
    9       -3.342364
   10       -3.305917
   11       -2.908876
   12       -1.511530
   13       -1.497040
   14       -0.713432
   15       -0.702568
   16        1.203481
   17        2.717305
   18        2.719829
   19        2.984743
   20        2.997374
   21        3.457813
   22        4.530038
   23        4.547859
   24        5.555193
   25        5.564411
   26        6.016096
   27        6.036606
   28        6.184304
   29        6.194717
   30        6.905842
   31        7.416132
   32        8.744155
   33       14.124375
   34       14.180960
   35       14.194297
   36       15.034575
   37       15.733061
   38       15.754589
   39       15.761974
   40       16.081557
   41       16.648164
 
  0.0000000E+00  0.3333333E+00  0.0000000E+00  0.1388889E-01
    1      -11.028161
    2       -8.859932
    3       -6.257638
    4       -6.247649
    5       -6.238085
    6       -5.412860
    7       -5.402445
    8       -5.391871
    9       -2.527751
   10       -2.516995
   11       -2.506426
   12       -0.925845
   13       -0.913918
   14       -0.902025
   15        0.017227
   16        1.762764
   17        1.769328
   18        1.775861
   19        3.682336
   20        3.689472
   21        3.696510
   22        4.246942
   23        4.255917
   24        4.264640
   25        5.276698
   26        5.285007
   27        5.292751
   28        5.444553
   29        6.842065
   30        6.865932
   31        8.083991
   32        8.109623
   33       14.200956
   34       14.211278
   35       14.220976
   36       15.787770
   37       15.815708
   38       15.967687
   39       15.976929
   40       15.988131
   41       16.151877
 
  0.1666667E+00  0.3333333E+00 -0.2775558E-16  0.1388889E-01
    1      -11.089405
    2       -8.220256
    3       -6.898869
    4       -6.888961
    5       -6.778403
    6       -5.856963
    7       -4.197490
    8       -4.186822
    9       -2.986301
   10       -1.995249
   11       -1.983889
   12       -1.907755
   13       -1.897808
   14       -0.701964
   15        0.569056
   16        1.425270
   17        1.431370
   18        2.949542
   19        2.957284
   20        3.142615
   21        3.684845
   22        3.793772
   23        4.529301
   24        4.539142
   25        5.618980
   26        5.639557
   27        5.809381
   28        5.831052
   29        6.275007
   30        6.829545
   31        7.436204
   32        8.159339
   33       13.555459
   34       14.603653
   35       14.974424
   36       14.987973
   37       16.140732
   38       16.386273
   39       16.591974
   40       16.626926
   41       16.926660
 
  0.3333333E+00  0.3333333E+00 -0.5551115E-16  0.1388889E-01
    1      -10.781546
    2       -7.885338
    3       -7.266856
    4       -7.257305
    5       -7.252824
    6       -7.243274
    7       -2.876585
    8       -2.864806
    9       -2.864516
   10       -2.853167
   11       -1.125429
   12       -1.115469
   13       -1.110819
   14       -1.100701
   15        1.623395
   16        1.627592
   17        1.631850
   18        1.636032
   19        2.023717
   20        3.596526
   21        3.605806
   22        3.612125
   23        3.621365
   24        4.000073
   25        4.009379
   26        6.223200
   27        6.240640
   28        6.243141
   29        6.259794
   30        6.620254
   31        6.634068
   32        6.838001
   33       13.114550
   34       13.872212
   35       16.629852
   36       16.860292
   37       16.869126
   38       16.876225
   39       16.886109
   40       17.053327
   41       17.073825
 
  0.5000000E+00  0.3333333E+00 -0.5551115E-16  0.1388889E-01
    1      -10.109259
    2       -8.676332
    3       -8.660964
    4       -7.295312
    5       -7.285810
    6       -6.015972
    7       -3.727069
    8       -3.715749
    9       -1.971926
   10       -1.963390
   11       -1.239832
   12       -0.053584
   13       -0.042941
   14        0.802325
   15        0.810458
   16        1.297092
   17        1.485763
   18        2.319917
   19        2.328071
   20        2.536488
   21        2.544712
   22        2.788731
   23        3.746685
   24        4.522263
   25        4.564389
   26        4.600975
   27        5.390955
   28        5.678712
   29        5.697456
   30        5.902417
   31        6.469362
   32        6.989316
   33       13.706730
   34       14.117268
   35       16.051024
   36       17.270031
   37       17.404599
   38       17.415295
   39       17.446308
   40       17.460482
   41       17.491165
 
 -0.3333333E+00  0.3333333E+00  0.8586253E-16  0.1388889E-01
    1       -9.808820
    2       -9.092606
    3       -9.078610
    4       -6.993138
    5       -6.983564
    6       -4.649182
    7       -4.541931
    8       -4.529957
    9       -2.260187
   10       -2.250196
   11       -1.573807
   12        0.128614
   13        0.574998
   14        0.586829
   15        1.536312
   16        1.550045
   17        2.069766
   18        2.074265
   19        2.081376
   20        2.090856
   21        3.421372
   22        3.429681
   23        3.540168
   24        4.473775
   25        4.481723
   26        4.500920
   27        4.593005
   28        5.400263
   29        5.420834
   30        5.746251
   31        5.759953
   32        7.742665
   33       14.903881
   34       14.913670
   35       15.258530
   36       16.484583
   37       16.516027
   38       16.532149
   39       17.341412
   40       17.672348
   41       17.714971
 
 -0.1666667E+00  0.3333333E+00  0.4163336E-16  0.1388889E-01
    1      -10.598862
    2       -9.151621
    3       -7.746864
    4       -6.356736
    5       -6.346937
    6       -5.412676
    7       -5.401173
    8       -4.112391
    9       -2.626801
   10       -2.616425
   11       -2.106334
   12       -0.377555
   13       -0.023358
   14       -0.012340
   15        0.562689
   16        0.992162
   17        2.379140
   18        2.384975
   19        2.906394
   20        2.920319
   21        3.638775
   22        3.654412
   23        3.998448
   24        4.566304
   25        4.608318
   26        4.615158
   27        4.940508
   28        5.199667
   29        6.259454
   30        6.513625
   31        6.809244
   32        8.210222
   33       14.656637
   34       15.031941
   35       15.045602
   36       15.556925
   37       15.772415
   38       16.163050
   39       16.400305
   40       16.416617
   41       16.785328
 
  0.0000000E+00  0.5000000E+00  0.2775558E-16  0.1388889E-01
    1      -10.112610
    2      -10.112442
    3       -5.995050
    4       -5.977191
    5       -5.972818
    6       -5.972802
    7       -5.968445
    8       -5.950793
    9       -1.399970
   10       -1.382834
   11       -1.377257
   12       -1.377234
   13       -1.371703
   14       -1.354754
   15        2.565099
   16        2.577293
   17        2.580760
   18        2.580840
   19        2.583934
   20        2.595137
   21        2.701353
   22        2.702540
   23        4.402337
   24        4.416643
   25        4.416871
   26        4.416938
   27        4.417212
   28        4.431790
   29        7.379855
   30        7.403826
   31        7.405704
   32        7.430373
   33       14.975807
   34       14.994784
   35       14.996863
   36       14.996914
   37       14.998445
   38       15.015833
   39       16.606663
   40       16.634614
   41       16.645090
 
  0.1666667E+00  0.5000000E+00 -0.2775558E-16  0.2777778E-01
    1      -10.293728
    2       -9.569400
    3       -7.434712
    4       -6.790642
    5       -6.780861
    6       -4.967081
    7       -4.913684
    8       -4.903286
    9       -2.558858
   10       -1.688003
   11       -1.678145
   12       -0.841215
   13       -0.831106
   14        0.685797
   15        1.437860
   16        1.447393
   17        1.859445
   18        1.884763
   19        3.293376
   20        3.302453
   21        3.536736
   22        3.658475
   23        3.665280
   24        3.673044
   25        4.352521
   26        4.700482
   27        4.719753
   28        4.771963
   29        5.939614
   30        6.746287
   31        7.492248
   32        7.526337
   33       14.473384
   34       15.413012
   35       15.453022
   36       15.580155
   37       15.592911
   38       15.964064
   39       15.976660
   40       16.627016
   41       17.284618
 
  0.3333333E+00  0.5000000E+00 -0.1110223E-15  0.2777778E-01
    1      -10.109214
    2       -8.679690
    3       -8.657609
    4       -7.295336
    5       -7.285815
    6       -6.016639
    7       -3.727608
    8       -3.716100
    9       -1.970385
   10       -1.961792
   11       -1.234639
   12       -0.052924
   13       -0.042262
   14        0.800190
   15        0.806209
   16        1.292447
   17        1.480258
   18        2.322817
   19        2.329814
   20        2.534285
   21        2.543187
   22        2.797885
   23        3.752386
   24        4.513717
   25        4.551975
   26        4.601630
   27        5.391519
   28        5.679179
   29        5.698685
   30        5.901671
   31        6.483009
   32        6.987879
   33       13.708594
   34       14.114691
   35       16.051363
   36       17.269857
   37       17.415418
   38       17.427190
   39       17.450005
   40       17.469122
   41       17.532112
 
  0.5000000E+00  0.5000000E+00 -0.5551115E-16  0.1388889E-01
    1       -9.568467
    2       -9.554516
    3       -7.473381
    4       -7.463949
    5       -7.459202
    6       -7.449875
    7       -2.657642
    8       -2.645707
    9       -2.645073
   10       -2.633565
   11        0.590639
   12        0.602789
   13        0.602964
   14        0.614629
   15        1.148780
   16        1.152980
   17        1.156619
   18        1.160603
   19        1.784087
   20        1.789679
   21        1.792305
   22        1.797692
   23        4.605071
   24        4.607986
   25        5.128557
   26        5.139349
   27        5.149282
   28        5.160138
   29        6.176547
   30        6.193157
   31        6.195567
   32        6.213043
   33       13.391071
   34       13.398474
   35       16.731314
   36       16.742117
   37       16.746709
   38       16.757170
   39       18.734017
   40       18.744292
   41       18.756930
 
  0.0000000E+00  0.0000000E+00  0.2500000E+00  0.1388889E-01
    1      -11.351618
    2       -8.126646
    3       -6.301095
    4       -6.291454
    5       -6.282158
    6       -5.011861
    7       -5.001229
    8       -4.990579
    9       -3.033521
   10       -3.023211
   11       -3.013052
   12       -1.365952
   13       -1.353895
   14       -1.342515
   15       -1.236464
   16        2.061788
   17        2.068145
   18        2.074442
   19        3.410839
   20        3.417773
   21        3.424760
   22        5.060789
   23        5.069144
   24        5.077062
   25        5.696904
   26        5.705192
   27        5.713675
   28        6.641734
   29        6.665503
   30        6.740961
   31        8.436900
   32        8.463658
   33       13.918142
   34       13.928569
   35       13.938385
   36       15.327815
   37       15.354526
   38       15.698327
   39       15.886831
   40       15.897116
   41       15.908779
 
  0.1666667E+00 -0.1387779E-16  0.2500000E+00  0.1388889E-01
    1      -11.351489
    2       -7.458400
    3       -6.837286
    4       -6.827181
    5       -6.326177
    6       -6.296924
    7       -3.741276
    8       -3.730671
    9       -3.008934
   10       -2.532713
   11       -2.521224
   12       -2.494533
   13       -2.488137
   14       -1.883318
   15       -0.024306
   16        1.977223
   17        1.983547
   18        2.713590
   19        2.721602
   20        3.294293
   21        3.450840
   22        4.732969
   23        5.087817
   24        5.097441
   25        5.559650
   26        6.030465
   27        6.187193
   28        6.208463
   29        6.555408
   30        7.408259
   31        7.821664
   32        8.344971
   33       13.256894
   34       14.360460
   35       14.787077
   36       14.800779
   37       15.350873
   38       15.696597
   39       15.709704
   40       16.092762
   41       16.101641
 
  0.3333333E+00 -0.5551115E-16  0.2500000E+00  0.1388889E-01
    1      -10.981474
    2       -7.776670
    3       -7.371420
    4       -7.117866
    5       -7.108151
    6       -6.496937
    7       -3.530940
    8       -3.520268
    9       -2.401822
   10       -2.391372
   11       -2.179331
   12       -1.593810
   13       -1.584038
   14       -0.941835
   15        1.310213
   16        1.463472
   17        1.471087
   18        2.302598
   19        2.309679
   20        3.667019
   21        3.682496
   22        3.803723
   23        4.124472
   24        4.133649
   25        4.662010
   26        5.908774
   27        6.129038
   28        6.147167
   29        6.578975
   30        6.588913
   31        7.029209
   32        7.585693
   33       13.225343
   34       14.131399
   35       15.893356
   36       15.906277
   37       16.234580
   38       16.622287
   39       16.972425
   40       17.007074
   41       17.132798
 
  0.5000000E+00 -0.2775558E-16  0.2500000E+00  0.1388889E-01
    1      -10.247243
    2       -9.165379
    3       -8.085549
    4       -7.083634
    5       -7.074044
    6       -5.325138
    7       -4.323970
    8       -4.312881
    9       -2.121374
   10       -1.806590
   11       -1.797464
   12       -0.472476
   13       -0.462189
   14        1.021778
   15        1.033254
   16        1.566136
   17        1.627219
   18        1.745162
   19        3.007357
   20        3.019623
   21        3.027606
   22        3.031721
   23        4.055645
   24        4.157002
   25        4.437842
   26        4.878998
   27        5.052259
   28        5.168665
   29        5.185453
   30        6.328738
   31        7.090854
   32        7.303177
   33       14.097435
   34       14.743096
   35       15.732094
   36       16.392313
   37       16.406234
   38       16.797931
   39       16.813641
   40       16.962463
   41       17.360332
 
 -0.3333333E+00  0.5551115E-16  0.2500000E+00  0.1388889E-01
    1      -10.248169
    2       -9.163673
    3       -8.451231
    4       -6.715835
    5       -6.706185
    6       -4.970679
    7       -4.958980
    8       -4.111011
    9       -2.495247
   10       -2.484953
   11       -2.051093
   12        0.193558
   13        0.354823
   14        0.366164
   15        0.827681
   16        1.542841
   17        2.200676
   18        2.215613
   19        2.310959
   20        2.316014
   21        3.912528
   22        3.927158
   23        4.037638
   24        4.045911
   25        4.140116
   26        4.263895
   27        5.266652
   28        5.348426
   29        5.428711
   30        5.847669
   31        6.350388
   32        8.035795
   33       14.929704
   34       15.271446
   35       15.555176
   36       15.773488
   37       15.787982
   38       16.057515
   39       17.054615
   40       17.071592
   41       17.193612
 
 -0.1666667E+00  0.2775558E-16  0.2500000E+00  0.1388889E-01
    1      -10.981921
    2       -8.463434
    3       -7.773523
    4       -6.016467
    5       -6.006627
    6       -5.619654
    7       -5.607855
    8       -3.672827
    9       -3.057199
   10       -3.046640
   11       -2.402562
   12       -0.959460
   13       -0.294162
   14       -0.194252
   15       -0.183388
   16        0.670011
   17        2.445200
   18        2.449952
   19        3.235464
   20        3.249783
   21        3.693568
   22        3.738938
   23        3.754659
   24        5.106079
   25        5.114631
   26        5.627265
   27        5.638444
   28        5.844065
   29        6.109526
   30        6.482073
   31        6.897149
   32        8.521548
   33       14.355506
   34       14.599555
   35       14.613145
   36       15.355079
   37       16.106776
   38       16.263402
   39       16.421517
   40       16.538463
   41       16.702758
 
  0.0000000E+00  0.1666667E+00  0.2500000E+00  0.1388889E-01
    1      -11.351488
    2       -7.458352
    3       -6.839810
    4       -6.826066
    5       -6.326013
    6       -6.294838
    7       -3.743716
    8       -3.728104
    9       -3.015323
   10       -2.534278
   11       -2.517730
   12       -2.498722
   13       -2.480560
   14       -1.883457
   15       -0.025130
   16        1.975833
   17        1.988373
   18        2.709817
   19        2.721968
   20        3.290880
   21        3.455344
   22        4.732345
   23        5.089009
   24        5.107056
   25        5.551258
   26        6.036544
   27        6.183409
   28        6.194446
   29        6.565531
   30        7.408966
   31        7.830821
   32        8.334086
   33       13.256806
   34       14.362433
   35       14.786946
   36       14.796444
   37       15.350389
   38       15.699557
   39       15.711177
   40       16.092093
   41       16.101098
 
  0.1666667E+00  0.1666667E+00  0.2500000E+00  0.1388889E-01
    1      -11.475179
    2       -7.573029
    3       -6.945774
    4       -6.061979
    5       -6.050536
    6       -5.098759
    7       -5.088786
    8       -3.822183
    9       -3.470779
   10       -3.460263
   11       -2.597828
   12       -2.579760
   13       -1.991182
   14       -1.351105
   15       -1.340500
   16        1.873617
   17        2.638471
   18        2.646393
   19        3.143920
   20        3.148538
   21        3.305675
   22        5.210786
   23        5.230860
   24        5.895590
   25        5.905501
   26        5.934299
   27        6.024740
   28        6.345121
   29        6.502200
   30        7.479962
   31        8.196110
   32        8.853900
   33       13.837002
   34       13.849375
   35       13.955289
   36       14.859253
   37       15.144190
   38       15.158909
   39       15.312736
   40       15.567985
   41       15.595285
 
  0.3333333E+00  0.1666667E+00  0.2500000E+00  0.1388889E-01
    1      -11.228138
    2       -8.008458
    3       -7.342165
    4       -6.222351
    5       -6.180041
    6       -5.835952
    7       -4.904556
    8       -3.700914
    9       -3.252197
   10       -2.914455
   11       -2.482054
   12       -1.783957
   13       -1.323911
   14       -1.146720
   15       -0.066395
   16        1.258033
   17        2.134391
   18        2.886141
   19        2.924598
   20        3.320090
   21        3.411360
   22        4.294165
   23        4.533559
   24        5.400131
   25        5.626370
   26        5.638775
   27        5.931090
   28        6.047382
   29        6.634451
   30        6.669982
   31        7.532983
   32        8.554688
   33       13.732768
   34       14.356672
   35       14.685996
   36       14.817213
   37       15.822805
   38       16.066970
   39       16.082998
   40       16.224877
   41       16.714403
 
  0.5000000E+00  0.1666667E+00  0.2500000E+00  0.1388889E-01
    1      -10.613954
    2       -8.810668
    3       -8.107107
    4       -7.038058
    5       -5.707961
    6       -5.628308
    7       -5.294038
    8       -3.739667
    9       -2.745172
   10       -2.422209
   11       -2.272120
   12       -0.425913
   13       -0.057199
   14        0.327190
   15        0.642004
   16        0.829787
   17        1.924024
   18        2.733656
   19        2.887886
   20        2.971246
   21        3.095956
   22        3.809668
   23        3.826725
   24        4.677306
   25        4.752615
   26        4.977967
   27        4.995029
   28        5.632609
   29        5.797229
   30        6.141157
   31        6.603076
   32        8.161847
   33       14.604533
   34       14.843365
   35       15.378311
   36       15.776292
   37       15.878774
   38       16.172490
   39       16.625922
   40       17.064151
   41       17.154524
 
 -0.3333333E+00  0.1666667E+00  0.2500000E+00  0.1388889E-01
    1      -10.005156
    2       -9.643426
    3       -7.857184
    4       -7.519793
    5       -6.199140
    6       -5.260679
    7       -4.769978
    8       -4.431440
    9       -2.320425
   10       -2.178949
   11       -1.396738
   12       -0.965537
   13        0.273843
   14        1.028032
   15        1.071754
   16        1.289236
   17        1.742950
   18        2.392046
   19        2.428790
   20        3.270674
   21        3.485971
   22        3.502941
   23        3.832680
   24        3.879290
   25        4.238995
   26        4.556022
   27        4.673959
   28        4.938542
   29        5.507608
   30        6.073974
   31        7.313782
   32        7.468124
   33       14.737289
   34       15.420322
   35       15.575163
   36       15.669769