 vasp.5.3.5 31Mar14 (build Nov 02 2014 15:17:37) complex                        
  
 executed on        ion-Intel-MKL date 2017.02.15  22:43:27
 running on    1 total cores
 distrk:  each k-point on    1 cores,    1 groups
 distr:  one band on NCORES_PER_BAND=   1 cores,    1 groups


--------------------------------------------------------------------------------------------------------


 INCAR:
 POTCAR:   PAW_PBE C 08Apr2002                    
 POTCAR:   PAW_PBE C 08Apr2002                    
   VRHFIN =C: s2p2                                                              
   LEXCH  = PE                                                                  
   EATOM  =   147.1560 eV,   10.8157 Ry                                         
                                                                                
   TITEL  = PAW_PBE C 08Apr2002                                                 
   LULTRA =        F    use ultrasoft PP ?                                      
   IUNSCR =        0    unscreen: 0-lin 1-nonlin 2-no                           
   RPACOR =     .000    partial core radius                                     
   POMASS =   12.011; ZVAL   =    4.000    mass and valenz                      
   RCORE  =    1.500    outmost cutoff radius                                   
   RWIGS  =    1.630; RWIGS  =     .863    wigner-seitz radius (au A)           
   ENMAX  =  400.000; ENMIN  =  300.000 eV                                      
   ICORE  =        2    local potential                                         
   LCOR   =        T    correct aug charges                                     
   LPAW   =        T    paw PP                                                  
   EAUG   =  644.873                                                            
   DEXC   =     .000                                                            
   RMAX   =    2.266    core radius for proj-oper                               
   RAUG   =    1.300    factor for augmentation sphere                          
   RDEP   =    1.501    radius for radial grids                                 
   RDEPT  =    1.300    core radius for aug-charge                              
   QCUT   =   -5.516; QGAM   =   11.032    optimization parameters              
                                                                                
   Description                                                                  
     l     E      TYP  RCUT    TYP  RCUT                                        
     0   .000     23  1.200                                                     
     0   .000     23  1.200                                                     
     1   .000     23  1.500                                                     
     1  2.500     23  1.500                                                     
     2   .000      7  1.500                                                     
  local pseudopotential read in
  atomic valenz-charges read in
  non local Contribution for L=           0  read in
    real space projection operators read in
  non local Contribution for L=           0  read in
    real space projection operators read in
  non local Contribution for L=           1  read in
    real space projection operators read in
  non local Contribution for L=           1  read in
    real space projection operators read in
    PAW grid and wavefunctions read in
 
   number of l-projection  operators is LMAX  =           4
   number of lm-projection operators is LMMAX =           8
 
 PAW_PBE C 08Apr2002                    :
 energy of atom  1       EATOM= -147.1560
 kinetic energy error for atom=    0.0016 (will be added to EATOM!!)
 
 
 POSCAR: C                                       
  positions in direct lattice
  No initial velocities read in
 exchange correlation table for  LEXCH =        8
   RHO(1)=    0.500       N(1)  =     2000
   RHO(2)=  100.500       N(2)  =     4000
 


--------------------------------------------------------------------------------------------------------


 ion  position               nearest neighbor table
   1  0.002  0.000  0.000-   9 1.56  11 1.57  13 1.57  10 1.58
   2  0.500  0.000  0.000-  10 1.57  12 1.57   9 1.57  14 1.57
   3  0.000  0.500  0.000-  11 1.57   9 1.57  12 1.57  15 1.57
   4  0.500  0.500  0.000-  12 1.57  10 1.57  11 1.57  16 1.57
   5  0.000  0.000  0.500-  13 1.57  15 1.57  14 1.57   9 1.57
   6  0.500  0.000  0.500-  14 1.57  16 1.57  13 1.57  10 1.57
   7  0.000  0.500  0.500-  15 1.57  13 1.57  16 1.57  11 1.57
   8  0.500  0.500  0.500-  16 1.57  14 1.57  15 1.57  12 1.57
   9  0.125  0.125  0.125-   1 1.56   3 1.57   2 1.57   5 1.57
  10  0.625  0.125  0.125-   2 1.57   4 1.57   6 1.57   1 1.58
  11  0.125  0.625  0.125-   3 1.57   4 1.57   7 1.57   1 1.57
  12  0.625  0.625  0.125-   4 1.57   2 1.57   3 1.57   8 1.57
  13  0.125  0.125  0.625-   5 1.57   7 1.57   6 1.57   1 1.57
  14  0.625  0.125  0.625-   6 1.57   8 1.57   5 1.57   2 1.57
  15  0.125  0.625  0.625-   7 1.57   5 1.57   8 1.57   3 1.57
  16  0.625  0.625  0.625-   8 1.57   6 1.57   7 1.57   4 1.57
 
  LATTYP: Found a face centered cubic cell.
 ALAT       =     7.2489372310
  
  Lattice vectors:
  
 A1 = (   5.1257726726,   0.0000000000,   0.0000000000)
 A2 = (   2.5628863362,   4.4390493485,   0.0000000000)
 A3 = (   2.5628863362,   1.4796831161,   4.1851758617)


Analysis of symmetry for initial positions (statically):
=====================================================================
 Subroutine PRICEL returns:
 Original cell was already a primitive cell.
 

 Routine SETGRP: Setting up the symmetry group for a 
 face centered cubic supercell.


 Subroutine GETGRP returns: Found  2 space group operations
 (whereof  2 operations were pure point group operations)
 out of a pool of 48 trial point group operations.


The static configuration has the point symmetry C_1h.


Analysis of symmetry for dynamics (positions and initial velocities):
=====================================================================
 Subroutine PRICEL returns:
 Original cell was already a primitive cell.
 

 Routine SETGRP: Setting up the symmetry group for a 
 face centered cubic supercell.


 Subroutine GETGRP returns: Found  2 space group operations
 (whereof  2 operations were pure point group operations)
 out of a pool of 48 trial point group operations.


The dynamic configuration has the point symmetry C_1h.
 
 
 KPOINTS: B4C B11C-CBC                            

Automatic generation of k-mesh.
Space group operators:
 irot       det(A)        alpha          n_x          n_y          n_z        tau_x        tau_y        tau_z
    1     1.000000     0.000000     1.000000     0.000000     0.000000     0.000000     0.000000     0.000000
    2    -1.000000   180.000000     0.000000    -0.577350     0.816497     0.000000     0.000000     0.000000
 
 Subroutine IBZKPT returns following result:
 ===========================================
 
 Found     72 irreducible k-points:
 
 Following reciprocal coordinates:
            Coordinates               Weight
  0.000000  0.000000  0.000000      1.000000
  0.166667 -0.000000 -0.000000      2.000000
  0.333333 -0.000000 -0.000000      2.000000
  0.500000 -0.000000 -0.000000      1.000000
  0.000000  0.166667 -0.000000      2.000000
  0.166667  0.166667 -0.000000      2.000000
  0.333333  0.166667 -0.000000      2.000000
  0.500000  0.166667 -0.000000      2.000000
 -0.333333  0.166667  0.000000      2.000000
 -0.166667  0.166667  0.000000      2.000000
  0.000000  0.333333  0.000000      2.000000
  0.166667  0.333333 -0.000000      2.000000
  0.333333  0.333333 -0.000000      2.000000
  0.500000  0.333333 -0.000000      2.000000
 -0.333333  0.333333  0.000000      2.000000
 -0.166667  0.333333  0.000000      2.000000
  0.000000  0.500000  0.000000      2.000000
  0.166667  0.500000 -0.000000      4.000000
  0.333333  0.500000 -0.000000      4.000000
  0.500000  0.500000 -0.000000      2.000000
  0.000000  0.000000  0.250000      2.000000
  0.166667 -0.000000  0.250000      2.000000
  0.333333 -0.000000  0.250000      2.000000
  0.500000 -0.000000  0.250000      2.000000
 -0.333333  0.000000  0.250000      2.000000
 -0.166667  0.000000  0.250000      2.000000
  0.000000  0.166667  0.250000      2.000000
  0.166667  0.166667  0.250000      2.000000
  0.333333  0.166667  0.250000      2.000000
  0.500000  0.166667  0.250000      2.000000
 -0.333333  0.166667  0.250000      2.000000
 -0.166667  0.166667  0.250000      2.000000
  0.000000  0.333333  0.250000      2.000000
  0.166667  0.333333  0.250000      2.000000
  0.333333  0.333333  0.250000      2.000000
  0.500000  0.333333  0.250000      2.000000
 -0.333333  0.333333  0.250000      2.000000
 -0.166667  0.333333  0.250000      2.000000
  0.000000  0.500000  0.250000      2.000000
  0.166667  0.500000  0.250000      2.000000
  0.333333  0.500000  0.250000      2.000000
  0.500000  0.500000  0.250000      2.000000
 -0.333333  0.500000  0.250000      2.000000
 -0.166667  0.500000  0.250000      2.000000
  0.000000 -0.333333  0.250000      2.000000
  0.166667 -0.333333  0.250000      2.000000
  0.333333 -0.333333  0.250000      2.000000
  0.500000 -0.333333  0.250000      2.000000
 -0.333333 -0.333333  0.250000      2.000000
 -0.166667 -0.333333  0.250000      2.000000
  0.000000 -0.166667  0.250000      2.000000
  0.166667 -0.166667  0.250000      2.000000
  0.333333 -0.166667  0.250000      2.000000
  0.500000 -0.166667  0.250000      2.000000
 -0.333333 -0.166667  0.250000      2.000000
 -0.166667 -0.166667  0.250000      2.000000
  0.000000  0.166667  0.500000      2.000000
  0.166667  0.166667  0.500000      2.000000
  0.333333  0.166667  0.500000      2.000000
  0.500000  0.166667  0.500000      2.000000
 -0.333333  0.166667  0.500000      2.000000
 -0.166667  0.166667  0.500000      2.000000
  0.000000  0.333333  0.500000      2.000000
  0.166667  0.333333  0.500000      2.000000
  0.333333  0.333333  0.500000      2.000000
  0.500000  0.333333  0.500000      2.000000
 -0.333333  0.333333  0.500000      2.000000
 -0.166667  0.333333  0.500000      2.000000
  0.000000  0.500000  0.500000      1.000000
  0.166667  0.500000  0.500000      2.000000
  0.333333  0.500000  0.500000      2.000000
  0.500000  0.500000  0.500000      1.000000
 
 Following cartesian coordinates:
            Coordinates               Weight
  0.000000  0.000000  0.000000      1.000000
  0.032515 -0.018773 -0.013274      2.000000
  0.065031 -0.037546 -0.026549      2.000000
  0.097546 -0.056318 -0.039823      1.000000
  0.000000  0.037546 -0.013274      2.000000
  0.032515  0.018773 -0.026549      2.000000
  0.065031  0.000000 -0.039823      2.000000
  0.097546 -0.018773 -0.053097      2.000000
 -0.065031  0.075091  0.013274      2.000000
 -0.032515  0.056318  0.000000      2.000000
  0.000000  0.075091 -0.026549      2.000000
  0.032515  0.056318 -0.039823      2.000000
  0.065031  0.037546 -0.053097      2.000000
  0.097546  0.018773 -0.066372      2.000000
 -0.065031  0.112637  0.000000      2.000000
 -0.032515  0.093864 -0.013274      2.000000
  0.000000  0.112637 -0.039823      2.000000
  0.032515  0.093864 -0.053097      4.000000
  0.065031  0.075091 -0.066372      4.000000
  0.097546  0.056318 -0.079646      2.000000
  0.000000  0.000000  0.059735      2.000000
  0.032515 -0.018773  0.046460      2.000000
  0.065031 -0.037546  0.033186      2.000000
  0.097546 -0.056318  0.019912      2.000000
 -0.065031  0.037546  0.086283      2.000000
 -0.032515  0.018773  0.073009      2.000000
  0.000000  0.037546  0.046460      2.000000
  0.032515  0.018773  0.033186      2.000000
  0.065031  0.000000  0.019912      2.000000
  0.097546 -0.018773  0.006637      2.000000
 -0.065031  0.075091  0.073009      2.000000
 -0.032515  0.056318  0.059735      2.000000
  0.000000  0.075091  0.033186      2.000000
  0.032515  0.056318  0.019912      2.000000
  0.065031  0.037546  0.006637      2.000000
  0.097546  0.018773 -0.006637      2.000000
 -0.065031  0.112637  0.059735      2.000000
 -0.032515  0.093864  0.046460      2.000000
  0.000000  0.112637  0.019912      2.000000
  0.032515  0.093864  0.006637      2.000000
  0.065031  0.075091 -0.006637      2.000000
  0.097546  0.056318 -0.019912      2.000000
 -0.065031  0.150182  0.046460      2.000000
 -0.032515  0.131410  0.033186      2.000000
  0.000000 -0.075091  0.086283      2.000000
  0.032515 -0.093864  0.073009      2.000000
  0.065031 -0.112637  0.059735      2.000000
  0.097546 -0.131410  0.046460      2.000000
 -0.065031 -0.037546  0.112832      2.000000
 -0.032515 -0.056318  0.099558      2.000000
  0.000000 -0.037546  0.073009      2.000000
  0.032515 -0.056318  0.059735      2.000000
  0.065031 -0.075091  0.046460      2.000000
  0.097546 -0.093864  0.033186      2.000000
 -0.065031 -0.000000  0.099558      2.000000
 -0.032515 -0.018773  0.086283      2.000000
  0.000000  0.037546  0.106195      2.000000
  0.032515  0.018773  0.092921      2.000000
  0.065031  0.000000  0.079646      2.000000
  0.097546 -0.018773  0.066372      2.000000
 -0.065031  0.075091  0.132744      2.000000
 -0.032515  0.056318  0.119469      2.000000
  0.000000  0.075091  0.092921      2.000000
  0.032515  0.056318  0.079646      2.000000
  0.065031  0.037546  0.066372      2.000000
  0.097546  0.018773  0.053097      2.000000
 -0.065031  0.112637  0.119469      2.000000
 -0.032515  0.093864  0.106195      2.000000
  0.000000  0.112637  0.079646      1.000000
  0.032515  0.093864  0.066372      2.000000
  0.065031  0.075091  0.053097      2.000000
  0.097546  0.056318  0.039823      1.000000
 
 TETIRR: Found    432 inequivalent tetrahedra from      864


--------------------------------------------------------------------------------------------------------




 Dimension of arrays:
   k-points           NKPTS =     72   k-points in BZ     NKDIM =     72   number of bands    NBANDS=     41
   number of dos      NEDOS =    301   number of ions     NIONS =     16
   non local maximal  LDIM  =      4   non local SUM 2l+1 LMDIM =      8
   total plane-waves  NPLWV = 110592
   max r-space proj   IRMAX =      1   max aug-charges    IRDMAX=  13903
   dimension x,y,z NGX =    48 NGY =   48 NGZ =   48
   dimension x,y,z NGXF=    96 NGYF=   96 NGZF=   96
   support grid    NGXF=    96 NGYF=   96 NGZF=   96
   ions per type =              16
 NGX,Y,Z   is equivalent  to a cutoff of  15.57, 15.57, 15.57 a.u.
 NGXF,Y,Z  is equivalent  to a cutoff of  31.14, 31.14, 31.14 a.u.


 I would recommend the setting:
   dimension x,y,z NGX =    47 NGY =   47 NGZ =   47
 SYSTEM =  diamond                                 
 POSCAR =  C                                       

 Startparameter for this run:
   NWRITE =      2    write-flag & timer
   PREC   = accura    normal or accurate (medium, high low for compatibility)
   ISTART =      0    job   : 0-new  1-cont  2-samecut
   ICHARG =      2    charge: 1-file 2-atom 10-const
   ISPIN  =      1    spin polarized calculation?
   LNONCOLLINEAR =      F non collinear calculations
   LSORBIT =      F    spin-orbit coupling
   INIWAV =      1    electr: 0-lowe 1-rand  2-diag
   LASPH  =      F    aspherical Exc in radial PAW
   METAGGA=      F    non-selfconsistent MetaGGA calc.

 Electronic Relaxation 1
   ENCUT  =  800.0 eV  58.80 Ry    7.67 a.u.  11.82 11.82 11.82*2*pi/ulx,y,z
   ENINI  =  800.0     initial cutoff
   ENAUG  =  644.9 eV  augmentation charge cutoff
   NELM   =    200;   NELMIN=  2; NELMDL=  0     # of ELM steps 
   EDIFF  = 0.1E-07   stopping-criterion for ELM
   LREAL  =      F    real-space projection
   NLSPLINE    = F    spline interpolate recip. space projectors
   LCOMPAT=      F    compatible to vasp.4.4
   GGA_COMPAT  = T    GGA compatible to vasp.4.4-vasp.4.6
   LMAXPAW     = -100 max onsite density
   LMAXMIX     =    2 max onsite mixed and CHGCAR
   VOSKOWN=      0    Vosko Wilk Nusair interpolation
   ROPT   =    0.00000
 Ionic relaxation
   EDIFFG = 0.1E-02   stopping-criterion for IOM
   NSW    =      0    number of steps for IOM
   NBLOCK =      1;   KBLOCK =      1    inner block; outer block 
   IBRION =     -1    ionic relax: 0-MD 1-quasi-New 2-CG
   NFREE  =      0    steps in history (QN), initial steepest desc. (CG)
   ISIF   =      2    stress and relaxation
   IWAVPR =     10    prediction:  0-non 1-charg 2-wave 3-comb
   ISYM   =      2    0-nonsym 1-usesym 2-fastsym
   LCORR  =      T    Harris-Foulkes like correction to forces

   POTIM  = 0.5000    time-step for ionic-motion
   TEIN   =    0.0    initial temperature
   TEBEG  =    0.0;   TEEND  =   0.0 temperature during run
   SMASS  =  -3.00    Nose mass-parameter (am)
   estimated Nose-frequenzy (Omega)   =  0.10E-29 period in steps =****** mass=  -0.600E-27a.u.
   SCALEE = 1.0000    scale energy and forces
   NPACO  =    256;   APACO  = 16.0  distance and # of slots for P.C.
   PSTRESS=    0.0 pullay stress

  Mass of Ions in am
   POMASS =  12.01
  Ionic Valenz
   ZVAL   =   4.00
  Atomic Wigner-Seitz radii
   RWIGS  =  -1.00
  virtual crystal weights 
   VCA    =   1.00
   NELECT =      64.0000    total number of electrons
   NUPDOWN=      -1.0000    fix difference up-down

 DOS related values:
   EMIN   =  10.00;   EMAX   =-10.00  energy-range for DOS
   EFERMI =   0.00
   ISMEAR =    -5;   SIGMA  =   0.20  broadening in eV -4-tet -1-fermi 0-gaus

 Electronic relaxation 2 (details)
   IALGO  =     38    algorithm
   LDIAG  =      T    sub-space diagonalisation (order eigenvalues)
   LSUBROT=      F    optimize rotation matrix (better conditioning)
   TURBO    =      0    0=normal 1=particle mesh
   IRESTART =      0    0=no restart 2=restart with 2 vectors
   NREBOOT  =      0    no. of reboots
   NMIN     =      0    reboot dimension
   EREF     =   0.00    reference energy to select bands
   IMIX   =      4    mixing-type and parameters
     AMIX     =   0.40;   BMIX     =  1.00
     AMIX_MAG =   1.60;   BMIX_MAG =  1.00
     AMIN     =   0.10
     WC   =   100.;   INIMIX=   1;  MIXPRE=   1;  MAXMIX= -45

 Intra band minimization:
   WEIMIN = 0.0000     energy-eigenvalue tresh-hold
   EBREAK =  0.61E-10  absolut break condition
   DEPER  =   0.30     relativ break condition  

   TIME   =   0.40     timestep for ELM

  volume/ion in A,a.u.               =       5.95        40.16
  Fermi-wavevector in a.u.,A,eV,Ry     =   1.433993  2.709855 27.978164  2.056337
  Thomas-Fermi vector in A             =   2.553451
 
 Write flags
   LWAVE  =      F    write WAVECAR
   LCHARG =      F    write CHGCAR
   LVTOT  =      F    write LOCPOT, total local potential
   LVHAR  =      F    write LOCPOT, Hartree potential only
   LELF   =      F    write electronic localiz. function (ELF)
   LORBIT =      0    0 simple, 1 ext, 2 COOP (PROOUT)


 Dipole corrections
   LMONO  =      F    monopole corrections only (constant potential shift)
   LDIPOL =      F    correct potential (dipole corrections)
   IDIPOL =      0    1-x, 2-y, 3-z, 4-all directions 
   EPSILON=  1.0000000 bulk dielectric constant

 Exchange correlation treatment:
   GGA     =    PE    GGA type
   LEXCH   =     8    internal setting for exchange type
   VOSKOWN=      0    Vosko Wilk Nusair interpolation
   LHFCALC =     F    Hartree Fock is set to
   LHFONE  =     F    Hartree Fock one center treatment
   AEXX    =    0.0000 exact exchange contribution

 Linear response parameters
   LEPSILON=     F    determine dielectric tensor
   LRPA    =     F    only Hartree local field effects (RPA)
   LNABLA  =     F    use nabla operator in PAW spheres
   LVEL    =     F    velocity operator in full k-point grid
   LINTERFAST=   F  fast interpolation
   KINTER  =     0    interpolate to denser k-point grid
   CSHIFT  =0.1000    complex shift for real part using Kramers Kronig
   OMEGAMAX=  -1.0    maximum frequency
   DEG_THRESHOLD= 0.2000000E-02 threshold for treating states as degnerate
   RTIME   =    0.100 relaxation time in fs

 Orbital magnetization related:
   ORBITALMAG=     F  switch on orbital magnetization
   LCHIMAG   =     F  perturbation theory with respect to B field
   DQ        =  0.001000  dq finite difference perturbation B field



--------------------------------------------------------------------------------------------------------


 Static calculation
 charge density and potential will be updated during run
 non-spin polarized calculation
 Variant of blocked Davidson
 Davidson routine will perform the subspace rotation
 perform sub-space diagonalisation
    after iterative eigenvector-optimisation
 modified Broyden-mixing scheme, WC =      100.0
 initial mixing is a Kerker type mixing with AMIX =  0.4000 and BMIX =      1.0000
 Hartree-type preconditioning will be used
 using additional bands            9
 reciprocal scheme for non local part
 calculate Harris-corrections to forces 
   (improved forces if not selfconsistent)
 use gradient corrections 
 use of overlap-Matrix (Vanderbilt PP)
 Fermi weights with tetrahedron method with Bloechl corrections


--------------------------------------------------------------------------------------------------------


  energy-cutoff  :      800.00
  volume of cell :       95.23
      direct lattice vectors                 reciprocal lattice vectors
     5.125772673  0.000000000  0.000000000     0.195092538 -0.112636729 -0.079646195
     2.562886336  4.439049349  0.000000000     0.000000000  0.225273459 -0.079646195
     2.562886336  1.479683116  4.185175862     0.000000000  0.000000000  0.238938585

  length of vectors
     5.125772673  5.125772673  5.125772672     0.238938585  0.238938585  0.238938585


 
 k-points in units of 2pi/SCALE and weight: B4C B11C-CBC                            
   0.00000000  0.00000000  0.00000000       0.007
   0.03251542 -0.01877279 -0.01327437       0.014
   0.06503085 -0.03754558 -0.02654873       0.014
   0.09754627 -0.05631836 -0.03982310       0.007
   0.00000000  0.03754558 -0.01327437       0.014
   0.03251542  0.01877279 -0.02654873       0.014
   0.06503085  0.00000000 -0.03982310       0.014
   0.09754627 -0.01877279 -0.05309746       0.014
  -0.06503085  0.07509115  0.01327437       0.014
  -0.03251542  0.05631836  0.00000000       0.014
   0.00000000  0.07509115 -0.02654873       0.014
   0.03251542  0.05631836 -0.03982310       0.014
   0.06503085  0.03754558 -0.05309746       0.014
   0.09754627  0.01877279 -0.06637183       0.014
  -0.06503085  0.11263673  0.00000000       0.014
  -0.03251542  0.09386394 -0.01327437       0.014
   0.00000000  0.11263673 -0.03982310       0.014
   0.03251542  0.09386394 -0.05309746       0.028
   0.06503085  0.07509115 -0.06637183       0.028
   0.09754627  0.05631836 -0.07964620       0.014
   0.00000000  0.00000000  0.05973465       0.014
   0.03251542 -0.01877279  0.04646028       0.014
   0.06503085 -0.03754558  0.03318591       0.014
   0.09754627 -0.05631836  0.01991155       0.014
  -0.06503085  0.03754558  0.08628338       0.014
  -0.03251542  0.01877279  0.07300901       0.014
   0.00000000  0.03754558  0.04646028       0.014
   0.03251542  0.01877279  0.03318591       0.014
   0.06503085  0.00000000  0.01991155       0.014
   0.09754627 -0.01877279  0.00663718       0.014
  -0.06503085  0.07509115  0.07300901       0.014
  -0.03251542  0.05631836  0.05973465       0.014
   0.00000000  0.07509115  0.03318591       0.014
   0.03251542  0.05631836  0.01991155       0.014
   0.06503085  0.03754558  0.00663718       0.014
   0.09754627  0.01877279 -0.00663718       0.014
  -0.06503085  0.11263673  0.05973465       0.014
  -0.03251542  0.09386394  0.04646028       0.014
   0.00000000  0.11263673  0.01991155       0.014
   0.03251542  0.09386394  0.00663718       0.014
   0.06503085  0.07509115 -0.00663718       0.014
   0.09754627  0.05631836 -0.01991155       0.014
  -0.06503085  0.15018231  0.04646028       0.014
  -0.03251542  0.13140952  0.03318591       0.014
   0.00000000 -0.07509115  0.08628338       0.014
   0.03251542 -0.09386394  0.07300901       0.014
   0.06503085 -0.11263673  0.05973465       0.014
   0.09754627 -0.13140952  0.04646028       0.014
  -0.06503085 -0.03754558  0.11283211       0.014
  -0.03251542 -0.05631836  0.09955774       0.014
   0.00000000 -0.03754558  0.07300901       0.014
   0.03251542 -0.05631836  0.05973465       0.014
   0.06503085 -0.07509115  0.04646028       0.014
   0.09754627 -0.09386394  0.03318591       0.014
  -0.06503085 -0.00000000  0.09955774       0.014
  -0.03251542 -0.01877279  0.08628338       0.014
   0.00000000  0.03754558  0.10619493       0.014
   0.03251542  0.01877279  0.09292056       0.014
   0.06503085  0.00000000  0.07964620       0.014
   0.09754627 -0.01877279  0.06637183       0.014
  -0.06503085  0.07509115  0.13274366       0.014
  -0.03251542  0.05631836  0.11946929       0.014
   0.00000000  0.07509115  0.09292056       0.014
   0.03251542  0.05631836  0.07964620       0.014
   0.06503085  0.03754558  0.06637183       0.014
   0.09754627  0.01877279  0.05309746       0.014
  -0.06503085  0.11263673  0.11946929       0.014
  -0.03251542  0.09386394  0.10619493       0.014
   0.00000000  0.11263673  0.07964620       0.007
   0.03251542  0.09386394  0.06637183       0.014
   0.06503085  0.07509115  0.05309746       0.014
   0.09754627  0.05631836  0.03982310       0.007
 
 k-points in reciprocal lattice and weights: B4C B11C-CBC                            
   0.00000000  0.00000000  0.00000000       0.007
   0.16666667 -0.00000000 -0.00000000       0.014
   0.33333333 -0.00000000 -0.00000000       0.014
   0.50000000 -0.00000000 -0.00000000       0.007
   0.00000000  0.16666667 -0.00000000       0.014
   0.16666667  0.16666667 -0.00000000       0.014
   0.33333333  0.16666667 -0.00000000       0.014
   0.50000000  0.16666667 -0.00000000       0.014
  -0.33333333  0.16666667  0.00000000       0.014
  -0.16666667  0.16666667  0.00000000       0.014
   0.00000000  0.33333333  0.00000000       0.014
   0.16666667  0.33333333 -0.00000000       0.014
   0.33333333  0.33333333 -0.00000000       0.014
   0.50000000  0.33333333 -0.00000000       0.014
  -0.33333333  0.33333333  0.00000000       0.014
  -0.16666667  0.33333333  0.00000000       0.014
   0.00000000  0.50000000  0.00000000       0.014
   0.16666667  0.50000000 -0.00000000       0.028
   0.33333333  0.50000000 -0.00000000       0.028
   0.50000000  0.50000000 -0.00000000       0.014
   0.00000000  0.00000000  0.25000000       0.014
   0.16666667 -0.00000000  0.25000000       0.014
   0.33333333 -0.00000000  0.25000000       0.014
   0.50000000 -0.00000000  0.25000000       0.014
  -0.33333333  0.00000000  0.25000000       0.014
  -0.16666667  0.00000000  0.25000000       0.014
   0.00000000  0.16666667  0.25000000       0.014
   0.16666667  0.16666667  0.25000000       0.014
   0.33333333  0.16666667  0.25000000       0.014
   0.50000000  0.16666667  0.25000000       0.014
  -0.33333333  0.16666667  0.25000000       0.014
  -0.16666667  0.16666667  0.25000000       0.014
   0.00000000  0.33333333  0.25000000       0.014
   0.16666667  0.33333333  0.25000000       0.014
   0.33333333  0.33333333  0.25000000       0.014
   0.50000000  0.33333333  0.25000000       0.014
  -0.33333333  0.33333333  0.25000000       0.014
  -0.16666667  0.33333333  0.25000000       0.014
   0.00000000  0.50000000  0.25000000       0.014
   0.16666667  0.50000000  0.25000000       0.014
   0.33333333  0.50000000  0.25000000       0.014
   0.50000000  0.50000000  0.25000000       0.014
  -0.33333333  0.50000000  0.25000000       0.014
  -0.16666667  0.50000000  0.25000000       0.014
   0.00000000 -0.33333333  0.25000000       0.014
   0.16666667 -0.33333333  0.25000000       0.014
   0.33333333 -0.33333333  0.25000000       0.014
   0.50000000 -0.33333333  0.25000000       0.014
  -0.33333333 -0.33333333  0.25000000       0.014
  -0.16666667 -0.33333333  0.25000000       0.014
   0.00000000 -0.16666667  0.25000000       0.014
   0.16666667 -0.16666667  0.25000000       0.014
   0.33333333 -0.16666667  0.25000000       0.014
   0.50000000 -0.16666667  0.25000000       0.014
  -0.33333333 -0.16666667  0.25000000       0.014
  -0.16666667 -0.16666667  0.25000000       0.014
   0.00000000  0.16666667  0.50000000       0.014
   0.16666667  0.16666667  0.50000000       0.014
   0.33333333  0.16666667  0.50000000       0.014
   0.50000000  0.16666667  0.50000000       0.014
  -0.33333333  0.16666667  0.50000000       0.014
  -0.16666667  0.16666667  0.50000000       0.014
   0.00000000  0.33333333  0.50000000       0.014
   0.16666667  0.33333333  0.50000000       0.014
   0.33333333  0.33333333  0.50000000       0.014
   0.50000000  0.33333333  0.50000000       0.014
  -0.33333333  0.33333333  0.50000000       0.014
  -0.16666667  0.33333333  0.50000000       0.014
   0.00000000  0.50000000  0.50000000       0.007
   0.16666667  0.50000000  0.50000000       0.014
   0.33333333  0.50000000  0.50000000       0.014
   0.50000000  0.50000000  0.50000000       0.007
 
 position of ions in fractional coordinates (direct lattice) 
   0.00195093  0.00000000  0.00000000
   0.50000000  0.00000000  0.00000000
   0.00000000  0.50000000  0.00000000
   0.50000000  0.50000000  0.00000000
   0.00000000  0.00000000  0.50000000
   0.50000000  0.00000000  0.50000000
   0.00000000  0.50000000  0.50000000
   0.50000000  0.50000000  0.50000000
   0.12500000  0.12500000  0.12499999
   0.62500000  0.12500000  0.12499999
   0.12500000  0.62500000  0.12499999
   0.62500000  0.62500000  0.12499999
   0.12500000  0.12500000  0.62499999
   0.62500000  0.12500000  0.62499999
   0.12500000  0.62500000  0.62499999
   0.62500000  0.62500000  0.62499999
 
 position of ions in cartesian coordinates  (Angst):
   0.01000000  0.00000000  0.00000000
   2.56288634  0.00000000  0.00000000
   1.28144317  2.21952467  0.00000000
   3.84432950  2.21952467  0.00000000
   1.28144317  0.73984156  2.09258793
   3.84432950  0.73984156  2.09258793
   2.56288634  2.95936623  2.09258793
   5.12577267  2.95936623  2.09258793
   1.28144315  0.73984155  0.52314695
   3.84432949  0.73984155  0.52314695
   2.56288632  2.95936622  0.52314695
   5.12577265  2.95936622  0.52314695
   2.56288632  1.47968311  2.61573488
   5.12577265  1.47968311  2.61573488
   3.84432949  3.69920778  2.61573488
   6.40721582  3.69920778  2.61573488
 


--------------------------------------------------------------------------------------------------------


 k-point  1 :   0.0000 0.0000 0.0000  plane waves:    4909
 k-point  2 :   0.1667-0.0000-0.0000  plane waves:    4894
 k-point  3 :   0.3333-0.0000-0.0000  plane waves:    4879
 k-point  4 :   0.5000-0.0000-0.0000  plane waves:    4910
 k-point  5 :   0.0000 0.1667-0.0000  plane waves:    4894
 k-point  6 :   0.1667 0.1667-0.0000  plane waves:    4897
 k-point  7 :   0.3333 0.1667-0.0000  plane waves:    4885
 k-point  8 :   0.5000 0.1667-0.0000  plane waves:    4896
 k-point  9 :  -0.3333 0.1667 0.0000  plane waves:    4897
 k-point 10 :  -0.1667 0.1667 0.0000  plane waves:    4872
 k-point 11 :   0.0000 0.3333 0.0000  plane waves:    4879
 k-point 12 :   0.1667 0.3333-0.0000  plane waves:    4885
 k-point 13 :   0.3333 0.3333-0.0000  plane waves:    4913
 k-point 14 :   0.5000 0.3333-0.0000  plane waves:    4905
 k-point 15 :  -0.3333 0.3333 0.0000  plane waves:    4890
 k-point 16 :  -0.1667 0.3333 0.0000  plane waves:    4897
 k-point 17 :   0.0000 0.5000 0.0000  plane waves:    4910
 k-point 18 :   0.1667 0.5000-0.0000  plane waves:    4896
 k-point 19 :   0.3333 0.5000-0.0000  plane waves:    4905
 k-point 20 :   0.5000 0.5000-0.0000  plane waves:    4880
 k-point 21 :   0.0000 0.0000 0.2500  plane waves:    4873
 k-point 22 :   0.1667-0.0000 0.2500  plane waves:    4887
 k-point 23 :   0.3333-0.0000 0.2500  plane waves:    4893
 k-point 24 :   0.5000-0.0000 0.2500  plane waves:    4893
 k-point 25 :  -0.3333 0.0000 0.2500  plane waves:    4897
 k-point 26 :  -0.1667 0.0000 0.2500  plane waves:    4883
 k-point 27 :   0.0000 0.1667 0.2500  plane waves:    4887
 k-point 28 :   0.1667 0.1667 0.2500  plane waves:    4877
 k-point 29 :   0.3333 0.1667 0.2500  plane waves:    4883
 k-point 30 :   0.5000 0.1667 0.2500  plane waves:    4886
 k-point 31 :  -0.3333 0.1667 0.2500  plane waves:    4908
 k-point 32 :  -0.1667 0.1667 0.2500  plane waves:    4884
 k-point 33 :   0.0000 0.3333 0.2500  plane waves:    4893
 k-point 34 :   0.1667 0.3333 0.2500  plane waves:    4883
 k-point 35 :   0.3333 0.3333 0.2500  plane waves:    4881
 k-point 36 :   0.5000 0.3333 0.2500  plane waves:    4886
 k-point 37 :  -0.3333 0.3333 0.2500  plane waves:    4894
 k-point 38 :  -0.1667 0.3333 0.2500  plane waves:    4891
 k-point 39 :   0.0000 0.5000 0.2500  plane waves:    4893
 k-point 40 :   0.1667 0.5000 0.2500  plane waves:    4886
 k-point 41 :   0.3333 0.5000 0.2500  plane waves:    4886
 k-point 42 :   0.5000 0.5000 0.2500  plane waves:    4893
 k-point 43 :  -0.3333 0.5000 0.2500  plane waves:    4898
 k-point 44 :  -0.1667 0.5000 0.2500  plane waves:    4898
 k-point 45 :   0.0000-0.3333 0.2500  plane waves:    4897
 k-point 46 :   0.1667-0.3333 0.2500  plane waves:    4908
 k-point 47 :   0.3333-0.3333 0.2500  plane waves:    4894
 k-point 48 :   0.5000-0.3333 0.2500  plane waves:    4898
 k-point 49 :  -0.3333-0.3333 0.2500  plane waves:    4901
 k-point 50 :  -0.1667-0.3333 0.2500  plane waves:    4899
 k-point 51 :   0.0000-0.1667 0.2500  plane waves:    4883
 k-point 52 :   0.1667-0.1667 0.2500  plane waves:    4884
 k-point 53 :   0.3333-0.1667 0.2500  plane waves:    4891
 k-point 54 :   0.5000-0.1667 0.2500  plane waves:    4898
 k-point 55 :  -0.3333-0.1667 0.2500  plane waves:    4899
 k-point 56 :  -0.1667-0.1667 0.2500  plane waves:    4885
 k-point 57 :   0.0000 0.1667 0.5000  plane waves:    4896
 k-point 58 :   0.1667 0.1667 0.5000  plane waves:    4897
 k-point 59 :   0.3333 0.1667 0.5000  plane waves:    4894
 k-point 60 :   0.5000 0.1667 0.5000  plane waves:    4905
 k-point 61 :  -0.3333 0.1667 0.5000  plane waves:    4892
 k-point 62 :  -0.1667 0.1667 0.5000  plane waves:    4892
 k-point 63 :   0.0000 0.3333 0.5000  plane waves:    4905
 k-point 64 :   0.1667 0.3333 0.5000  plane waves:    4894
 k-point 65 :   0.3333 0.3333 0.5000  plane waves:    4897
 k-point 66 :   0.5000 0.3333 0.5000  plane waves:    4896
 k-point 67 :  -0.3333 0.3333 0.5000  plane waves:    4892
 k-point 68 :  -0.1667 0.3333 0.5000  plane waves:    4892
 k-point 69 :   0.0000 0.5000 0.5000  plane waves:    4880
 k-point 70 :   0.1667 0.5000 0.5000  plane waves:    4905
 k-point 71 :   0.3333 0.5000 0.5000  plane waves:    4896
 k-point 72 :   0.5000 0.5000 0.5000  plane waves:    4910

 maximum and minimum number of plane-waves per node :      4913     4872

 maximum number of plane-waves:      4913
 maximum index in each direction: 
   IXMAX=   12   IYMAX=   12   IZMAX=   11
   IXMIN=  -12   IYMIN=  -12   IZMIN=  -12

 WARNING: aliasing errors must be expected set NGX to  50 to avoid them
 WARNING: aliasing errors must be expected set NGY to  50 to avoid them
 NGZ is ok and might be reduce to  48
 aliasing errors are usually negligible using standard VASP settings
 and one can safely disregard these warnings

 serial   3D FFT for wavefunctions
 parallel 3D FFT for charge:
    minimum data exchange during FFTs selected (reduces bandwidth)


 total amount of memory used by VASP on root node   370294. kBytes
========================================================================

   base      :      30000. kBytes
   nonl-proj :      23896. kBytes
   fftplans  :      30736. kBytes
   grid      :      47517. kBytes
   one-center:         49. kBytes
   wavefun   :     238096. kBytes
 
     INWAV:  cpu time    0.00: real time    0.00
 Broyden mixing: mesh for mixing (old mesh)
   NGX = 23   NGY = 23   NGZ = 23
  (NGX  = 96   NGY  = 96   NGZ  = 96)
  gives a total of  12167 points

 initial charge density was supplied:
 charge density of overlapping atoms calculated
 number of electron      64.0000000 magnetization 
 keeping initial charge density in first step


--------------------------------------------------------------------------------------------------------


 Maximum index for augmentation-charges        13331 (set IRDMAX)


--------------------------------------------------------------------------------------------------------


 First call to EWALD:  gamma=   0.388
 Maximum number of real-space cells 3x 3x 3
 Maximum number of reciprocal cells 3x 3x 3

 FEWALD executed in parallel
    FEWALD:  cpu time    0.00: real time    0.00


----------------------------------------- Iteration    1(   1)  ---------------------------------------


    POTLOK:  cpu time    0.60: real time    1.20
    SETDIJ:  cpu time    0.05: real time    0.10
     EDDAV:  cpu time   74.18: real time  147.07
 BZINTS: Fermi energy: 23.089069; 64.000000 electrons
         Band energy: 386.739874;  BLOECHL correction: -0.144802
       DOS:  cpu time    0.05: real time    0.11
    --------------------------------------------
      LOOP:  cpu time   74.88: real time  148.50

 eigenvalue-minimisations  :  5904
 total energy-change (2. order) : 0.2793324E+03  (-0.4489527E+04)
 number of electron      64.0000000 magnetization 
 augmentation part       64.0000000 magnetization 

 Free energy of the ion-electron system (eV)
  ---------------------------------------------------
  alpha Z        PSCENC =       219.04272492
  Ewald energy   TEWEN  =     -2739.37335906
  -Hartree energ DENC   =      -149.49845499
  -exchange      EXHF   =         0.00000000
  -V(xc)+E(xc)   XCENC  =       226.35846624
  PAW double counting   =       605.30308954     -623.71076428
  entropy T*S    EENTRO =         0.00000000
  eigenvalues    EBANDS =       386.73987362
  atomic energy  EATOM  =      2354.47077523
  ---------------------------------------------------
  free energy    TOTEN  =       279.33235121 eV

  energy without entropy =      279.33235121  energy(sigma->0) =      279.33235121


--------------------------------------------------------------------------------------------------------




----------------------------------------- Iteration    1(   2)  ---------------------------------------


     EDDAV:  cpu time   87.75: real time  175.58
 BZINTS: Fermi energy:  9.884790; 64.000000 electrons
         Band energy: -24.430420;  BLOECHL correction:  0.000000
       DOS:  cpu time    0.02: real time    0.03
    --------------------------------------------
      LOOP:  cpu time   87.77: real time  175.61

 eigenvalue-minimisations  :  7637
 total energy-change (2. order) :-0.4111703E+03  (-0.3927236E+03)
 number of electron      64.0000000 magnetization 
 augmentation part       64.0000000 magnetization 

 Free energy of the ion-electron system (eV)
  ---------------------------------------------------
  alpha Z        PSCENC =       219.04272492
  Ewald energy   TEWEN  =     -2739.37335906
  -Hartree energ DENC   =      -149.49845499
  -exchange      EXHF   =         0.00000000
  -V(xc)+E(xc)   XCENC  =       226.35846624
  PAW double counting   =       605.30308954     -623.71076428
  entropy T*S    EENTRO =         0.00000000
  eigenvalues    EBANDS =       -24.43042016
  atomic energy  EATOM  =      2354.47077523
  ---------------------------------------------------
  free energy    TOTEN  =      -131.83794257 eV

  energy without entropy =     -131.83794257  energy(sigma->0) =     -131.83794257


--------------------------------------------------------------------------------------------------------




----------------------------------------- Iteration    1(   3)  ---------------------------------------


     EDDAV:  cpu time   86.29: real time  172.66
 BZINTS: Fermi energy:  7.846025; 64.000000 electrons
         Band energy: -41.975454;  BLOECHL correction:  0.000000
       DOS:  cpu time    0.01: real time    0.03
    --------------------------------------------
      LOOP:  cpu time   86.31: real time  172.71

 eigenvalue-minimisations  :  7230
 total energy-change (2. order) :-0.1754503E+02  (-0.1741087E+02)
 number of electron      64.0000000 magnetization 
 augmentation part       64.0000000 magnetization 

 Free energy of the ion-electron system (eV)
  ---------------------------------------------------
  alpha Z        PSCENC =       219.04272492
  Ewald energy   TEWEN  =     -2739.37335906
  -Hartree energ DENC   =      -149.49845499
  -exchange      EXHF   =         0.00000000
  -V(xc)+E(xc)   XCENC  =       226.35846624
  PAW double counting   =       605.30308954     -623.71076428
  entropy T*S    EENTRO =         0.00000000
  eigenvalues    EBANDS =       -41.97545370
  atomic energy  EATOM  =      2354.47077523
  ---------------------------------------------------
  free energy    TOTEN  =      -149.38297611 eV

  energy without entropy =     -149.38297611  energy(sigma->0) =     -149.38297611


--------------------------------------------------------------------------------------------------------




----------------------------------------- Iteration    1(   4)  ---------------------------------------


     EDDAV:  cpu time   88.66: real time  177.40
 BZINTS: Fermi energy:  7.759524; 64.000000 electrons
         Band energy: -42.314988;  BLOECHL correction:  0.000000
       DOS:  cpu time    0.01: real time    0.02
    --------------------------------------------
      LOOP:  cpu time   88.67: real time  177.43

 eigenvalue-minimisations  :  7486
 total energy-change (2. order) :-0.3395347E+00  (-0.3384612E+00)
 number of electron      64.0000000 magnetization 
 augmentation part       64.0000000 magnetization 

 Free energy of the ion-electron system (eV)
  ---------------------------------------------------
  alpha Z        PSCENC =       219.04272492
  Ewald energy   TEWEN  =     -2739.37335906
  -Hartree energ DENC   =      -149.49845499
  -exchange      EXHF   =         0.00000000
  -V(xc)+E(xc)   XCENC  =       226.35846624
  PAW double counting   =       605.30308954     -623.71076428
  entropy T*S    EENTRO =         0.00000000
  eigenvalues    EBANDS =       -42.31498842
  atomic energy  EATOM  =      2354.47077523
  ---------------------------------------------------
  free energy    TOTEN  =      -149.72251082 eV

  energy without entropy =     -149.72251082  energy(sigma->0) =     -149.72251082


--------------------------------------------------------------------------------------------------------




----------------------------------------- Iteration    1(   5)  ---------------------------------------


     EDDAV:  cpu time   85.67: real time  171.41
 BZINTS: Fermi energy:  7.734365; 64.000000 electrons
         Band energy: -42.322587;  BLOECHL correction:  0.000000
       DOS:  cpu time    0.01: real time    0.02
    CHARGE:  cpu time    6.20: real time   12.40
    MIXING:  cpu time    0.02: real time    0.04
    --------------------------------------------
      LOOP:  cpu time   91.90: real time  183.88

 eigenvalue-minimisations  :  7162
 total energy-change (2. order) :-0.7598832E-02  (-0.7591686E-02)
 number of electron      64.0000001 magnetization 
 augmentation part        1.5176407 magnetization 

 Broyden mixing:
  rms(total) = 0.12720E+01    rms(broyden)= 0.12720E+01
  rms(prec ) = 0.26550E+01
  weight for this iteration     100.00

 Free energy of the ion-electron system (eV)
  ---------------------------------------------------
  alpha Z        PSCENC =       219.04272492
  Ewald energy   TEWEN  =     -2739.37335906
  -Hartree energ DENC   =      -149.49845499
  -exchange      EXHF   =         0.00000000
  -V(xc)+E(xc)   XCENC  =       226.35846624
  PAW double counting   =       605.30308954     -623.71076428
  entropy T*S    EENTRO =         0.00000000
  eigenvalues    EBANDS =       -42.32258725
  atomic energy  EATOM  =      2354.47077523
  ---------------------------------------------------
  free energy    TOTEN  =      -149.73010966 eV

  energy without entropy =     -149.73010966  energy(sigma->0) =     -149.73010966


--------------------------------------------------------------------------------------------------------




----------------------------------------- Iteration    1(   6)  ---------------------------------------


    POTLOK:  cpu time    0.62: real time    1.24
    SETDIJ:  cpu time    0.05: real time    0.10
     EDDAV:  cpu time   82.68: real time  165.45
 BZINTS: Fermi energy:  8.382816; 64.000000 electrons
         Band energy: -11.497550;  BLOECHL correction:  0.000000
       DOS:  cpu time    0.01: real time    0.02
    CHARGE:  cpu time    6.21: real time   12.42
    MIXING:  cpu time    0.02: real time    0.04
    --------------------------------------------
      LOOP:  cpu time   89.60: real time  179.29

 eigenvalue-minimisations  :  7120
 total energy-change (2. order) : 0.3315903E+01  (-0.2381577E+00)
 number of electron      64.0000001 magnetization 
 augmentation part        1.4821092 magnetization 

 Broyden mixing:
  rms(total) = 0.70210E+00    rms(broyden)= 0.70210E+00
  rms(prec ) = 0.14437E+01
  weight for this iteration     100.00

 eigenvalues of (default mixing * dielectric matrix)
  average eigenvalue GAMMA=   2.1774
  2.1774

 Free energy of the ion-electron system (eV)
  ---------------------------------------------------
  alpha Z        PSCENC =       219.04272492
  Ewald energy   TEWEN  =     -2739.37335906
  -Hartree energ DENC   =      -178.69652540
  -exchange      EXHF   =         0.00000000
  -V(xc)+E(xc)   XCENC  =       229.07688388
  PAW double counting   =       768.45981849     -787.89697404
  entropy T*S    EENTRO =         0.00000000
  eigenvalues    EBANDS =       -11.49755026
  atomic energy  EATOM  =      2354.47077523
  ---------------------------------------------------
  free energy    TOTEN  =      -146.41420625 eV

  energy without entropy =     -146.41420625  energy(sigma->0) =     -146.41420625


--------------------------------------------------------------------------------------------------------




----------------------------------------- Iteration    1(   7)  ---------------------------------------


    POTLOK:  cpu time    0.62: real time    1.25
    SETDIJ:  cpu time    0.05: real time    0.11
     EDDAV:  cpu time   82.20: real time  164.48
 BZINTS: Fermi energy:  9.182939; 64.000000 electrons
         Band energy:  24.287809;  BLOECHL correction:  0.000000
       DOS:  cpu time    0.01: real time    0.02
    CHARGE:  cpu time    6.21: real time   12.43
    MIXING:  cpu time    0.02: real time    0.04
    --------------------------------------------
      LOOP:  cpu time   89.12: real time  178.34

 eigenvalue-minimisations  :  6862
 total energy-change (2. order) : 0.1110732E+01  (-0.2705992E+00)
 number of electron      64.0000001 magnetization 
 augmentation part        1.4446004 magnetization 

 Broyden mixing:
  rms(total) = 0.98377E-01    rms(broyden)= 0.98369E-01
  rms(prec ) = 0.15676E+00
  weight for this iteration     100.00

 eigenvalues of (default mixing * dielectric matrix)
  average eigenvalue GAMMA=   2.2508
  1.9950  2.5067

 Free energy of the ion-electron system (eV)
  ---------------------------------------------------
  alpha Z        PSCENC =       219.04272492
  Ewald energy   TEWEN  =     -2739.37335906
  -Hartree energ DENC   =      -215.92639981
  -exchange      EXHF   =         0.00000000
  -V(xc)+E(xc)   XCENC  =       232.59263233
  PAW double counting   =       987.55482264    -1007.95247920
  entropy T*S    EENTRO =         0.00000000
  eigenvalues    EBANDS =        24.28780858
  atomic energy  EATOM  =      2354.47077523
  ---------------------------------------------------
  free energy    TOTEN  =      -145.30347439 eV

  energy without entropy =     -145.30347439  energy(sigma->0) =     -145.30347439


--------------------------------------------------------------------------------------------------------




----------------------------------------- Iteration    1(   8)  ---------------------------------------


    POTLOK:  cpu time    0.62: real time    1.23
    SETDIJ:  cpu time    0.05: real time    0.11
     EDDAV:  cpu time   86.86: real time  173.81
 BZINTS: Fermi energy:  9.170380; 64.000000 electrons
         Band energy:  24.787786;  BLOECHL correction:  0.000000
       DOS:  cpu time    0.01: real time    0.02
    CHARGE:  cpu time    6.04: real time   12.09
    MIXING:  cpu time    0.02: real time    0.03
    --------------------------------------------
      LOOP:  cpu time   93.61: real time  187.30

 eigenvalue-minimisations  :  7371
 total energy-change (2. order) :-0.1392328E-01  (-0.5836559E-02)
 number of electron      64.0000001 magnetization 
 augmentation part        1.4463490 magnetization 

 Broyden mixing:
  rms(total) = 0.10377E-01    rms(broyden)= 0.10376E-01
  rms(prec ) = 0.16596E-01
  weight for this iteration     100.00

 eigenvalues of (default mixing * dielectric matrix)
  average eigenvalue GAMMA=   2.0907
  1.4709  2.6367  2.1645

 Free energy of the ion-electron system (eV)
  ---------------------------------------------------
  alpha Z        PSCENC =       219.04272492
  Ewald energy   TEWEN  =     -2739.37335906
  -Hartree energ DENC   =      -216.79304523
  -exchange      EXHF   =         0.00000000
  -V(xc)+E(xc)   XCENC  =       232.68055202
  PAW double counting   =      1001.70454725    -1021.83737891
  entropy T*S    EENTRO =         0.00000000
  eigenvalues    EBANDS =        24.78778612
  atomic energy  EATOM  =      2354.47077523
  ---------------------------------------------------
  free energy    TOTEN  =      -145.31739767 eV

  energy without entropy =     -145.31739767  energy(sigma->0) =     -145.31739767


--------------------------------------------------------------------------------------------------------




----------------------------------------- Iteration    1(   9)  ---------------------------------------


    POTLOK:  cpu time    0.63: real time    1.25
    SETDIJ:  cpu time    0.05: real time    0.10
     EDDAV:  cpu time   84.71: real time  169.51
 BZINTS: Fermi energy:  9.157293; 64.000000 electrons
         Band energy:  24.617824;  BLOECHL correction:  0.000000
       DOS:  cpu time    0.01: real time    0.02
    CHARGE:  cpu time    6.15: real time   12.29
    MIXING:  cpu time    0.02: real time    0.06
    --------------------------------------------
      LOOP:  cpu time   91.58: real time  183.26

 eigenvalue-minimisations  :  7125
 total energy-change (2. order) :-0.4769177E-03  (-0.1050846E-03)
 number of electron      64.0000001 magnetization 
 augmentation part        1.4458811 magnetization 

 Broyden mixing:
  rms(total) = 0.39097E-02    rms(broyden)= 0.39096E-02
  rms(prec ) = 0.62722E-02
  weight for this iteration     100.00

 eigenvalues of (default mixing * dielectric matrix)
  average eigenvalue GAMMA=   2.0238
  0.9676  2.7841  2.4192  1.9244

 Free energy of the ion-electron system (eV)
  ---------------------------------------------------
  alpha Z        PSCENC =       219.04272492
  Ewald energy   TEWEN  =     -2739.37335906
  -Hartree energ DENC   =      -216.63276602
  -exchange      EXHF   =         0.00000000
  -V(xc)+E(xc)   XCENC  =       232.66511903
  PAW double counting   =      1000.43030765    -1020.53850003
  entropy T*S    EENTRO =         0.00000000
  eigenvalues    EBANDS =        24.61782370
  atomic energy  EATOM  =      2354.47077523
  ---------------------------------------------------
  free energy    TOTEN  =      -145.31787458 eV

  energy without entropy =     -145.31787458  energy(sigma->0) =     -145.31787458


--------------------------------------------------------------------------------------------------------




----------------------------------------- Iteration    1(  10)  ---------------------------------------


    POTLOK:  cpu time    0.64: real time    1.27
    SETDIJ:  cpu time    0.05: real time    0.09
     EDDAV:  cpu time   83.87: real time  167.84
 BZINTS: Fermi energy:  9.151140; 64.000000 electrons
         Band energy:  24.654496;  BLOECHL correction:  0.000000
       DOS:  cpu time    0.01: real time    0.02
    CHARGE:  cpu time    6.15: real time   12.31
    MIXING:  cpu time    0.03: real time    0.05
    --------------------------------------------
      LOOP:  cpu time   90.75: real time  181.59

 eigenvalue-minimisations  :  7256
 total energy-change (2. order) :-0.1220697E-03  (-0.1134956E-04)
 number of electron      64.0000001 magnetization 
 augmentation part        1.4458915 magnetization 

 Broyden mixing:
  rms(total) = 0.90480E-03    rms(broyden)= 0.90478E-03
  rms(prec ) = 0.18125E-02
  weight for this iteration     100.00

 eigenvalues of (default mixing * dielectric matrix)
  average eigenvalue GAMMA=   1.9092
  2.8325  2.5262  2.0486  1.0693  1.0693

 Free energy of the ion-electron system (eV)
  ---------------------------------------------------
  alpha Z        PSCENC =       219.04272492
  Ewald energy   TEWEN  =     -2739.37335906
  -Hartree energ DENC   =      -216.67257342
  -exchange      EXHF   =         0.00000000
  -V(xc)+E(xc)   XCENC  =       232.66831518
  PAW double counting   =       999.59447433    -1019.70285026
  entropy T*S    EENTRO =         0.00000000
  eigenvalues    EBANDS =        24.65449644
  atomic energy  EATOM  =      2354.47077523
  ---------------------------------------------------
  free energy    TOTEN  =      -145.31799665 eV

  energy without entropy =     -145.31799665  energy(sigma->0) =     -145.31799665


--------------------------------------------------------------------------------------------------------




----------------------------------------- Iteration    1(  11)  ---------------------------------------


    POTLOK:  cpu time    0.61: real time    1.21
    SETDIJ:  cpu time    0.05: real time    0.09
     EDDAV:  cpu time   85.13: real time  170.34
 BZINTS: Fermi energy:  9.147138; 64.000000 electrons
         Band energy:  24.702836;  BLOECHL correction:  0.000000
       DOS:  cpu time    0.01: real time    0.02
    CHARGE:  cpu time    6.15: real time   12.31
    MIXING:  cpu time    0.02: real time    0.04
    --------------------------------------------
      LOOP:  cpu time   91.98: real time  184.04

 eigenvalue-minimisations  :  7153
 total energy-change (2. order) :-0.1554787E-05  (-0.8820583E-06)
 number of electron      64.0000001 magnetization 
 augmentation part        1.4458117 magnetization 

 Broyden mixing:
  rms(total) = 0.15044E-03    rms(broyden)= 0.15038E-03
  rms(prec ) = 0.27608E-03
  weight for this iteration     100.00

 eigenvalues of (default mixing * dielectric matrix)
  average eigenvalue GAMMA=   1.8364
  2.9346  2.5266  2.0379  1.4605  1.0293  1.0293

 Free energy of the ion-electron system (eV)
  ---------------------------------------------------
  alpha Z        PSCENC =       219.04272492
  Ewald energy   TEWEN  =     -2739.37335906
  -Hartree energ DENC   =      -216.72174315
  -exchange      EXHF   =         0.00000000
  -V(xc)+E(xc)   XCENC  =       232.67287031
  PAW double counting   =       999.65643717    -1019.76853976
  entropy T*S    EENTRO =         0.00000000
  eigenvalues    EBANDS =        24.70283614
  atomic energy  EATOM  =      2354.47077523
  ---------------------------------------------------
  free energy    TOTEN  =      -145.31799821 eV

  energy without entropy =     -145.31799821  energy(sigma->0) =     -145.31799821


--------------------------------------------------------------------------------------------------------




----------------------------------------- Iteration    1(  12)  ---------------------------------------


    POTLOK:  cpu time    0.62: real time    1.25
    SETDIJ:  cpu time    0.05: real time    0.09
     EDDAV:  cpu time   85.07: real time  170.23
 BZINTS: Fermi energy:  9.143535; 64.000000 electrons
         Band energy:  24.696547;  BLOECHL correction:  0.000000
       DOS:  cpu time    0.01: real time    0.02
    CHARGE:  cpu time    6.25: real time   12.50
    MIXING:  cpu time    0.02: real time    0.05
    --------------------------------------------
      LOOP:  cpu time   92.03: real time  184.16

 eigenvalue-minimisations  :  7183
 total energy-change (2. order) : 0.5707079E-07  (-0.4681608E-07)
 number of electron      64.0000001 magnetization 
 augmentation part        1.4458230 magnetization 

 Broyden mixing:
  rms(total) = 0.54409E-04    rms(broyden)= 0.54407E-04
  rms(prec ) = 0.94222E-04
  weight for this iteration     100.00

 eigenvalues of (default mixing * dielectric matrix)
  average eigenvalue GAMMA=   1.8162
  2.8673  2.5584  2.0809  1.5654  1.5654  1.0029  1.0730

 Free energy of the ion-electron system (eV)
  ---------------------------------------------------
  alpha Z        PSCENC =       219.04272492
  Ewald energy   TEWEN  =     -2739.37335906
  -Hartree energ DENC   =      -216.71565192
  -exchange      EXHF   =         0.00000000
  -V(xc)+E(xc)   XCENC  =       232.67230421
  PAW double counting   =       999.64678026    -1019.75811869
  entropy T*S    EENTRO =         0.00000000
  eigenvalues    EBANDS =        24.69654690
  atomic energy  EATOM  =      2354.47077523
  ---------------------------------------------------
  free energy    TOTEN  =      -145.31799815 eV

  energy without entropy =     -145.31799815  energy(sigma->0) =     -145.31799815


--------------------------------------------------------------------------------------------------------




----------------------------------------- Iteration    1(  13)  ---------------------------------------


    POTLOK:  cpu time    0.64: real time    1.27
    SETDIJ:  cpu time    0.05: real time    0.09
     EDDAV:  cpu time   86.20: real time  172.49
 BZINTS: Fermi energy:  9.140928; 64.000000 electrons
         Band energy:  24.698646;  BLOECHL correction:  0.000000
       DOS:  cpu time    0.01: real time    0.02
    CHARGE:  cpu time    5.52: real time   11.03
    MIXING:  cpu time    0.03: real time    0.06
    --------------------------------------------
      LOOP:  cpu time   92.44: real time  184.99

 eigenvalue-minimisations  :  7141
 total energy-change (2. order) :-0.1617955E-06  (-0.4837962E-08)
 number of electron      64.0000001 magnetization 
 augmentation part        1.4458171 magnetization 

 Broyden mixing:
  rms(total) = 0.28546E-04    rms(broyden)= 0.28545E-04
  rms(prec ) = 0.50652E-04
  weight for this iteration     100.00

 eigenvalues of (default mixing * dielectric matrix)
  average eigenvalue GAMMA=   1.7951
  2.9669  2.5832  2.3902  2.0083  0.9793  0.9793  1.2267  1.2267

 Free energy of the ion-electron system (eV)
  ---------------------------------------------------
  alpha Z        PSCENC =       219.04272492
  Ewald energy   TEWEN  =     -2739.37335906
  -Hartree energ DENC   =      -216.71780542
  -exchange      EXHF   =         0.00000000
  -V(xc)+E(xc)   XCENC  =       232.67250736
  PAW double counting   =       999.65789553    -1019.76938317
  entropy T*S    EENTRO =         0.00000000
  eigenvalues    EBANDS =        24.69864631
  atomic energy  EATOM  =      2354.47077523
  ---------------------------------------------------
  free energy    TOTEN  =      -145.31799831 eV

  energy without entropy =     -145.31799831  energy(sigma->0) =     -145.31799831


--------------------------------------------------------------------------------------------------------




----------------------------------------- Iteration    1(  14)  ---------------------------------------


    POTLOK:  cpu time    0.62: real time    1.22
    SETDIJ:  cpu time    0.05: real time    0.10
     EDDAV:  cpu time   64.51: real time  129.09
 BZINTS: Fermi energy:  9.140257; 64.000000 electrons
         Band energy:  24.698125;  BLOECHL correction:  0.000000
       DOS:  cpu time    0.01: real time    0.02
    --------------------------------------------
      LOOP:  cpu time   65.19: real time  130.44

 eigenvalue-minimisations  :  4869
 total energy-change (2. order) :-0.2123670E-08  (-0.7277506E-09)
 number of electron      64.0000001 magnetization 
 augmentation part        1.4458171 magnetization 

 Free energy of the ion-electron system (eV)
  ---------------------------------------------------
  alpha Z        PSCENC =       219.04272492
  Ewald energy   TEWEN  =     -2739.37335906
  -Hartree energ DENC   =      -216.71737765
  -exchange      EXHF   =         0.00000000
  -V(xc)+E(xc)   XCENC  =       232.67247033
  PAW double counting   =       999.66230177    -1019.77365894
  entropy T*S    EENTRO =         0.00000000
  eigenvalues    EBANDS =        24.69812509
  atomic energy  EATOM  =      2354.47077523
  ---------------------------------------------------
  free energy    TOTEN  =      -145.31799832 eV

  energy without entropy =     -145.31799832  energy(sigma->0) =     -145.31799832


--------------------------------------------------------------------------------------------------------




 average (electrostatic) potential at core
  the test charge radii are     0.6991
  (the norm of the test charge is              1.0000)
       1 -46.0539       2 -46.0538       3 -46.0595       4 -46.0480       5 -46.0595
       6 -46.0480       7 -46.0537       8 -46.0538       9 -46.0612      10 -46.0463
      11 -46.0538      12 -46.0538      13 -46.0538      14 -46.0538      15 -46.0563
      16 -46.0513
 
 
 
 E-fermi :   9.1403     XC(G=0): -12.9838     alpha+bet :-16.8673


 k-point     1 :       0.0000    0.0000    0.0000
  band No.  band energies     occupation 
      1     -11.7694      2.00000
      2      -6.2780      2.00000
      3      -6.2661      2.00000
      4      -6.2661      2.00000
      5      -6.2548      2.00000
      6      -3.7925      2.00000
      7      -3.7816      2.00000
      8      -3.7814      2.00000
      9      -3.7713      2.00000
     10      -3.3799      2.00000
     11      -3.3657      2.00000
     12      -3.3613      2.00000
     13      -3.3612      2.00000
     14      -3.3568      2.00000
     15      -3.3416      2.00000
     16       3.0462      2.00000
     17       3.0564      2.00000
     18       3.0571      2.00000
     19       3.0572      2.00000
     20       3.0579      2.00000
     21       3.0679      2.00000
     22       6.3604      2.00000
     23       6.3826      2.00000
     24       6.3896      2.00000
     25       6.3901      2.00000
     26       6.3927      2.00000
     27       6.3932      2.00000
     28       6.4004      2.00000
     29       6.4223      2.00000
     30       9.0510      2.00000
     31       9.0691      2.00000
     32       9.0877      2.00000
     33      13.7071      0.00000
     34      13.7188      0.00000
     35      13.7277      0.00000
     36      13.7278      0.00000
     37      13.7363      0.00000
     38      13.7469      0.00000
     39      14.5108      0.00000
     40      14.5270      0.00000
     41      14.5435      0.00000

 k-point     2 :       0.1667   -0.0000   -0.0000
  band No.  band energies     occupation 
      1     -11.5835      2.00000
      2      -7.3548      2.00000
      3      -6.2994      2.00000
      4      -6.2928      2.00000
      5      -6.2839      2.00000
      6      -4.5312      2.00000
      7      -4.5240      2.00000
      8      -4.5167      2.00000
      9      -3.4357      2.00000
     10      -3.4260      2.00000
     11      -3.4229      2.00000
     12      -2.3829      2.00000
     13      -2.0134      2.00000
     14      -2.0055      2.00000
     15      -1.9981      2.00000
     16       2.5318      2.00000
     17       2.5350      2.00000
     18       2.5449      2.00000
     19       3.2108      2.00000
     20       3.2182      2.00000
     21       3.2189      2.00000
     22       5.7526      2.00000
     23       5.7581      2.00000
     24       5.7809      2.00000
     25       6.0456      2.00000
     26       6.0559      2.00000
     27       6.0607      2.00000
     28       6.4997      2.00000
     29       6.5132      2.00000
     30       7.9017      2.00000
     31       8.7484      2.00000
     32       8.7644      2.00000
     33      13.7234      0.00000
     34      13.7287      0.00000
     35      13.7396      0.00000
     36      14.8264      0.00000
     37      14.8387      0.00000
     38      14.8462      0.00000
     39      14.9274      0.00000
     40      14.9430      0.00000
     41      15.1749      0.00000

 k-point     3 :       0.3333   -0.0000   -0.0000
  band No.  band energies     occupation 
      1     -11.0282      2.00000
      2      -8.8601      2.00000
      3      -6.2543      2.00000
      4      -6.2475      2.00000
      5      -6.2396      2.00000
      6      -5.4091      2.00000
      7      -5.4022      2.00000
      8      -5.3948      2.00000
      9      -2.5269      2.00000
     10      -2.5177      2.00000
     11      -2.5142      2.00000
     12      -0.9255      2.00000
     13      -0.9163      2.00000
     14      -0.9118      2.00000
     15       0.0223      2.00000
     16       1.7703      2.00000
     17       1.7732      2.00000
     18       1.7858      2.00000
     19       3.6803      2.00000
     20       3.6886      2.00000
     21       3.6889      2.00000
     22       4.2536      2.00000
     23       4.2591      2.00000
     24       4.2782      2.00000
     25       5.2720      2.00000
     26       5.2815      2.00000
     27       5.2842      2.00000
     28       5.4526      2.00000
     29       6.8442      2.00000
     30       6.8581      2.00000
     31       8.0841      2.00000
     32       8.0987      2.00000
     33      14.2012      0.00000
     34      14.2052      0.00000
     35      14.2163      0.00000
     36      15.7980      0.00000
     37      15.8140      0.00000
     38      15.9650      0.00000
     39      15.9697      0.00000
     40      15.9811      0.00000
     41      16.1462      0.00000

 k-point     4 :       0.5000   -0.0000   -0.0000
  band No.  band energies     occupation 
      1     -10.1204      2.00000
      2     -10.1047      2.00000
      3      -5.9897      2.00000
      4      -5.9753      2.00000
      5      -5.9742      2.00000
      6      -5.9714      2.00000
      7      -5.9699      2.00000
      8      -5.9536      2.00000
      9      -1.4006      2.00000
     10      -1.3827      2.00000
     11      -1.3805      2.00000
     12      -1.3759      2.00000
     13      -1.3754      2.00000
     14      -1.3706      2.00000
     15       2.5766      2.00000
     16       2.5794      2.00000
     17       2.5797      2.00000
     18       2.5842      2.00000
     19       2.5898      2.00000
     20       2.6142      2.00000
     21       2.6992      2.00000
     22       2.7224      2.00000
     23       4.3895      2.00000
     24       4.4056      2.00000
     25       4.4131      2.00000
     26       4.4191      2.00000
     27       4.4234      2.00000
     28       4.4246      2.00000
     29       7.3777      2.00000
     30       7.4049      2.00000
     31       7.4105      2.00000
     32       7.4113      2.00000
     33      14.9737      0.00000
     34      14.9793      0.00000
     35      14.9978      0.00000
     36      14.9995      0.00000
     37      15.0003      0.00000
     38      15.0037      0.00000
     39      16.6226      0.00000
     40      16.6363      0.00000
     41      16.6510      0.00000

 k-point     5 :       0.0000    0.1667   -0.0000
  band No.  band energies     occupation 
      1     -11.5835      2.00000
      2      -7.3539      2.00000
      3      -6.3020      2.00000
      4      -6.2928      2.00000
      5      -6.2839      2.00000
      6      -4.5351      2.00000
      7      -4.5242      2.00000
      8      -4.5135      2.00000
      9      -3.4356      2.00000
     10      -3.4258      2.00000
     11      -3.4161      2.00000
     12      -2.3881      2.00000
     13      -2.0162      2.00000
     14      -2.0049      2.00000
     15      -1.9931      2.00000
     16       2.5277      2.00000
     17       2.5335      2.00000
     18       2.5393      2.00000
     19       3.2121      2.00000
     20       3.2189      2.00000
     21       3.2258      2.00000
     22       5.7475      2.00000
     23       5.7548      2.00000
     24       5.7615      2.00000
     25       6.0531      2.00000
     26       6.0616      2.00000
     27       6.0705      2.00000
     28       6.4970      2.00000
     29       6.5208      2.00000
     30       7.8888      2.00000
     31       8.7498      2.00000
     32       8.7779      2.00000
     33      13.7227      0.00000
     34      13.7334      0.00000
     35      13.7435      0.00000
     36      14.8246      0.00000
     37      14.8359      0.00000
     38      14.8446      0.00000
     39      14.9151      0.00000
     40      14.9412      0.00000
     41      15.1860      0.00000

 k-point     6 :       0.1667    0.1667   -0.0000
  band No.  band energies     occupation 
      1     -11.5215      2.00000
      2      -6.7153      2.00000
      3      -6.7048      2.00000
      4      -6.7017      2.00000
      5      -6.6916      2.00000
      6      -5.7945      2.00000
      7      -3.2267      2.00000
      8      -3.2148      2.00000
      9      -3.2147      2.00000
     10      -3.2041      2.00000
     11      -2.9246      2.00000
     12      -2.9153      2.00000
     13      -2.9119      2.00000
     14      -2.9014      2.00000
     15      -0.6997      2.00000
     16       2.5592      2.00000
     17       2.5639      2.00000
     18       2.5679      2.00000
     19       2.5725      2.00000
     20       3.2923      2.00000
     21       3.3008      2.00000
     22       5.5424      2.00000
     23       5.5519      2.00000
     24       5.5603      2.00000
     25       5.5695      2.00000
     26       6.3221      2.00000
     27       6.3390      2.00000
     28       6.3417      2.00000
     29       6.3590      2.00000
     30       8.1988      2.00000
     31       8.2185      2.00000
     32       8.4525      2.00000
     33      13.1856      0.00000
     34      14.3312      0.00000
     35      14.6793      0.00000
     36      14.6929      0.00000
     37      14.6966      0.00000
     38      14.7089      0.00000
     39      14.8502      0.00000
     40      15.5867      0.00000
     41      15.6040      0.00000

 k-point     7 :       0.3333    0.1667   -0.0000
  band No.  band energies     occupation 
      1     -11.0894      2.00000
      2      -8.2205      2.00000
      3      -6.8988      2.00000
      4      -6.8890      2.00000
      5      -6.7783      2.00000
      6      -5.8544      2.00000
      7      -4.1970      2.00000
      8      -4.1865      2.00000
      9      -2.9932      2.00000
     10      -1.9945      2.00000
     11      -1.9841      2.00000
     12      -1.9102      2.00000
     13      -1.9007      2.00000
     14      -0.6971      2.00000
     15       0.5648      2.00000
     16       1.4295      2.00000
     17       1.4381      2.00000
     18       2.9463      2.00000
     19       2.9528      2.00000
     20       3.1476      2.00000
     21       3.6844      2.00000
     22       3.8007      2.00000
     23       4.5344      2.00000
     24       4.5434      2.00000
     25       5.6119      2.00000
     26       5.6369      2.00000
     27       5.8077      2.00000
     28       5.8229      2.00000
     29       6.2861      2.00000
     30       6.8331      2.00000
     31       7.4375      2.00000
     32       8.1442      2.00000
     33      13.5539      0.00000
     34      14.6087      0.00000
     35      14.9699      0.00000
     36      14.9821      0.00000
     37      16.1421      0.00000
     38      16.3851      0.00000
     39      16.5925      0.00000
     40      16.6223      0.00000
     41      16.9280      0.00000

 k-point     8 :       0.5000    0.1667   -0.0000
  band No.  band energies     occupation 
      1     -10.2938      2.00000
      2      -9.5694      2.00000
      3      -7.4344      2.00000
      4      -6.7905      2.00000
      5      -6.7808      2.00000
      6      -4.9644      2.00000
      7      -4.9134      2.00000
      8      -4.9025      2.00000
      9      -2.5672      2.00000
     10      -1.6902      2.00000
     11      -1.6804      2.00000
     12      -0.8425      2.00000
     13      -0.8324      2.00000
     14       0.6777      2.00000
     15       1.4411      2.00000
     16       1.4545      2.00000
     17       1.8643      2.00000
     18       1.8922      2.00000
     19       3.3009      2.00000
     20       3.3096      2.00000
     21       3.5464      2.00000
     22       3.6557      2.00000
     23       3.6632      2.00000
     24       3.6794      2.00000
     25       4.3512      2.00000
     26       4.6977      2.00000
     27       4.7095      2.00000
     28       4.7711      2.00000
     29       5.9315      2.00000
     30       6.7484      2.00000
     31       7.4942      2.00000
     32       7.5145      2.00000
     33      14.4711      0.00000
     34      15.4192      0.00000
     35      15.4519      0.00000
     36      15.5742      0.00000
     37      15.5868      0.00000
     38      15.9578      0.00000
     39      15.9709      0.00000
     40      16.6184      0.00000
     41      17.3324      0.00000

 k-point     9 :      -0.3333    0.1667    0.0000
  band No.  band energies     occupation 
      1     -10.5989      2.00000
      2      -9.1517      2.00000
      3      -7.7464      2.00000
      4      -6.3566      2.00000
      5      -6.3469      2.00000
      6      -5.4125      2.00000
      7      -5.4012      2.00000
      8      -4.1095      2.00000
      9      -2.6273      2.00000
     10      -2.6171      2.00000
     11      -2.1140      2.00000
     12      -0.3837      2.00000
     13      -0.0256      2.00000
     14      -0.0149      2.00000
     15       0.5681      2.00000
     16       0.9979      2.00000
     17       2.3874      2.00000
     18       2.3936      2.00000
     19       2.9078      2.00000
     20       2.9253      2.00000
     21       3.6360      2.00000
     22       3.6445      2.00000
     23       3.9980      2.00000
     24       4.5743      2.00000
     25       4.6040      2.00000
     26       4.6130      2.00000
     27       4.9499      2.00000
     28       5.1976      2.00000
     29       6.2624      2.00000
     30       6.5054      2.00000
     31       6.7983      2.00000
     32       8.2118      2.00000
     33      14.6561      0.00000
     34      15.0288      0.00000
     35      15.0417      0.00000
     36      15.5546      0.00000
     37      15.7687      0.00000
     38      16.1670      0.00000
     39      16.3950      0.00000
     40      16.4095      0.00000
     41      16.7897      0.00000

 k-point    10 :      -0.1667    0.1667    0.0000
  band No.  band energies     occupation 
      1     -11.2744      2.00000
      2      -7.7220      2.00000
      3      -7.7081      2.00000
      4      -5.8305      2.00000
      5      -5.8190      2.00000
      6      -5.5956      2.00000
      7      -5.5855      2.00000
      8      -3.3532      2.00000
      9      -3.3424      2.00000
     10      -3.3059      2.00000
     11      -2.9089      2.00000
     12      -1.5115      2.00000
     13      -1.4970      2.00000
     14      -0.7134      2.00000
     15      -0.7026      2.00000
     16       1.2035      2.00000
     17       2.7173      2.00000
     18       2.7198      2.00000
     19       2.9847      2.00000
     20       2.9974      2.00000
     21       3.4578      2.00000
     22       4.5300      2.00000
     23       4.5479      2.00000
     24       5.5552      2.00000
     25       5.5644      2.00000
     26       6.0161      2.00000
     27       6.0366      2.00000
     28       6.1843      2.00000
     29       6.1947      2.00000
     30       6.9058      2.00000
     31       7.4161      2.00000
     32       8.7442      2.00000
     33      14.1244      0.00000
     34      14.1810      0.00000
     35      14.1943      0.00000
     36      15.0346      0.00000
     37      15.7331      0.00000
     38      15.7546      0.00000
     39      15.7620      0.00000
     40      16.0816      0.00000
     41      16.6482      0.00000

 k-point    11 :       0.0000    0.3333    0.0000
  band No.  band energies     occupation 
      1     -11.0282      2.00000
      2      -8.8599      2.00000
      3      -6.2576      2.00000
      4      -6.2476      2.00000
      5      -6.2381      2.00000
      6      -5.4129      2.00000
      7      -5.4024      2.00000
      8      -5.3919      2.00000
      9      -2.5278      2.00000
     10      -2.5170      2.00000
     11      -2.5064      2.00000
     12      -0.9258      2.00000
     13      -0.9139      2.00000
     14      -0.9020      2.00000
     15       0.0172      2.00000
     16       1.7628      2.00000
     17       1.7693      2.00000
     18       1.7759      2.00000
     19       3.6823      2.00000
     20       3.6895      2.00000
     21       3.6965      2.00000
     22       4.2469      2.00000
     23       4.2559      2.00000
     24       4.2646      2.00000
     25       5.2767      2.00000
     26       5.2850      2.00000
     27       5.2928      2.00000
     28       5.4446      2.00000
     29       6.8421      2.00000
     30       6.8659      2.00000
     31       8.0840      2.00000
     32       8.1096      2.00000
     33      14.2010      0.00000
     34      14.2113      0.00000
     35      14.2210      0.00000
     36      15.7878      0.00000
     37      15.8157      0.00000
     38      15.9677      0.00000
     39      15.9769      0.00000
     40      15.9881      0.00000
     41      16.1519      0.00000

 k-point    12 :       0.1667    0.3333   -0.0000
  band No.  band energies     occupation 
      1     -11.0894      2.00000
      2      -8.2203      2.00000
      3      -6.8989      2.00000
      4      -6.8890      2.00000
      5      -6.7784      2.00000
      6      -5.8570      2.00000
      7      -4.1975      2.00000
      8      -4.1868      2.00000
      9      -2.9863      2.00000
     10      -1.9952      2.00000
     11      -1.9839      2.00000
     12      -1.9078      2.00000
     13      -1.8978      2.00000
     14      -0.7020      2.00000
     15       0.5691      2.00000
     16       1.4253      2.00000
     17       1.4314      2.00000
     18       2.9495      2.00000
     19       2.9573      2.00000
     20       3.1426      2.00000
     21       3.6848      2.00000
     22       3.7938      2.00000
     23       4.5293      2.00000
     24       4.5391      2.00000
     25       5.6190      2.00000
     26       5.6396      2.00000
     27       5.8094      2.00000
     28       5.8311      2.00000
     29       6.2750      2.00000
     30       6.8295      2.00000
     31       7.4362      2.00000
     32       8.1593      2.00000
     33      13.5555      0.00000
     34      14.6037      0.00000
     35      14.9744      0.00000
     36      14.9880      0.00000
     37      16.1407      0.00000
     38      16.3863      0.00000
     39      16.5920      0.00000
     40      16.6269      0.00000
     41      16.9267      0.00000

 k-point    13 :       0.3333    0.3333   -0.0000
  band No.  band energies     occupation 
      1     -10.7815      2.00000
      2      -7.8853      2.00000
      3      -7.2669      2.00000
      4      -7.2573      2.00000
      5      -7.2528      2.00000
      6      -7.2433      2.00000
      7      -2.8766      2.00000
      8      -2.8648      2.00000
      9      -2.8645      2.00000
     10      -2.8532      2.00000
     11      -1.1254      2.00000
     12      -1.1155      2.00000
     13      -1.1108      2.00000
     14      -1.1007      2.00000
     15       1.6234      2.00000
     16       1.6276      2.00000
     17       1.6318      2.00000
[...]
     24       3.6706      2.00000
     25       4.3624      2.00000
     26       4.6940      2.00000
     27       4.7048      2.00000
     28       4.7837      2.00000
     29       5.9320      2.00000
     30       6.7610      2.00000
     31       7.5070      2.00000
     32       7.5206      2.00000
     33      14.4802      0.00000
     34      15.4212      0.00000
     35      15.4625      0.00000
     36      15.5817      0.00000
     37      15.5938      0.00000
     38      15.9673      0.00000
     39      15.9806      0.00000
     40      16.6053      0.00000
     41      17.3461      0.00000

 k-point    67 :      -0.3333    0.3333    0.5000
  band No.  band energies     occupation 
      1      -9.6349      2.00000
      2      -9.6191      2.00000
      3      -8.1967      2.00000
      4      -8.1963      2.00000
      5      -5.5609      2.00000
      6      -5.5489      2.00000
      7      -4.6013      2.00000
      8      -4.5899      2.00000
      9      -1.9669      2.00000
     10      -1.9586      2.00000
     11      -1.0661      2.00000
     12      -1.0627      2.00000
     13       0.7867      2.00000
     14       0.7944      2.00000
     15       1.4137      2.00000
     16       1.4257      2.00000
     17       1.5711      2.00000
     18       1.5873      2.00000
     19       2.8757      2.00000
     20       2.8931      2.00000
     21       3.7001      2.00000
     22       3.7075      2.00000
     23       3.7328      2.00000
     24       3.7483      2.00000
     25       4.0963      2.00000
     26       4.1060      2.00000
     27       5.0627      2.00000
     28       5.0777      2.00000
     29       5.2621      2.00000
     30       5.2789      2.00000
     31       7.1409      2.00000
     32       7.1517      2.00000
     33      15.2740      0.00000
     34      15.2922      0.00000
     35      15.6481      0.00000
     36      15.6621      0.00000
     37      16.0903      0.00000
     38      16.0991      0.00000
     39      17.5094      0.00000
     40      17.5287      0.00000
     41      17.9631      0.00000

 k-point    68 :      -0.1667    0.3333    0.5000
  band No.  band energies     occupation 
      1      -9.3228      2.00000
      2      -9.3225      2.00000
      3      -8.6205      2.00000
      4      -8.6064      2.00000
      5      -5.9405      2.00000
      6      -5.9265      2.00000
      7      -4.1998      2.00000
      8      -4.1959      2.00000
      9      -1.5616      2.00000
     10      -1.5516      2.00000
     11      -0.5713      2.00000
     12      -0.5698      2.00000
     13       0.5303      2.00000
     14       0.5336      2.00000
     15       0.8551      2.00000
     16       0.8600      2.00000
     17       1.9894      2.00000
     18       1.9907      2.00000
     19       2.8265      2.00000
     20       2.8371      2.00000
     21       3.1021      2.00000
     22       3.1080      2.00000
     23       3.4594      2.00000
     24       3.4746      2.00000
     25       4.4697      2.00000
     26       4.4710      2.00000
     27       4.8174      2.00000
     28       4.8253      2.00000
     29       5.9485      2.00000
     30       5.9658      2.00000
     31       6.4820      2.00000
     32       6.4903      2.00000
     33      14.3950      0.00000
     34      14.4000      0.00000
     35      16.6464      0.00000
     36      16.6543      0.00000
     37      16.7494      0.00000
     38      16.7632      0.00000
     39      17.9166      0.00000
     40      17.9303      0.00000
     41      17.9428      0.00000

 k-point    69 :       0.0000    0.5000    0.5000
  band No.  band energies     occupation 
      1      -9.5616      2.00000
      2      -9.5614      2.00000
      3      -7.4777      2.00000
      4      -7.4616      2.00000
      5      -7.4616      2.00000
      6      -7.4456      2.00000
      7      -2.6572      2.00000
      8      -2.6461      2.00000
      9      -2.6448      2.00000
     10      -2.6338      2.00000
     11       0.5907      2.00000
     12       0.6027      2.00000
     13       0.6030      2.00000
     14       0.6142      2.00000
     15       1.1463      2.00000
     16       1.1521      2.00000
     17       1.1573      2.00000
     18       1.1628      2.00000
     19       1.7843      2.00000
     20       1.7910      2.00000
     21       1.7910      2.00000
     22       1.7976      2.00000
     23       4.6057      2.00000
     24       4.6068      2.00000
     25       5.1442      2.00000
     26       5.1444      2.00000
     27       5.1444      2.00000
     28       5.1456      2.00000
     29       6.1834      2.00000
     30       6.1943      2.00000
     31       6.1950      2.00000
     32       6.2056      2.00000
     33      13.3944      0.00000
     34      13.3950      0.00000
     35      16.7307      0.00000
     36      16.7447      0.00000
     37      16.7447      0.00000
     38      16.7563      0.00000
     39      18.7373      0.00000
     40      18.7475      0.00000
     41      18.7549      0.00000

 k-point    70 :       0.1667    0.5000    0.5000
  band No.  band energies     occupation 
      1     -10.1092      2.00000
      2      -8.6795      2.00000
      3      -8.6577      2.00000
      4      -7.2911      2.00000
      5      -7.2909      2.00000
      6      -6.0160      2.00000
      7      -3.7232      2.00000
      8      -3.7230      2.00000
      9      -1.9624      2.00000
     10      -1.9623      2.00000
     11      -1.2363      2.00000
     12      -0.0431      2.00000
     13      -0.0431      2.00000
     14       0.7966      2.00000
     15       0.7996      2.00000
     16       1.2856      2.00000
     17       1.4759      2.00000
     18       2.3275      2.00000
     19       2.3301      2.00000
     20       2.5392      2.00000
     21       2.5402      2.00000
     22       2.8020      2.00000
     23       3.7533      2.00000
     24       4.5027      2.00000
     25       4.5459      2.00000
     26       4.6068      2.00000
     27       5.3985      2.00000
     28       5.6816      2.00000
     29       5.6833      2.00000
     30       5.9072      2.00000
     31       6.4858      2.00000
     32       6.9956      2.00000
     33      13.7105      0.00000
     34      14.1142      0.00000
     35      16.0568      0.00000
     36      17.2742      0.00000
     37      17.4161      0.00000
     38      17.4266      0.00000
     39      17.4528      0.00000
     40      17.4676      0.00000
     41      17.4872      0.00000

 k-point    71 :       0.3333    0.5000    0.5000
  band No.  band energies     occupation 
      1     -10.2938      2.00000
      2      -9.5692      2.00000
      3      -7.4347      2.00000
      4      -6.7864      2.00000
      5      -6.7863      2.00000
      6      -4.9668      2.00000
      7      -4.9100      2.00000
      8      -4.9091      2.00000
      9      -2.5586      2.00000
     10      -1.6779      2.00000
     11      -1.6777      2.00000
     12      -0.8319      2.00000
     13      -0.8319      2.00000
     14       0.6889      2.00000
     15       1.4321      2.00000
     16       1.4374      2.00000
     17       1.8527      2.00000
     18       1.8791      2.00000
     19       3.2914      2.00000
     20       3.2987      2.00000
     21       3.5278      2.00000
     22       3.6624      2.00000
     23       3.6637      2.00000
     24       3.6720      2.00000
     25       4.3580      2.00000
     26       4.7036      2.00000
     27       4.7124      2.00000
     28       4.7786      2.00000
     29       5.9397      2.00000
     30       6.7526      2.00000
     31       7.5013      2.00000
     32       7.5265      2.00000
     33      14.4780      0.00000
     34      15.4159      0.00000
     35      15.4581      0.00000
     36      15.5890      0.00000
     37      15.5904      0.00000
     38      15.9749      0.00000
     39      15.9758      0.00000
     40      16.6203      0.00000
     41      17.2754      0.00000

 k-point    72 :       0.5000    0.5000    0.5000
  band No.  band energies     occupation 
      1     -10.1203      2.00000
      2     -10.1046      2.00000
      3      -5.9922      2.00000
      4      -5.9758      2.00000
      5      -5.9742      2.00000
      6      -5.9714      2.00000
      7      -5.9704      2.00000
      8      -5.9564      2.00000
      9      -1.3839      2.00000
     10      -1.3791      2.00000
     11      -1.3786      2.00000
     12      -1.3740      2.00000
     13      -1.3717      2.00000
     14      -1.3538      2.00000
     15       2.5367      2.00000
     16       2.5716      2.00000
     17       2.5766      2.00000
     18       2.5817      2.00000
     19       2.5822      2.00000
     20       2.5846      2.00000
     21       2.6909      2.00000
     22       2.7040      2.00000
     23       4.4092      2.00000
     24       4.4104      2.00000
     25       4.4146      2.00000
     26       4.4207      2.00000
     27       4.4286      2.00000
     28       4.4444      2.00000
     29       7.3983      2.00000
     30       7.3990      2.00000
     31       7.4048      2.00000
     32       7.4322      2.00000
     33      14.9895      0.00000
     34      14.9935      0.00000
     35      14.9941      0.00000
     36      14.9960      0.00000
     37      15.0137      0.00000
     38      15.0192      0.00000
     39      16.6167      0.00000
     40      16.6343      0.00000
     41      16.6412      0.00000


--------------------------------------------------------------------------------------------------------


 soft charge-density along one line, spin component           1
         0         1         2         3         4         5         6         7         8         9
 total charge-density along one line
 
 pseudopotential strength for first ion, spin component:           1
  9.478  -0.004   0.000   0.000   0.000  -0.000  -0.000  -0.000
 -0.004  -0.002   0.000   0.000   0.000  -0.000  -0.000  -0.000
  0.000   0.000  -3.696  -0.000  -0.000  -0.007  -0.000  -0.000
  0.000   0.000  -0.000  -3.696  -0.000  -0.000  -0.007  -0.000
  0.000   0.000  -0.000  -0.000  -3.696  -0.000  -0.000  -0.007
 -0.000  -0.000  -0.007  -0.000  -0.000  -0.758   0.000  -0.000
 -0.000  -0.000  -0.000  -0.007  -0.000   0.000  -0.758  -0.000
 -0.000  -0.000  -0.000  -0.000  -0.007  -0.000  -0.000  -0.758
 total augmentation occupancy for first ion, spin component:           1
  1.415  -0.936   0.000   0.000   0.005   0.000   0.000   0.001
 -0.936   0.884  -0.000  -0.000  -0.004  -0.000  -0.000  -0.002
  0.000  -0.000   1.076   0.000   0.003   0.170   0.000   0.002
  0.000  -0.000   0.000   1.076   0.002   0.000   0.170   0.001
  0.005  -0.004   0.003   0.002   1.076   0.002   0.001   0.170
  0.000  -0.000   0.170   0.000   0.002   0.033   0.000   0.000
  0.000  -0.000   0.000   0.170   0.001   0.000   0.033   0.000
  0.001  -0.002   0.002   0.001   0.170   0.000   0.000   0.033


------------------------ aborting loop because EDIFF is reached ----------------------------------------


    CHARGE:  cpu time    5.90: real time   11.79
    FORLOC:  cpu time    0.12: real time    0.24
    FORNL :  cpu time   18.71: real time   37.45
    STRESS:  cpu time   31.22: real time   50.36
    FORHAR:  cpu time    0.21: real time    0.21
    MIXING:  cpu time    0.03: real time    0.03
    OFIELD:  cpu time    0.00: real time    0.00

 ---------------------------------------------------------------------------------------------

         DFTD3 V3.0 Rev 1        
 IVDW         = 12
 DF pbe       
 parameters
 VDW_S6       =    1.0000
 VDW_S8       =    0.7875
 VDW_A1       =    0.4289
 VDW_A2       =    4.4407
 k1-k3        =   16.0000    1.3333   -4.0000
 VDW_RADIUS   =   50.2022 A
 VDW_CNRADIUS =   21.1671 A
 Edisp (eV)   -2.91770

 E6    (eV) :    -2.0769
 E8    (eV) :    -0.8408
 % E8        : 28.82
    FORVDW:  cpu time    0.19: real time    0.19

  FORCE on cell =-STRESS in cart. coord.  units (eV):
  Direction    XX          YY          ZZ          XY          YZ          ZX
  --------------------------------------------------------------------------------------
  Alpha Z   219.04272   219.04272   219.04272
  Ewald    -913.12722  -913.12396  -913.13101     1.44020     0.00990     1.01838
  Hartree    72.23746    72.24021    72.23924     0.23036     0.00136     0.16289
  E(xc)    -236.83553  -236.83555  -236.83556     0.00492     0.00003     0.00348
  Local     -98.35979   -98.37194   -98.36293    -1.46373    -0.01270    -1.03501
  n-local   -52.78133   -52.59210   -52.97246     0.10117    -0.06847    -0.11280
  augment    -5.37275    -5.37270    -5.37273    -0.00094     0.00003    -0.00066
  Kinetic  1004.74547  1003.28087  1006.22173    -1.03505     0.52652     1.00619
  Fock        0.00000     0.00000     0.00000     0.00000     0.00000     0.00000
  vdW        -2.89389    -2.89389    -2.89389    -0.00013    -0.00000    -0.00009
  -------------------------------------------------------------------------------------
  Total     -13.34485   -13.34439   -13.34682     0.00924     0.00343     0.00653
  in kB    -224.52320  -224.51554  -224.55633     0.15547     0.05769     0.10993
  external pressure =     -224.53 kB  Pullay stress =        0.00 kB


 VOLUME and BASIS-vectors are now :
 -----------------------------------------------------------------------------
  energy-cutoff  :      800.00
  volume of cell :       95.23
      direct lattice vectors                 reciprocal lattice vectors
     5.125772673  0.000000000  0.000000000     0.195092538 -0.112636729 -0.079646195
     2.562886336  4.439049349  0.000000000     0.000000000  0.225273459 -0.079646195
     2.562886336  1.479683116  4.185175862     0.000000000  0.000000000  0.238938585

  length of vectors
     5.125772673  5.125772673  5.125772672     0.238938585  0.238938585  0.238938585


 FORCES acting on ions
    electron-ion (+dipol)            ewald-force                    non-local-force                 convergence-correction
 -----------------------------------------------------------------------------------------------
   0.132E+01 0.139E-01 0.986E-02   -.152E+01 -.167E-01 -.118E-01   -.206E+00 -.690E-03 -.488E-03   0.481E-04 0.467E-05 0.330E-05
   -.521E+00 0.222E-03 0.157E-03   0.556E+00 -.902E-06 -.254E-05   0.270E-01 -.193E-03 -.137E-03   -.535E-04 0.225E-05 0.159E-05
   -.604E-01 -.266E+00 -.269E-01   0.489E-01 0.293E+00 0.144E-01   0.130E-01 0.804E-02 0.151E-02   0.132E-05 -.361E-04 0.224E-04
   -.604E-01 0.266E+00 0.269E-01   0.489E-01 -.293E+00 -.144E-01   0.131E-01 -.804E-02 -.160E-02   0.178E-05 0.292E-04 -.171E-04
   -.604E-01 -.114E+00 -.242E+00   0.489E-01 0.111E+00 0.271E+00   0.130E-01 0.411E-02 0.707E-02   0.132E-05 0.910E-05 -.415E-04
   -.604E-01 0.114E+00 0.242E+00   0.489E-01 -.111E+00 -.271E+00   0.131E-01 -.419E-02 -.705E-02   0.178E-05 -.639E-05 0.332E-04
   0.137E+00 -.570E-04 -.403E-04   -.144E+00 -.902E-06 -.254E-05   0.588E-02 0.241E-04 0.170E-04   -.929E-05 -.155E-05 -.110E-05
   -.950E-01 0.285E-04 0.202E-04   0.101E+00 -.902E-06 -.254E-05   -.227E-02 -.867E-06 -.613E-06   0.838E-05 -.209E-06 -.148E-06
   -.601E+00 -.648E+00 -.458E+00   0.698E+00 0.694E+00 0.491E+00   0.125E-01 -.222E-01 -.157E-01   -.768E-06 -.763E-05 -.539E-05
   -.600E+00 0.638E+00 0.451E+00   0.695E+00 -.681E+00 -.482E+00   0.979E-02 0.229E-01 0.162E-01   0.568E-05 0.101E-04 0.713E-05
   0.513E+00 -.541E-02 0.199E-02   -.494E+00 0.549E-02 -.174E-02   0.502E-01 0.214E-03 -.113E-03   0.189E-04 -.528E-06 0.320E-05
   -.193E+00 0.131E-02 -.250E-03   0.183E+00 -.140E-02 0.264E-03   0.357E-02 0.155E-04 0.321E-05   -.224E-04 -.230E-05 0.328E-05
   0.513E+00 0.707E-04 -.576E-02   -.494E+00 0.185E-03 0.576E-02   0.502E-01 -.354E-04 0.240E-03   0.189E-04 0.284E-05 -.156E-05
   -.193E+00 0.196E-03 0.133E-02   0.183E+00 -.218E-03 -.140E-02   0.357E-02 0.819E-05 0.135E-04   -.224E-04 0.233E-05 -.326E-05
   -.184E-01 -.100E+00 -.710E-01   0.194E-01 0.942E-01 0.666E-01   -.331E-02 0.400E-02 0.283E-02   0.113E-05 -.176E-04 -.125E-04
   -.190E-01 0.100E+00 0.710E-01   0.201E-01 -.943E-01 -.667E-01   -.335E-02 -.397E-02 -.281E-02   -.101E-05 0.113E-04 0.802E-05
 -----------------------------------------------------------------------------------------------
   0.776E-05 -.211E-04 0.320E-04   0.175E-14 -.153E-13 -.194E-13   -.830E-05 -.171E-05 -.121E-05   -.213E-05 -.568E-06 -.402E-06
 
 
 POSITION                                       TOTAL-FORCE (eV/Angst)
 -----------------------------------------------------------------------------------
      0.01000      0.00000      0.00000        -0.406649     -0.003490     -0.002468
      2.56289      0.00000      0.00000         0.061668      0.000030      0.000021
      1.28144      2.21952      0.00000         0.001537      0.034663     -0.010923
      3.84433      2.21952      0.00000         0.001586     -0.034736      0.010845
      1.28144      0.73984      2.09259         0.001537      0.001256      0.036322
      3.84433      0.73984      2.09259         0.001586     -0.001354     -0.036364
      2.56289      2.95937      2.09259        -0.000701     -0.000036     -0.000026
      5.12577      2.95937      2.09259         0.004081      0.000026      0.000018
      1.28144      0.73984      0.52315         0.109872      0.023893      0.016895
      3.84433      0.73984      0.52315         0.104782     -0.020651     -0.014603
      2.56289      2.95937      0.52315         0.068804      0.000290      0.000138
      5.12577      2.95937      0.52315        -0.006161     -0.000071      0.000016
      2.56289      1.47968      2.61573         0.068804      0.000227      0.000228
      5.12577      1.47968      2.61573        -0.006161     -0.000008     -0.000072
      3.84433      3.69921      2.61573        -0.002305     -0.002255     -0.001594
      6.40722      3.69921      2.61573        -0.002281      0.002216      0.001567
 -----------------------------------------------------------------------------------
    total drift:                               -0.000003     -0.000023      0.000030


--------------------------------------------------------------------------------------------------------



  FREE ENERGIE OF THE ION-ELECTRON SYSTEM (eV)
  ---------------------------------------------------
  free  energy   TOTEN  =      -148.23569706 eV

  energy  without entropy=     -148.23569706  energy(sigma->0) =     -148.23569706
 


--------------------------------------------------------------------------------------------------------


    POTLOK:  cpu time    0.69: real time    0.69


--------------------------------------------------------------------------------------------------------


     LOOP+:  cpu time 1282.99: real time 2552.74
    4ORBIT:  cpu time    0.00: real time    0.00
 BZINTS: Fermi energy:  9.140257; 64.000000 electrons
         Band energy:  24.698125;  BLOECHL correction:  0.000000

 total amount of memory used by VASP on root node   370294. kBytes
========================================================================

   base      :      30000. kBytes
   nonl-proj :      23896. kBytes
   fftplans  :      30736. kBytes
   grid      :      47517. kBytes
   one-center:         49. kBytes
   wavefun   :     238096. kBytes
 
  
  
 General timing and accounting informations for this job:
 ========================================================
  
                  Total CPU time used (sec):     1289.620
                            User time (sec):     1223.353
                          System time (sec):       66.267
                         Elapsed time (sec):     2566.143
  
                   Maximum memory used (kb):      410040.
                   Average memory used (kb):           0.
  
                          Minor page faults:     10473496
                          Major page faults:            0
                 Voluntary context switches:          740
