  48  48   0   0
  0.1019784E+02  0.7499252E-09  0.9554792E-09  0.6831406E-09  0.5000000E-15
  1.000000000000000E-004
  CAR 
 benzene                                 
     10.05877840    -18.98962962  301     -1.73003385      1.00000000
    -18.990  0.0000E+00  0.0000E+00
    -18.893  0.0000E+00  0.0000E+00
    -18.796  0.0000E+00  0.0000E+00
    -18.699  0.0000E+00  0.0000E+00
    -18.602  0.0000E+00  0.0000E+00
    -18.505  0.0000E+00  0.0000E+00
    -18.409  0.0000E+00  0.0000E+00
    -18.312  0.0000E+00  0.0000E+00
    -18.215  0.0000E+00  0.0000E+00
    -18.118  0.0000E+00  0.0000E+00
    -18.021  0.0000E+00  0.0000E+00
    -17.925  0.0000E+00  0.0000E+00
    -17.828  0.0000E+00  0.0000E+00
    -17.731  0.0000E+00  0.0000E+00
    -17.634  0.0000E+00  0.0000E+00
    -17.537  0.0000E+00  0.0000E+00
    -17.440  0.0000E+00  0.0000E+00
    -17.344  0.0000E+00  0.0000E+00
    -17.247  0.0000E+00  0.0000E+00
    -17.150  0.0000E+00  0.0000E+00
    -17.053  0.0000E+00  0.0000E+00
    -16.956  0.9213E-01  0.1293E-02
    -16.859  0.3938E+00  0.3525E-01
    -16.763  0.0000E+00  0.4000E-01
    -16.666  0.0000E+00  0.4000E-01
    -16.569  0.0000E+00  0.4000E-01
    -16.472  0.0000E+00  0.4000E-01
    -16.375  0.0000E+00  0.4000E-01
    -16.278  0.0000E+00  0.4000E-01
    -16.182  0.0000E+00  0.4000E-01
    -16.085  0.0000E+00  0.4000E-01
    -15.988  0.0000E+00  0.4000E-01
    -15.891  0.0000E+00  0.4000E-01
    -15.794  0.0000E+00  0.4000E-01
    -15.697  0.0000E+00  0.4000E-01
    -15.601  0.0000E+00  0.4000E-01
    -15.504  0.0000E+00  0.4000E-01
    -15.407  0.0000E+00  0.4000E-01
    -15.310  0.0000E+00  0.4000E-01
    -15.213  0.0000E+00  0.4000E-01
    -15.117  0.0000E+00  0.4000E-01
    -15.020  0.0000E+00  0.4000E-01
    -14.923  0.0000E+00  0.4000E-01
    -14.826  0.0000E+00  0.4000E-01
    -14.729  0.0000E+00  0.4000E-01
    -14.632  0.0000E+00  0.4000E-01
    -14.536  0.0000E+00  0.4000E-01
    -14.439  0.0000E+00  0.4000E-01
    -14.342  0.0000E+00  0.4000E-01
    -14.245  0.1515E-01  0.4012E-01
    -14.148  0.5188E+00  0.5722E-01
    -14.051  0.5549E+00  0.9964E-01
    -13.955  0.0000E+00  0.1200E+00
    -13.858  0.0000E+00  0.1200E+00
    -13.761  0.0000E+00  0.1200E+00
    -13.664  0.0000E+00  0.1200E+00
    -13.567  0.0000E+00  0.1200E+00
    -13.470  0.0000E+00  0.1200E+00
    -13.374  0.0000E+00  0.1200E+00
    -13.277  0.0000E+00  0.1200E+00
    -13.180  0.0000E+00  0.1200E+00
    -13.083  0.0000E+00  0.1200E+00
    -12.986  0.0000E+00  0.1200E+00
    -12.889  0.0000E+00  0.1200E+00
    -12.793  0.0000E+00  0.1200E+00
    -12.696  0.0000E+00  0.1200E+00
    -12.599  0.0000E+00  0.1200E+00
    -12.502  0.0000E+00  0.1200E+00
    -12.405  0.0000E+00  0.1200E+00
    -12.308  0.0000E+00  0.1200E+00
    -12.212  0.0000E+00  0.1200E+00
    -12.115  0.0000E+00  0.1200E+00
    -12.018  0.0000E+00  0.1200E+00
    -11.921  0.0000E+00  0.1200E+00
    -11.824  0.0000E+00  0.1200E+00
    -11.728  0.0000E+00  0.1200E+00
    -11.631  0.0000E+00  0.1200E+00
    -11.534  0.0000E+00  0.1200E+00
    -11.437  0.0000E+00  0.1200E+00
    -11.340  0.0000E+00  0.1200E+00
    -11.243  0.0000E+00  0.1200E+00
    -11.147  0.0000E+00  0.1200E+00
    -11.050  0.0000E+00  0.1200E+00
    -10.953  0.0000E+00  0.1200E+00
    -10.856  0.0000E+00  0.1200E+00
    -10.759  0.0000E+00  0.1200E+00
    -10.662  0.0000E+00  0.1200E+00
    -10.566  0.4542E+00  0.1230E+00
    -10.469  0.5044E-01  0.1601E+00
    -10.372  0.2367E+00  0.1943E+00
    -10.275  0.3079E-03  0.2000E+00
    -10.178  0.0000E+00  0.2000E+00
    -10.081  0.0000E+00  0.2000E+00
     -9.985  0.0000E+00  0.2000E+00
     -9.888  0.0000E+00  0.2000E+00
     -9.791  0.0000E+00  0.2000E+00
     -9.694  0.0000E+00  0.2000E+00
     -9.597  0.0000E+00  0.2000E+00
     -9.500  0.0000E+00  0.2000E+00
     -9.404  0.0000E+00  0.2000E+00
     -9.307  0.0000E+00  0.2000E+00
     -9.210  0.0000E+00  0.2000E+00
     -9.113  0.0000E+00  0.2000E+00
     -9.016  0.0000E+00  0.2000E+00
     -8.920  0.0000E+00  0.2000E+00
     -8.823  0.9314E-02  0.2001E+00
     -8.726  0.3467E-01  0.2025E+00
     -8.629  0.6828E-01  0.2072E+00
     -8.532  0.1475E+00  0.2180E+00
     -8.435  0.1069E+00  0.2319E+00
     -8.339  0.3592E-01  0.2381E+00
     -8.242  0.4694E-02  0.2399E+00
     -8.145  0.0000E+00  0.2400E+00
     -8.048  0.0000E+00  0.2400E+00
     -7.951  0.0000E+00  0.2400E+00
     -7.854  0.0000E+00  0.2400E+00
     -7.758  0.0000E+00  0.2400E+00
     -7.661  0.0000E+00  0.2400E+00
     -7.564  0.0000E+00  0.2400E+00
     -7.467  0.0000E+00  0.2400E+00
     -7.370  0.0000E+00  0.2400E+00
     -7.273  0.0000E+00  0.2400E+00
     -7.177  0.0000E+00  0.2400E+00
     -7.080  0.4098E-02  0.2400E+00
     -6.983  0.5535E-01  0.2428E+00
     -6.886  0.1683E+00  0.2535E+00
     -6.789  0.1407E+00  0.2670E+00
     -6.692  0.5846E-01  0.2769E+00
     -6.596  0.0000E+00  0.2800E+00
     -6.499  0.1847E-02  0.3200E+00
     -6.402  0.0000E+00  0.3200E+00
     -6.305  0.0000E+00  0.3200E+00
     -6.208  0.0000E+00  0.3200E+00
     -6.112  0.1433E+00  0.3235E+00
     -6.015  0.1529E+00  0.3466E+00
     -5.918  0.6238E-01  0.3568E+00
     -5.821  0.8767E-01  0.3617E+00
     -5.724  0.2085E+00  0.3797E+00
     -5.627  0.5092E-01  0.3989E+00
     -5.531  0.0000E+00  0.4000E+00
     -5.434  0.0000E+00  0.4000E+00
     -5.337  0.0000E+00  0.4000E+00
     -5.240  0.0000E+00  0.4000E+00
     -5.143  0.0000E+00  0.4000E+00
     -5.046  0.0000E+00  0.4000E+00
     -4.950  0.0000E+00  0.4000E+00
     -4.853  0.9886E-01  0.4032E+00
     -4.756  0.1420E+00  0.4188E+00
     -4.659  0.1101E+00  0.4373E+00
     -4.562  0.5679E-03  0.4400E+00
     -4.465  0.0000E+00  0.4400E+00
     -4.369  0.0000E+00  0.4400E+00
     -4.272  0.0000E+00  0.4400E+00
     -4.175  0.0000E+00  0.4400E+00
     -4.078  0.2724E-02  0.4400E+00
     -3.981  0.1552E+00  0.4437E+00
     -3.884  0.2233E+00  0.4748E+00
     -3.788  0.3245E+00  0.4922E+00
     -3.691  0.8626E-01  0.5171E+00
     -3.594  0.0000E+00  0.5200E+00
     -3.497  0.0000E+00  0.5200E+00
     -3.400  0.0000E+00  0.5200E+00
     -3.303  0.0000E+00  0.5200E+00
     -3.207  0.0000E+00  0.5200E+00
     -3.110  0.0000E+00  0.5200E+00
     -3.013  0.0000E+00  0.5200E+00
     -2.916  0.0000E+00  0.5200E+00
     -2.819  0.0000E+00  0.5200E+00
     -2.723  0.0000E+00  0.5200E+00
     -2.626  0.0000E+00  0.5200E+00
     -2.529  0.0000E+00  0.5200E+00
     -2.432  0.0000E+00  0.5200E+00
     -2.335  0.2824E-01  0.5205E+00
     -2.238  0.9841E-01  0.5272E+00
     -2.142  0.2210E+00  0.5435E+00
     -2.045  0.2302E+00  0.5628E+00
     -1.948  0.2128E+00  0.5854E+00
     -1.851  0.7268E-01  0.5976E+00
     -1.754  0.0000E+00  0.6000E+00
     -1.657  0.0000E+00  0.6000E+00
     -1.561  0.0000E+00  0.6000E+00
     -1.464  0.0000E+00  0.6000E+00
     -1.367  0.0000E+00  0.6000E+00
     -1.270  0.0000E+00  0.6000E+00
     -1.173  0.0000E+00  0.6000E+00
     -1.076  0.0000E+00  0.6000E+00
     -0.980  0.0000E+00  0.6000E+00
     -0.883  0.0000E+00  0.6000E+00
     -0.786  0.0000E+00  0.6000E+00
     -0.689  0.0000E+00  0.6000E+00
     -0.592  0.0000E+00  0.6000E+00
     -0.495  0.0000E+00  0.6000E+00
     -0.399  0.0000E+00  0.6000E+00
     -0.302  0.0000E+00  0.6000E+00
     -0.205  0.0000E+00  0.6000E+00
     -0.108  0.0000E+00  0.6000E+00
     -0.011  0.0000E+00  0.6000E+00
      0.085  0.0000E+00  0.6000E+00
      0.182  0.0000E+00  0.6000E+00
      0.279  0.0000E+00  0.6000E+00
      0.376  0.0000E+00  0.6000E+00
      0.473  0.0000E+00  0.6000E+00
      0.570  0.0000E+00  0.6000E+00
      0.666  0.0000E+00  0.6000E+00
      0.763  0.0000E+00  0.6000E+00
      0.860  0.0000E+00  0.6000E+00
      0.957  0.0000E+00  0.6000E+00
      1.054  0.0000E+00  0.6000E+00
      1.151  0.0000E+00  0.6000E+00
      1.247  0.0000E+00  0.6000E+00
      1.344  0.0000E+00  0.6000E+00
      1.441  0.0000E+00  0.6000E+00
      1.538  0.0000E+00  0.6000E+00
      1.635  0.0000E+00  0.6000E+00
      1.732  0.0000E+00  0.6000E+00
      1.828  0.0000E+00  0.6000E+00
      1.925  0.0000E+00  0.6000E+00
      2.022  0.0000E+00  0.6000E+00
      2.119  0.0000E+00  0.6000E+00
      2.216  0.0000E+00  0.6000E+00
      2.313  0.0000E+00  0.6000E+00
      2.409  0.0000E+00  0.6000E+00
      2.506  0.0000E+00  0.6000E+00
      2.603  0.0000E+00  0.6000E+00
      2.700  0.0000E+00  0.6000E+00
      2.797  0.2593E+00  0.6137E+00
      2.894  0.1423E+00  0.6278E+00
      2.990  0.5887E-01  0.6388E+00
      3.087  0.2265E+00  0.6489E+00
      3.184  0.1604E+00  0.6635E+00
      3.281  0.6736E-01  0.6773E+00
      3.378  0.3851E-02  0.6799E+00
      3.474  0.0000E+00  0.6800E+00
      3.571  0.0000E+00  0.6800E+00
      3.668  0.0000E+00  0.6800E+00
      3.765  0.0000E+00  0.6800E+00
      3.862  0.7932E-04  0.6800E+00
      3.959  0.1304E-02  0.6801E+00
      4.055  0.3815E-02  0.6803E+00
      4.152  0.6622E-02  0.6808E+00
      4.249  0.7677E-02  0.6815E+00
      4.346  0.8580E-02  0.6823E+00
      4.443  0.1051E-01  0.6832E+00
      4.540  0.1261E-01  0.6843E+00
      4.636  0.1498E-01  0.6857E+00
      4.733  0.1974E-01  0.6873E+00
      4.830  0.2994E-01  0.6897E+00
      4.927  0.3327E-01  0.6929E+00
      5.024  0.3457E-01  0.6961E+00
      5.121  0.3245E-01  0.6994E+00
      5.217  0.2209E-01  0.7020E+00
      5.314  0.4449E-01  0.7047E+00
      5.411  0.6126E-01  0.7115E+00
      5.508  0.3525E-01  0.7161E+00
      5.605  0.2120E-01  0.7193E+00
      5.702  0.8419E-01  0.7235E+00
      5.798  0.9935E-01  0.7335E+00
      5.895  0.4543E-01  0.7406E+00
      5.992  0.4693E-01  0.7449E+00
      6.089  0.5114E-01  0.7498E+00
      6.186  0.4435E-01  0.7546E+00
      6.282  0.3797E-01  0.7579E+00
      6.379  0.7263E-01  0.7638E+00
      6.476  0.1344E+00  0.7744E+00
      6.573  0.9196E-01  0.7854E+00
      6.670  0.9489E-01  0.7934E+00
      6.767  0.7761E-01  0.8031E+00
      6.863  0.5673E-01  0.8086E+00
      6.960  0.5746E-01  0.8142E+00
      7.057  0.6699E-01  0.8202E+00
      7.154  0.8664E-01  0.8277E+00
      7.251  0.5602E-01  0.8359E+00
      7.348  0.2349E-01  0.8394E+00
      7.444  0.4403E-01  0.8417E+00
      7.541  0.9896E-01  0.8479E+00
      7.638  0.5209E-01  0.8568E+00
      7.735  0.9098E-02  0.8592E+00
      7.832  0.3494E-02  0.8597E+00
      7.929  0.1149E-02  0.8600E+00
      8.025  0.7557E-04  0.8600E+00
      8.122  0.0000E+00  0.8600E+00
      8.219  0.0000E+00  0.8600E+00
      8.316  0.0000E+00  0.8600E+00
      8.413  0.0000E+00  0.8600E+00
      8.510  0.0000E+00  0.8600E+00
      8.606  0.0000E+00  0.8600E+00
      8.703  0.0000E+00  0.8600E+00
      8.800  0.0000E+00  0.8600E+00
      8.897  0.0000E+00  0.8600E+00
      8.994  0.0000E+00  0.8600E+00
      9.090  0.0000E+00  0.8600E+00
      9.187  0.0000E+00  0.8600E+00
      9.284  0.0000E+00  0.8600E+00
      9.381  0.0000E+00  0.8600E+00
      9.478  0.0000E+00  0.8600E+00
      9.575  0.0000E+00  0.8600E+00
      9.671  0.0000E+00  0.8600E+00
      9.768  0.0000E+00  0.8600E+00
      9.865  0.0000E+00  0.8600E+00
      9.962  0.0000E+00  0.8600E+00
     10.059  0.0000E+00  0.8600E+00
