   48   48  200    1
  0.1019784E+02  0.7499252E-09  0.9554792E-09  0.6831406E-09  0.5000000E-15
  1.000000000000000E-004
  CAR 
 benzene                                 
    120     27     86
 
  0.0000000E+00  0.0000000E+00  0.0000000E+00  0.1562500E-01
    1      -16.989630
    2      -16.900509
    3      -16.847579
    4      -16.830061
    5      -14.268568
    6      -14.150055
    7      -14.117894
    8      -14.094253
    9      -14.071426
   10      -14.038990
   11      -14.031914
   12      -14.014429
   13      -10.574913
   14      -10.572131
   15      -10.532648
   16      -10.493954
   17      -10.456181
   18      -10.439121
   19      -10.411980
   20      -10.270544
   21       -8.858960
   22       -8.510042
   23       -8.453195
   24       -8.202513
   25       -7.105638
   26       -6.971076
   27       -6.722218
   28       -6.622101
   29       -6.594929
   30       -6.576459
   31       -6.511626
   32       -6.500114
   33       -6.199671
   34       -6.189933
   35       -6.136006
   36       -5.819346
   37       -5.771484
   38       -5.736582
   39       -5.729007
   40       -5.550738
   41       -4.762597
   42       -4.666373
   43       -4.608599
   44       -4.550249
   45       -4.119261
   46       -4.050401
   47       -4.036173
   48       -3.982847
   49       -3.800530
   50       -3.772452
   51       -3.757074
   52       -3.594813
   53       -2.366630
   54       -2.358585
   55       -2.233013
   56       -2.145913
   57       -1.993814
   58       -1.884554
   59       -1.795314
   60       -1.760863
   61        2.722580
   62        2.747448
   63        2.871461
   64        3.019335
   65        3.025032
   66        3.111000
   67        3.279946
   68        3.420202
   69        3.830093
   70        5.035704
   71        5.257338
   72        5.727830
   73        5.978883
   74        6.092652
   75        6.370208
   76        6.404476
   77        6.414543
   78        6.422207
   79        6.515715
   80        6.700905
   81        6.791130
   82        7.151436
   83        7.194525
   84        7.354615
   85        7.444468
   86        7.808187
 
  0.2500000E+00  0.0000000E+00  0.0000000E+00  0.3125000E-01
    1      -16.969784
    2      -16.890314
    3      -16.869421
    4      -16.840508
    5      -14.244168
    6      -14.145808
    7      -14.112034
    8      -14.094331
    9      -14.088355
   10      -14.050763
   11      -14.032577
   12      -14.019225
   13      -10.553434
   14      -10.530712
   15      -10.527100
   16      -10.501191
   17      -10.453138
   18      -10.441253
   19      -10.436109
   20      -10.313586
   21       -8.828093
   22       -8.586181
   23       -8.421100
   24       -8.245259
   25       -7.080903
   26       -6.985399
   27       -6.676692
   28       -6.602985
   29       -6.586480
   30       -6.571649
   31       -6.507959
   32       -6.498361
   33       -6.175399
   34       -6.085372
   35       -6.044755
   36       -5.889860
   37       -5.772360
   38       -5.740679
   39       -5.719998
   40       -5.584518
   41       -4.870496
   42       -4.788003
   43       -4.680597
   44       -4.645893
   45       -4.041312
   46       -3.967525
   47       -3.966758
   48       -3.950811
   49       -3.790090
   50       -3.783641
   51       -3.731084
   52       -3.622344
   53       -2.288391
   54       -2.286643
   55       -2.226266
   56       -2.164557
   57       -1.978980
   58       -1.933468
   59       -1.857670
   60       -1.855806
   61        2.776034
   62        2.820371
   63        2.895558
   64        3.017979
   65        3.023738
   66        3.057685
   67        3.186535
   68        3.300156
   69        4.046949
   70        5.168851
   71        5.367309
   72        5.430579
   73        5.727774
   74        6.044740
   75        6.372305
   76        6.392582
   77        6.466235
   78        6.491971
   79        6.627538
   80        6.717184
   81        6.858406
   82        7.150476
   83        7.200582
   84        7.360910
   85        7.564113
   86        7.682830
 
  0.5000000E+00  0.0000000E+00  0.0000000E+00  0.1562500E-01
    1      -16.920569
    2      -16.920569
    3      -16.865531
    4      -16.865530
    5      -14.185457
    6      -14.185456
    7      -14.100255
    8      -14.100254
    9      -14.079024
   10      -14.079024
   11      -14.028640
   12      -14.028639
   13      -10.524188
   14      -10.524187
   15      -10.490441
   16      -10.490441
   17      -10.448303
   18      -10.448303
   19      -10.417741
   20      -10.417740
   21       -8.728553
   22       -8.728553
   23       -8.338289
   24       -8.338289
   25       -7.028383
   26       -7.028382
   27       -6.609591
   28       -6.609590
   29       -6.572357
   30       -6.572357
   31       -6.500865
   32       -6.500865
   33       -6.077106
   34       -6.077105
   35       -5.859772
   36       -5.859772
   37       -5.837478
   38       -5.837477
   39       -5.659768
   40       -5.659767
   41       -4.934497
   42       -4.934497
   43       -4.748593
   44       -4.748593
   45       -3.964530
   46       -3.964530
   47       -3.836837
   48       -3.836836
   49       -3.832717
   50       -3.832717
   51       -3.680488
   52       -3.680487
   53       -2.205651
   54       -2.205650
   55       -2.109490
   56       -2.109489
   57       -2.074940
   58       -2.074939
   59       -1.933165
   60       -1.933164
   61        2.905640
   62        2.905640
   63        2.965287
   64        2.965288
   65        3.031615
   66        3.031615
   67        3.081476
   68        3.081476
   69        4.633732
   70        4.633734
   71        5.388085
   72        5.388085
   73        5.851557
   74        5.851558
   75        6.467424
   76        6.467426
   77        6.560523
   78        6.560525
   79        6.602901
   80        6.602902
   81        7.141636
   82        7.141636
   83        7.231882
   84        7.231883
   85        7.556977
   86        7.556977
 
  0.0000000E+00  0.2500000E+00  0.0000000E+00  0.3125000E-01
    1      -16.977225
    2      -16.914239
    3      -16.845038
    4      -16.832662
    5      -14.233069
    6      -14.141530
    7      -14.110478
    8      -14.101956
    9      -14.066299
   10      -14.049748
   11      -14.048556
   12      -14.038433
   13      -10.558103
   14      -10.537459
   15      -10.529884
   16      -10.479988
   17      -10.457872
   18      -10.448084
   19      -10.427037
   20      -10.315482
   21       -8.781927
   22       -8.503463
   23       -8.462791
   24       -8.326207
   25       -7.047897
   26       -6.907722
   27       -6.772490
   28       -6.637688
   29       -6.576559
   30       -6.565574
   31       -6.520721
   32       -6.510200
   33       -6.147089
   34       -6.116908
   35       -6.086876
   36       -5.847578
   37       -5.815370
   38       -5.798470
   39       -5.757371
   40       -5.638970
   41       -4.753596
   42       -4.662567
   43       -4.647974
   44       -4.582728
   45       -4.031040
   46       -3.993082
   47       -3.985346
   48       -3.915846
   49       -3.823531
   50       -3.798537
   51       -3.776919
   52       -3.643637
   53       -2.370930
   54       -2.366724
   55       -2.179794
   56       -2.125889
   57       -2.020113
   58       -1.924509
   59       -1.802771
   60       -1.769496
   61        2.719269
   62        2.737318
   63        2.903927
   64        3.012947
   65        3.039629
   66        3.149140
   67        3.225175
   68        3.367926
   69        3.986134
   70        4.875834
   71        5.354858
   72        5.648792
   73        5.815805
   74        6.112150
   75        6.163677
   76        6.340388
   77        6.477537
   78        6.617895
   79        6.623673
   80        6.698068
   81        6.985093
   82        7.187272
   83        7.235144
   84        7.310077
   85        7.426053
   86        7.565985
 
  0.2500000E+00  0.2500000E+00  0.0000000E+00  0.6250000E-01
    1      -16.958654
    2      -16.902496
    3      -16.865227
    4      -16.844796
    5      -14.214925
    6      -14.140378
    7      -14.108960
    8      -14.103531
    9      -14.073060
   10      -14.072108
   11      -14.038600
   12      -14.036720
   13      -10.528439
   14      -10.525170
   15      -10.521349
   16      -10.490060
   17      -10.457617
   18      -10.448099
   19      -10.442017
   20      -10.350107
   21       -8.755063
   22       -8.559973
   23       -8.442844
   24       -8.346763
   25       -7.027249
   26       -6.926857
   27       -6.743139
   28       -6.653774
   29       -6.563482
   30       -6.559096
   31       -6.517477
   32       -6.508854
   33       -6.118875
   34       -6.069945
   35       -5.976136
   36       -5.944782
   37       -5.818664
   38       -5.746074
   39       -5.724160
   40       -5.632894
   41       -4.847912
   42       -4.772733
   43       -4.714424
   44       -4.673679
   45       -3.986190
   46       -3.929053
   47       -3.920438
   48       -3.909962
   49       -3.806013
   50       -3.800773
   51       -3.754556
   52       -3.669743
   53       -2.300747
   54       -2.283976
   55       -2.179744
   56       -2.136896
   57       -2.008748
   58       -1.953208
   59       -1.885631
   60       -1.857005
   61        2.765129
   62        2.816341
   63        2.907113
   64        3.005785
   65        3.040455
   66        3.099017
   67        3.157872
   68        3.269060
   69        4.193306
   70        5.026505
   71        5.415848
   72        5.579804
   73        5.680756
   74        5.839967
   75        6.162305
   76        6.328051
   77        6.397859
   78        6.571131
   79        6.797109
   80        6.825295
   81        6.896958
   82        7.144563
   83        7.177848
   84        7.426130
   85        7.507758
   86        7.510971
 
  0.5000000E+00  0.2500000E+00  0.0000000E+00  0.3125000E-01
    1      -16.912741
    2      -16.912741
    3      -16.873827
    4      -16.873827
    5      -14.171681
    6      -14.171680
    7      -14.098207
    8      -14.098206
    9      -14.087282
   10      -14.087281
   11      -14.036013
   12      -14.036012
   13      -10.514208
   14      -10.514207
   15      -10.488799
   16      -10.488798
   17      -10.451242
   18      -10.451242
   19      -10.431588
   20      -10.431588
   21       -8.671826
   22       -8.671826
   23       -8.395031
   24       -8.395031
   25       -6.976755
   26       -6.976755
   27       -6.689802
   28       -6.689801
   29       -6.553853
   30       -6.553853
   31       -6.510790
   32       -6.510790
   33       -6.065186
   34       -6.065186
   35       -5.902567
   36       -5.902567
   37       -5.798115
   38       -5.798114
   39       -5.649478
   40       -5.649478
   41       -4.905150
   42       -4.905150
   43       -4.780198
   44       -4.780198
   45       -3.925135
   46       -3.925134
   47       -3.831946
   48       -3.831946
   49       -3.828621
   50       -3.828621
   51       -3.717743
   52       -3.717743
   53       -2.181428
   54       -2.181428
   55       -2.091865
   56       -2.091864
   57       -2.083477
   58       -2.083476
   59       -1.969708
   60       -1.969707
   61        2.881162
   62        2.881163
   63        2.969696
   64        2.969696
   65        3.031903
   66        3.031904
   67        3.102759
   68        3.102760
   69        4.758402
   70        4.758404
   71        5.367459
   72        5.367459
   73        5.745681
   74        5.745682
   75        6.280497
   76        6.280497
   77        6.471073
   78        6.471074
   79        6.793870
   80        6.793871
   81        7.119269
   82        7.119269
   83        7.257728
   84        7.257729
   85        7.507779
   86        7.507779
 
  0.0000000E+00  0.5000000E+00  0.0000000E+00  0.1562500E-01
    1      -16.946380
    2      -16.946379
    3      -16.838858
    4      -16.838856
    5      -14.148958
    6      -14.148958
    7      -14.121288
    8      -14.121286
    9      -14.072958
   10      -14.072957
   11      -14.053022
   12      -14.053021
   13      -10.533871
   14      -10.533870
   15      -10.475622
   16      -10.475621
   17      -10.452525
   18      -10.452524
   19      -10.416054
   20      -10.416053
   21       -8.575314
   22       -8.575311
   23       -8.484560
   24       -8.484559
   25       -6.908283
   26       -6.908283
   27       -6.759408
   28       -6.759408
   29       -6.541637
   30       -6.541636
   31       -6.539507
   32       -6.539506
   33       -6.012577
   34       -6.012575
   35       -5.958871
   36       -5.958869
   37       -5.865841
   38       -5.865838
   39       -5.794469
   40       -5.794469
   41       -4.713286
   42       -4.713284
   43       -4.635373
   44       -4.635372
   45       -3.901571
   46       -3.901571
   47       -3.891724
   48       -3.891723
   49       -3.851284
   50       -3.851283
   51       -3.771101
   52       -3.771099
   53       -2.375660
   54       -2.375658
   55       -2.075778
   56       -2.075778
   57       -2.049927
   58       -2.049926
   59       -1.789735
   60       -1.789734
   61        2.720295
   62        2.720295
   63        2.968348
   64        2.968350
   65        3.117233
   66        3.117235
   67        3.251891
   68        3.251892
   69        4.403257
   70        4.403264
   71        5.561033
   72        5.561036
   73        5.812904
   74        5.812909
   75        6.367943
   76        6.367948
   77        6.445341
   78        6.445342
   79        6.773384
   80        6.773384
   81        7.110448
   82        7.110449
   83        7.231925
   84        7.231932
   85        7.563137
   86        7.563143
 
  0.2500000E+00  0.5000000E+00  0.0000000E+00  0.3125000E-01
    1      -16.931083
    2      -16.931081
    3      -16.855060
    4      -16.855058
    5      -14.145618
    6      -14.145617
    7      -14.126342
    8      -14.126341
    9      -14.068522
   10      -14.068521
   11      -14.054107
   12      -14.054106
   13      -10.520778
   14      -10.520777
   15      -10.479050
   16      -10.479049
   17      -10.455080
   18      -10.455079
   19      -10.429591
   20      -10.429590
   21       -8.564375
   22       -8.564373
   23       -8.499167
   24       -8.499166
   25       -6.890741
   26       -6.890740
   27       -6.784014
   28       -6.784014
   29       -6.537742
   30       -6.537741
   31       -6.536231
   32       -6.536230
   33       -6.020879
   34       -6.020878
   35       -5.980238
   36       -5.980236
   37       -5.790717
   38       -5.790715
   39       -5.729881
   40       -5.729881
   41       -4.786744
   42       -4.786742
   43       -4.728592
   44       -4.728590
   45       -3.888473
   46       -3.888472
   47       -3.853629
   48       -3.853629
   49       -3.820879
   50       -3.820878
   51       -3.787717
   52       -3.787715
   53       -2.296937
   54       -2.296935
   55       -2.074135
   56       -2.074134
   57       -2.063632
   58       -2.063631
   59       -1.875261
   60       -1.875260
   61        2.780654
   62        2.780654
   63        2.953527
   64        2.953528
   65        3.096328
   66        3.096329
   67        3.191977
   68        3.191977
   69        4.583696
   70        4.583703
   71        5.564362
   72        5.564364
   73        5.868083
   74        5.868088
   75        5.950454
   76        5.950454
   77        6.612698
   78        6.612699
   79        6.752143
   80        6.752144
   81        7.028870
   82        7.028871
   83        7.156492
   84        7.156498
   85        7.627252
   86        7.627257
 
  0.5000000E+00  0.5000000E+00  0.0000000E+00  0.1562500E-01
    1      -16.893521
    2      -16.893521
    3      -16.893519
    4      -16.893519
    5      -14.136816
    6      -14.136816
    7      -14.136815
    8      -14.136815
    9      -14.059701
   10      -14.059700
   11      -14.059700
   12      -14.059699
   13      -10.493107
   14      -10.493107
   15      -10.493106
   16      -10.493106
   17      -10.452429
   18      -10.452429
   19      -10.452428
   20      -10.452428
   21       -8.533594
   22       -8.533594
   23       -8.533593
   24       -8.533592
   25       -6.841721
   26       -6.841721
   27       -6.841720
   28       -6.841720
   29       -6.533354
   30       -6.533354
   31       -6.533353
   32       -6.533353
   33       -6.004503
   34       -6.004503
   35       -6.004502
   36       -6.004502
   37       -5.694142
   38       -5.694142
   39       -5.694141
   40       -5.694140
   41       -4.843596
   42       -4.843595
   43       -4.843594
   44       -4.843594
   45       -3.848931
   46       -3.848931
   47       -3.848931
   48       -3.848930
   49       -3.797709
   50       -3.797709
   51       -3.797708
   52       -3.797708
   53       -2.123462
   54       -2.123462
   55       -2.123461
   56       -2.123461
   57       -2.041282
   58       -2.041282
   59       -2.041282
   60       -2.041281
   61        2.901174
   62        2.901174
   63        2.901174
   64        2.901175
   65        3.092929
   66        3.092929
   67        3.092929
   68        3.092929
   69        5.067065
   70        5.067066
   71        5.067072
   72        5.067073
   73        5.926248
   74        5.926249
   75        5.926253
   76        5.926254
   77        6.676849
   78        6.676849
   79        6.676851
   80        6.676851
   81        7.052775
   82        7.052775
   83        7.052778
   84        7.052778
   85        7.694705
   86        7.694707
 
  0.0000000E+00  0.0000000E+00  0.2500000E+00  0.3125000E-01
    1      -16.966884
    2      -16.892350
    3      -16.854909
    4      -16.854048
    5      -14.236264
    6      -14.138460
    7      -14.116985
    8      -14.092082
    9      -14.069850
   10      -14.063815
   11      -14.047865
   12      -14.028321
   13      -10.569330
   14      -10.567143
   15      -10.508053
   16      -10.495087
   17      -10.468634
   18      -10.444031
   19      -10.402071
   20      -10.299618
   21       -8.824037
   22       -8.541443
   23       -8.464139
   24       -8.247728
   25       -7.023935
   26       -6.928451
   27       -6.750964
   28       -6.670837
   29       -6.584132
   30       -6.557998
   31       -6.526036
   32       -6.503481
   33       -6.167058
   34       -6.108135
   35       -6.049098
   36       -5.840802
   37       -5.779159
   38       -5.733448
   39       -5.727840
   40       -5.596952
   41       -4.849608
   42       -4.762800
   43       -4.707076
   44       -4.683683
   45       -4.019808
   46       -3.988401
   47       -3.947981
   48       -3.914792
   49       -3.792493
   50       -3.775123
   51       -3.730996
   52       -3.657621
   53       -2.275501
   54       -2.258733
   55       -2.216746
   56       -2.104366
   57       -2.043903
   58       -1.925019
   59       -1.865484
   60       -1.830917
   61        2.812137
   62        2.817353
   63        2.880920
   64        3.007921
   65        3.030249
   66        3.085850
   67        3.201670
   68        3.338234
   69        4.089328
   70        5.198550
   71        5.371811
   72        5.700517
   73        5.722670
   74        5.981050
   75        6.185045
   76        6.216782
   77        6.300982
   78        6.379369
   79        6.465087
   80        6.627836
   81        6.781495
   82        7.049298
   83        7.139635
   84        7.364838
   85        7.458681
   86        7.581148
 
  0.2500000E+00  0.0000000E+00  0.2500000E+00  0.6250000E-01
    1      -16.950951
    2      -16.886579
    3      -16.871797
    4      -16.859519
    5      -14.216912
    6      -14.132560
    7      -14.117965
    8      -14.093099
    9      -14.090531
   10      -14.061084
   11      -14.054191
   12      -14.030600
   13      -10.551295
   14      -10.530276
   15      -10.508794
   16      -10.493527
   17      -10.464518
   18      -10.443797
   19      -10.424794
   20      -10.337385
   21       -8.782678
   22       -8.530832
   23       -8.497431
   24       -8.289489
   25       -7.007292
   26       -6.939976
   27       -6.722024
   28       -6.664540
   29       -6.575972
   30       -6.557220
   31       -6.520789
   32       -6.507041
   33       -6.130905
   34       -6.063029
   35       -6.028307
   36       -5.847345
   37       -5.806559
   38       -5.784178
   39       -5.752593
   40       -5.629472
   41       -4.915074
   42       -4.782630
   43       -4.706769
   44       -4.615076
   45       -4.001074
   46       -3.942784
   47       -3.930171
   48       -3.900631
   49       -3.797493
   50       -3.784004
   51       -3.742791
   52       -3.677590
   53       -2.232108
   54       -2.210365
   55       -2.184729
   56       -2.121013
   57       -2.031053
   58       -1.955264
   59       -1.901671
   60       -1.895435
   61        2.806052
   62        2.813779
   63        2.925147
   64        2.948828
   65        3.056287
   66        3.081415
   67        3.110618
   68        3.292793
   69        4.238262
   70        5.253125
   71        5.334658
   72        5.386399
   73        5.773277
   74        5.783079
   75        6.042017
   76        6.377776
   77        6.421149
   78        6.433670
   79        6.475609
   80        6.675692
   81        6.688523
   82        7.053218
   83        7.122198
   84        7.191520
   85        7.532966
   86        7.616282
 
  0.5000000E+00  0.0000000E+00  0.2500000E+00  0.3125000E-01
    1      -16.911851
    2      -16.911850
    3      -16.872893
    4      -16.872893
    5      -14.168371
    6      -14.168370
    7      -14.108902
    8      -14.108901
    9      -14.079603
   10      -14.079603
   11      -14.043203
   12      -14.043203
   13      -10.519272
   14      -10.519272
   15      -10.471809
   16      -10.471809
   17      -10.464840
   18      -10.464840
   19      -10.421402
   20      -10.421401
   21       -8.669010
   22       -8.669009
   23       -8.392461
   24       -8.392460
   25       -6.970278
   26       -6.970277
   27       -6.677605
   28       -6.677604
   29       -6.561993
   30       -6.561992
   31       -6.512305
   32       -6.512305
   33       -6.027034
   34       -6.027033
   35       -5.934505
   36       -5.934505
   37       -5.881836
   38       -5.881835
   39       -5.710867
   40       -5.710867
   41       -4.816704
   42       -4.816704
   43       -4.697707
   44       -4.697707
   45       -3.934177
   46       -3.934177
   47       -3.849074
   48       -3.849073
   49       -3.845924
   50       -3.845924
   51       -3.724671
   52       -3.724670
   53       -2.171900
   54       -2.171900
   55       -2.093428
   56       -2.093428
   57       -2.047197
   58       -2.047196
   59       -1.958275
   60       -1.958275
   61        2.842656
   62        2.842656
   63        2.875296
   64        2.875297
   65        3.095721
   66        3.095721
   67        3.135932
   68        3.135933
   69        4.691564
   70        4.691566
   71        5.284417
   72        5.284418
   73        5.907002
   74        5.907003
   75        6.073989
   76        6.073990
   77        6.490101
   78        6.490103
   79        6.543998
   80        6.543999
   81        6.899311
   82        6.899312
   83        7.105926
   84        7.105927
   85        7.750290
   86        7.750291
 
  0.0000000E+00  0.2500000E+00  0.2500000E+00  0.6250000E-01
    1      -16.956407
    2      -16.903726
    3      -16.854763
    4      -16.854171
    5      -14.211030
    6      -14.143007
    7      -14.110994
    8      -14.100997
    9      -14.078141
   10      -14.069606
   11      -14.042876
   12      -14.037288
   13      -10.581302
   14      -10.546428
   15      -10.525630
   16      -10.476474
   17      -10.472515
   18      -10.436596
   19      -10.395424
   20      -10.323843
   21       -8.752509
   22       -8.527886
   23       -8.474234
   24       -8.350068
   25       -6.982369
   26       -6.886246
   27       -6.789987
   28       -6.688335
   29       -6.568765
   30       -6.554027
   31       -6.530459
   32       -6.512865
   33       -6.104303
   34       -6.067594
   35       -6.037985
   36       -5.924160
   37       -5.780556
   38       -5.762170
   39       -5.691683
   40       -5.673694
   41       -4.833793
   42       -4.763393
   43       -4.716967
   44       -4.696605
   45       -3.977925
   46       -3.976659
   47       -3.934548
   48       -3.857303
   49       -3.825374
   50       -3.792987
   51       -3.728597
   52       -3.665140
   53       -2.284860
   54       -2.281006
   55       -2.153788
   56       -2.106738
   57       -2.063604
   58       -1.952926
   59       -1.866837
   60       -1.833533
   61        2.772294
   62        2.780998
   63        2.941220
   64        2.995484
   65        3.029622
   66        3.054574
   67        3.239584
   68        3.324878
   69        4.238416
   70        5.070809
   71        5.487331
   72        5.614695
   73        5.713344
   74        5.873657
   75        6.190654
   76        6.240029
   77        6.277614
   78        6.455903
   79        6.506677
   80        6.617485
   81        6.792175
   82        6.922916
   83        7.302620
   84        7.343810
   85        7.352861
   86        7.613785
 
  0.2500000E+00  0.2500000E+00  0.2500000E+00  0.1250000E+00
    1      -16.941834
    2      -16.896341
    3      -16.869967
    4      -16.861289
    5      -14.200027
    6      -14.144068
    7      -14.124320
    8      -14.104304
    9      -14.085359
   10      -14.062303
   11      -14.045082
   12      -14.030151
   13      -10.562618
   14      -10.542071
   15      -10.527620
   16      -10.487397
   17      -10.457351
   18      -10.431232
   19      -10.403326
   20      -10.350815
   21       -8.716346
   22       -8.519598
   23       -8.495121
   24       -8.368471
   25       -6.971526
   26       -6.904056
   27       -6.775048
   28       -6.705387
   29       -6.560977
   30       -6.550153
   31       -6.526026
   32       -6.515302
   33       -6.112001
   34       -6.085518
   35       -6.055336
   36       -5.879928
   37       -5.809712
   38       -5.752828
   39       -5.708718
   40       -5.627673
   41       -4.902977
   42       -4.791447
   43       -4.691270
   44       -4.626417
   45       -3.997827
   46       -3.946169
   47       -3.919380
   48       -3.876716
   49       -3.812005
   50       -3.788449
   51       -3.737120
   52       -3.682313
   53       -2.244742
   54       -2.229925
   55       -2.130799
   56       -2.116422
   57       -2.054556
   58       -1.969762
   59       -1.915762
   60       -1.885509
   61        2.767665
   62        2.779868
   63        2.902290
   64        2.964438
   65        3.015616
   66        3.088147
   67        3.206162
   68        3.299676
   69        4.376579
   70        5.161324
   71        5.394438
   72        5.503671
   73        5.610198
   74        5.793158
   75        5.908217
   76        6.203300
   77        6.393846
   78        6.492539
   79        6.622833
   80        6.716233
   81        6.741261
   82        7.004246
   83        7.189227
   84        7.267264
   85        7.386269
   86        7.575681
 
  0.5000000E+00  0.2500000E+00  0.2500000E+00  0.6250000E-01
    1      -16.906211
    2      -16.906210
    3      -16.878670
    4      -16.878670
    5      -14.170030
    6      -14.170030
    7      -14.123459
    8      -14.123457
    9      -14.070999
   10      -14.070998
   11      -14.034133
   12      -14.034132
   13      -10.536572
   14      -10.536571
   15      -10.517883
   16      -10.517882
   17      -10.421927
   18      -10.421926
   19      -10.406890
   20      -10.406890
   21       -8.622518
   22       -8.622518
   23       -8.424923
   24       -8.424922
   25       -6.940265
   26       -6.940264
   27       -6.740405
   28       -6.740404
   29       -6.550354
   30       -6.550354
   31       -6.519168
   32       -6.519168
   33       -6.102885
   34       -6.102884
   35       -5.994811
   36       -5.994810
   37       -5.774279
   38       -5.774279
   39       -5.653731
   40       -5.653731
   41       -4.796662
   42       -4.796661
   43       -4.707264
   44       -4.707263
   45       -3.952047
   46       -3.952046
   47       -3.889603
   48       -3.889603
   49       -3.804025
   50       -3.804025
   51       -3.724730
   52       -3.724729
   53       -2.175244
   54       -2.175243
   55       -2.103677
   56       -2.103676
   57       -2.029855
   58       -2.029854
   59       -1.966529
   60       -1.966528
   61        2.792173
   62        2.792174
   63        2.846377
   64        2.846378
   65        3.132514
   66        3.132515
   67        3.184066
   68        3.184066
   69        4.806747
   70        4.806749
   71        5.311884
   72        5.311884
   73        5.681577
   74        5.681577
   75        6.052855
   76        6.052855
   77        6.436315
   78        6.436317
   79        6.698534
   80        6.698534
   81        6.871076
   82        6.871076
   83        7.249054
   84        7.249056
   85        7.505548
   86        7.505549
 
  0.0000000E+00  0.5000000E+00  0.2500000E+00  0.3125000E-01
    1      -16.930517
    2      -16.930516
    3      -16.854444
    4      -16.854442
    5      -14.159442
    6      -14.159441
    7      -14.112496
    8      -14.112496
    9      -14.086844
   10      -14.086844
   11      -14.038317
   12      -14.038316
   13      -10.563967
   14      -10.563967
   15      -10.515362
   16      -10.515362
   17      -10.424775
   18      -10.424774
   19      -10.377076