 vasp.5.3.5 31Mar14 (build Nov 02 2014 15:17:37) complex                        
  
 executed on        ion-Intel-MKL date 2017.04.04  10:32:14
 running on    8 total cores
 distrk:  each k-point on    8 cores,    1 groups
 distr:  one band on NCORES_PER_BAND=   4 cores,    2 groups


--------------------------------------------------------------------------------------------------------


 INCAR:
 POTCAR:   PAW_PBE C 08Apr2002                    
 POTCAR:   PAW_PBE H 15Jun2001                    
 POTCAR:   PAW_PBE C 08Apr2002                    
   VRHFIN =C: s2p2                                                              
   LEXCH  = PE                                                                  
   EATOM  =   147.1560 eV,   10.8157 Ry                                         
                                                                                
   TITEL  = PAW_PBE C 08Apr2002                                                 
   LULTRA =        F    use ultrasoft PP ?                                      
   IUNSCR =        0    unscreen: 0-lin 1-nonlin 2-no                           
   RPACOR =     .000    partial core radius                                     
   POMASS =   12.011; ZVAL   =    4.000    mass and valenz                      
   RCORE  =    1.500    outmost cutoff radius                                   
   RWIGS  =    1.630; RWIGS  =     .863    wigner-seitz radius (au A)           
   ENMAX  =  400.000; ENMIN  =  300.000 eV                                      
   ICORE  =        2    local potential                                         
   LCOR   =        T    correct aug charges                                     
   LPAW   =        T    paw PP                                                  
   EAUG   =  644.873                                                            
   DEXC   =     .000                                                            
   RMAX   =    2.266    core radius for proj-oper                               
   RAUG   =    1.300    factor for augmentation sphere                          
   RDEP   =    1.501    radius for radial grids                                 
   RDEPT  =    1.300    core radius for aug-charge                              
   QCUT   =   -5.516; QGAM   =   11.032    optimization parameters              
                                                                                
   Description                                                                  
     l     E      TYP  RCUT    TYP  RCUT                                        
     0   .000     23  1.200                                                     
     0   .000     23  1.200                                                     
     1   .000     23  1.500                                                     
     1  2.500     23  1.500                                                     
     2   .000      7  1.500                                                     
  local pseudopotential read in
  atomic valenz-charges read in
  non local Contribution for L=           0  read in
    real space projection operators read in
  non local Contribution for L=           0  read in
    real space projection operators read in
  non local Contribution for L=           1  read in
    real space projection operators read in
  non local Contribution for L=           1  read in
    real space projection operators read in
    PAW grid and wavefunctions read in
 
   number of l-projection  operators is LMAX  =           4
   number of lm-projection operators is LMMAX =           8
 
 POTCAR:   PAW_PBE H 15Jun2001                    
   VRHFIN =H: ultrasoft test                                                    
   LEXCH  = PE                                                                  
   EATOM  =    12.4884 eV,     .9179 Ry                                         
                                                                                
   TITEL  = PAW_PBE H 15Jun2001                                                 
   LULTRA =        F    use ultrasoft PP ?                                      
   IUNSCR =        0    unscreen: 0-lin 1-nonlin 2-no                           
   RPACOR =     .000    partial core radius                                     
   POMASS =    1.000; ZVAL   =    1.000    mass and valenz                      
   RCORE  =    1.100    outmost cutoff radius                                   
   RWIGS  =     .700; RWIGS  =     .370    wigner-seitz radius (au A)           
   ENMAX  =  250.000; ENMIN  =  200.000 eV                                      
   RCLOC  =     .701    cutoff for local pot                                    
   LCOR   =        T    correct aug charges                                     
   LPAW   =        T    paw PP                                                  
   EAUG   =  400.000                                                            
   RMAX   =    2.174    core radius for proj-oper                               
   RAUG   =    1.200    factor for augmentation sphere                          
   RDEP   =    1.112    radius for radial grids                                 
   QCUT   =   -5.749; QGAM   =   11.498    optimization parameters              
                                                                                
   Description                                                                  
     l     E      TYP  RCUT    TYP  RCUT                                        
     0   .000     23  1.100                                                     
     0   .500     23  1.100                                                     
     1  -.300     23  1.100                                                     
  local pseudopotential read in
  atomic valenz-charges read in
  non local Contribution for L=           0  read in
    real space projection operators read in
  non local Contribution for L=           0  read in
    real space projection operators read in
  non local Contribution for L=           1  read in
    real space projection operators read in
    PAW grid and wavefunctions read in
 
   number of l-projection  operators is LMAX  =           3
   number of lm-projection operators is LMMAX =           5
 

 ----------------------------------------------------------------------------- 
|                                                                             |
|  ADVICE TO THIS USER RUNNING 'VASP/VAMP'   (HEAR YOUR MASTER'S VOICE ...):  |
|                                                                             |
|      You have a (more or less) 'large supercell' and for larger cells       |
|      it might be more efficient to use real space projection operators      |
|      So try LREAL= Auto  in the INCAR   file.                               |
|      Mind: If you want to do a very accurate calculations keep the          |
|      reciprocal projection scheme          (i.e. LREAL=.FALSE.)             |
|                                                                             |
 ----------------------------------------------------------------------------- 

 PAW_PBE C 08Apr2002                    :
 energy of atom  1       EATOM= -147.1560
 kinetic energy error for atom=    0.0057 (will be added to EATOM!!)
 PAW_PBE H 15Jun2001                    :
 energy of atom  2       EATOM=  -12.4884
 kinetic energy error for atom=    0.0004 (will be added to EATOM!!)
 
 
 POSCAR: C6 H6                                   
  positions in direct lattice
  No initial velocities read in
 exchange correlation table for  LEXCH =        8
   RHO(1)=    0.500       N(1)  =     2000
   RHO(2)=  100.500       N(2)  =     4000
 


--------------------------------------------------------------------------------------------------------


 ion  position               nearest neighbor table
   1  0.946  0.138  1.000-  25 0.94  17 1.37   9 1.41
   2  0.054  0.862  0.000-  26 0.94  18 1.37  10 1.41
   3  0.554  0.862  0.500-  27 0.94  19 1.37  11 1.41
   4  0.446  0.138  0.500-  28 0.94  20 1.37  12 1.41
   5  0.054  0.638  0.500-  29 0.94  21 1.37  13 1.41
   6  0.946  0.362  0.500-  30 0.94  22 1.37  14 1.41
   7  0.446  0.362  0.000-  31 0.94  23 1.37  15 1.41
   8  0.554  0.638  1.000-  32 0.94  24 1.37  16 1.41
   9  0.077  0.090  0.132-  33 0.93  18 1.36   1 1.41
  10  0.923  0.910  0.868-  34 0.93  17 1.36   2 1.41
  11  0.423  0.910  0.632-  35 0.93  20 1.36   3 1.41
  12  0.577  0.090  0.368-  36 0.93  19 1.36   4 1.41
  13  0.923  0.590  0.368-  37 0.93  22 1.36   5 1.41
  14  0.077  0.410  0.632-  38 0.93  21 1.36   6 1.41
  15  0.577  0.410  0.868-  39 0.93  24 1.36   7 1.41
  16  0.423  0.590  0.132-  40 0.93  23 1.36   8 1.41
  17  0.870  0.045  0.872-  41 0.93  10 1.36   1 1.37
  18  0.130  0.955  0.128-  42 0.93   9 1.36   2 1.37
  19  0.630  0.955  0.372-  43 0.93  12 1.36   3 1.37
  20  0.370  0.045  0.628-  44 0.93  11 1.36   4 1.37
  21  0.130  0.545  0.628-  45 0.93  14 1.36   5 1.37
  22  0.870  0.455  0.372-  46 0.93  13 1.36   6 1.37
  23  0.370  0.455  0.128-  47 0.93  16 1.36   7 1.37
  24  0.630  0.545  0.872-  48 0.93  15 1.36   8 1.37
  25  0.911  0.232  0.999-   1 0.94
  26  0.089  0.768  0.001-   2 0.94
  27  0.589  0.768  0.499-   3 0.94
  28  0.411  0.232  0.501-   4 0.94
  29  0.089  0.732  0.501-   5 0.94
  30  0.911  0.268  0.499-   6 0.94
  31  0.411  0.268  0.001-   7 0.94
  32  0.589  0.732  0.999-   8 0.94
  33  0.126  0.152  0.222-   9 0.93
  34  0.873  0.848  0.778-  10 0.93
  35  0.373  0.848  0.722-  11 0.93
  36  0.627  0.152  0.278-  12 0.93
  37  0.873  0.652  0.278-  13 0.93
  38  0.126  0.348  0.722-  14 0.93
  39  0.627  0.348  0.778-  15 0.93
  40  0.373  0.652  0.222-  16 0.93
  41  0.781  0.076  0.787-  17 0.93
  42  0.219  0.924  0.213-  18 0.93
  43  0.719  0.924  0.287-  19 0.93
  44  0.281  0.076  0.713-  20 0.93
  45  0.219  0.576  0.713-  21 0.93
  46  0.781  0.424  0.287-  22 0.93
  47  0.281  0.424  0.213-  23 0.93
  48  0.719  0.576  0.787-  24 0.93
 
  LATTYP: Found a simple orthorhombic cell.
 ALAT       =     6.8314059074
 B/A-ratio  =     1.0977611940
 C/A-ratio  =     1.3986567164
  
  Lattice vectors:
  
 A1 = (   0.0000000000,   0.0000000000,   6.8314059074)
 A2 = (  -7.4992523058,   0.0000000000,   0.0000000000)
 A3 = (   0.0000000000,  -9.5547917550,   0.0000000000)


Analysis of symmetry for initial positions (statically):
=====================================================================
 Subroutine PRICEL returns:
 Original cell was already a primitive cell.
 

 Routine SETGRP: Setting up the symmetry group for a 
 simple orthorhombic supercell.


 Subroutine GETGRP returns: Found  8 space group operations
 (whereof  2 operations were pure point group operations)
 out of a pool of  8 trial point group operations.


The static configuration has the point symmetry S_2 .
 The point group associated with its full space group is D_2h.


Analysis of symmetry for dynamics (positions and initial velocities):
=====================================================================
 Subroutine PRICEL returns:
 Original cell was already a primitive cell.
 

 Routine SETGRP: Setting up the symmetry group for a 
 simple orthorhombic supercell.


 Subroutine GETGRP returns: Found  8 space group operations
 (whereof  2 operations were pure point group operations)
 out of a pool of  8 trial point group operations.


The dynamic configuration has the point symmetry S_2 .
 The point group associated with its full space group is D_2h.
 
 
 KPOINTS: B4C B11C-CBC                            

Automatic generation of k-mesh.
Space group operators:
 irot       det(A)        alpha          n_x          n_y          n_z        tau_x        tau_y        tau_z
    1     1.000000     0.000000     1.000000     0.000000     0.000000     0.000000     0.000000     0.000000
    2    -1.000000     0.000000     1.000000     0.000000     0.000000     0.000000     0.000000     0.000000
    3     1.000000   180.000000     0.000000     1.000000     0.000000     0.000000    -0.500000     0.500000
    4    -1.000000   180.000000     0.000000     1.000000     0.000000     0.000000    -0.500000     0.500000
    5     1.000000   179.999999     1.000000     0.000000     0.000000    -0.500000    -0.500000     0.000000
    6    -1.000000   179.999999     1.000000     0.000000     0.000000    -0.500000    -0.500000     0.000000
    7     1.000000   180.000000     0.000000     0.000000     1.000000    -0.500000     0.000000     0.500000
    8    -1.000000   180.000000     0.000000     0.000000     1.000000    -0.500000     0.000000     0.500000
 
 Subroutine IBZKPT returns following result:
 ===========================================
 
 Found     27 irreducible k-points:
 
 Following reciprocal coordinates:
            Coordinates               Weight
  0.000000  0.000000  0.000000      1.000000
  0.250000  0.000000  0.000000      2.000000
  0.500000  0.000000  0.000000      1.000000
  0.000000  0.250000  0.000000      2.000000
  0.250000  0.250000  0.000000      4.000000
  0.500000  0.250000  0.000000      2.000000
  0.000000  0.500000  0.000000      1.000000
  0.250000  0.500000  0.000000      2.000000
  0.500000  0.500000  0.000000      1.000000
  0.000000  0.000000  0.250000      2.000000
  0.250000  0.000000  0.250000      4.000000
  0.500000  0.000000  0.250000      2.000000
  0.000000  0.250000  0.250000      4.000000
  0.250000  0.250000  0.250000      8.000000
  0.500000  0.250000  0.250000      4.000000
  0.000000  0.500000  0.250000      2.000000
  0.250000  0.500000  0.250000      4.000000
  0.500000  0.500000  0.250000      2.000000
  0.000000  0.000000  0.500000      1.000000
  0.250000  0.000000  0.500000      2.000000
  0.500000  0.000000  0.500000      1.000000
  0.000000  0.250000  0.500000      2.000000
  0.250000  0.250000  0.500000      4.000000
  0.500000  0.250000  0.500000      2.000000
  0.000000  0.500000  0.500000      1.000000
  0.250000  0.500000  0.500000      2.000000
  0.500000  0.500000  0.500000      1.000000
 
 Following cartesian coordinates:
            Coordinates               Weight
  0.000000  0.000000  0.000000      1.000000
  0.033990  0.000000  0.000000      2.000000
  0.067981  0.000000  0.000000      1.000000
  0.000000  0.026678  0.000000      2.000000
  0.033990  0.026678  0.000000      4.000000
  0.067981  0.026678  0.000000      2.000000
  0.000000  0.053356  0.000000      1.000000
  0.033990  0.053356  0.000000      2.000000
  0.067981  0.053356  0.000000      1.000000
  0.000000  0.000000  0.037313      2.000000
  0.033990  0.000000  0.037313      4.000000
  0.067981  0.000000  0.037313      2.000000
  0.000000  0.026678  0.037313      4.000000
  0.033990  0.026678  0.037313      8.000000
  0.067981  0.026678  0.037313      4.000000
  0.000000  0.053356  0.037313      2.000000
  0.033990  0.053356  0.037313      4.000000
  0.067981  0.053356  0.037313      2.000000
  0.000000  0.000000  0.074627      1.000000
  0.033990  0.000000  0.074627      2.000000
  0.067981  0.000000  0.074627      1.000000
  0.000000  0.026678  0.074627      2.000000
  0.033990  0.026678  0.074627      4.000000
  0.067981  0.026678  0.074627      2.000000
  0.000000  0.053356  0.074627      1.000000
  0.033990  0.053356  0.074627      2.000000
  0.067981  0.053356  0.074627      1.000000
 
 TETIRR: Found    192 inequivalent tetrahedra from      384


--------------------------------------------------------------------------------------------------------




 Dimension of arrays:
   k-points           NKPTS =     27   k-points in BZ     NKDIM =     27   number of bands    NBANDS=     86
   number of dos      NEDOS =    301   number of ions     NIONS =     48
   non local maximal  LDIM  =      4   non local SUM 2l+1 LMDIM =      8
   total plane-waves  NPLWV = 120960
   max r-space proj   IRMAX =      1   max aug-charges    IRDMAX=   3115
   dimension x,y,z NGX =    48 NGY =   60 NGZ =   42
   dimension x,y,z NGXF=    96 NGYF=  120 NGZF=   84
   support grid    NGXF=    96 NGYF=  120 NGZF=   84
   ions per type =              24  24
 NGX,Y,Z   is equivalent  to a cutoff of  10.64, 10.44, 10.22 a.u.
 NGXF,Y,Z  is equivalent  to a cutoff of  21.28, 20.88, 20.44 a.u.


 I would recommend the setting:
   dimension x,y,z NGX =    45 NGY =   57 NGZ =   41
 SYSTEM =  benzene                                 
 POSCAR =  C6 H6                                   

 Startparameter for this run:
   NWRITE =      2    write-flag & timer
   PREC   = normal    normal or accurate (medium, high low for compatibility)
   ISTART =      0    job   : 0-new  1-cont  2-samecut
   ICHARG =      2    charge: 1-file 2-atom 10-const
   ISPIN  =      1    spin polarized calculation?
   LNONCOLLINEAR =      F non collinear calculations
   LSORBIT =      F    spin-orbit coupling
   INIWAV =      1    electr: 0-lowe 1-rand  2-diag
   LASPH  =      F    aspherical Exc in radial PAW
   METAGGA=      F    non-selfconsistent MetaGGA calc.

 Electronic Relaxation 1
   ENCUT  =  600.0 eV  44.10 Ry    6.64 a.u.  14.98 19.08 13.64*2*pi/ulx,y,z
   ENINI  =  600.0     initial cutoff
   ENAUG  =  644.9 eV  augmentation charge cutoff
   NELM   =    200;   NELMIN=  2; NELMDL=  0     # of ELM steps 
   EDIFF  = 0.1E-05   stopping-criterion for ELM
   LREAL  =      F    real-space projection
   NLSPLINE    = F    spline interpolate recip. space projectors
   LCOMPAT=      F    compatible to vasp.4.4
   GGA_COMPAT  = T    GGA compatible to vasp.4.4-vasp.4.6
   LMAXPAW     = -100 max onsite density
   LMAXMIX     =    2 max onsite mixed and CHGCAR
   VOSKOWN=      0    Vosko Wilk Nusair interpolation
   ROPT   =    0.00000   0.00000
 Ionic relaxation
   EDIFFG = 0.1E-03   stopping-criterion for IOM
   NSW    =    200    number of steps for IOM
   NBLOCK =      1;   KBLOCK =    200    inner block; outer block 
   IBRION =      2    ionic relax: 0-MD 1-quasi-New 2-CG
   NFREE  =      1    steps in history (QN), initial steepest desc. (CG)
   ISIF   =      2    stress and relaxation
   IWAVPR =     11    prediction:  0-non 1-charg 2-wave 3-comb
   ISYM   =      2    0-nonsym 1-usesym 2-fastsym
   LCORR  =      T    Harris-Foulkes like correction to forces

   POTIM  = 0.5000    time-step for ionic-motion
   TEIN   =    0.0    initial temperature
   TEBEG  =    0.0;   TEEND  =   0.0 temperature during run
   SMASS  =  -3.00    Nose mass-parameter (am)
   estimated Nose-frequenzy (Omega)   =  0.10E-29 period in steps =****** mass=  -0.129E-26a.u.
   SCALEE = 1.0000    scale energy and forces
   NPACO  =    256;   APACO  = 16.0  distance and # of slots for P.C.
   PSTRESS=    0.0 pullay stress

  Mass of Ions in am
   POMASS =  12.01  1.00
  Ionic Valenz
   ZVAL   =   4.00  1.00
  Atomic Wigner-Seitz radii
   RWIGS  =  -1.00 -1.00
  virtual crystal weights 
   VCA    =   1.00  1.00
   NELECT =     120.0000    total number of electrons
   NUPDOWN=      -1.0000    fix difference up-down

 DOS related values:
   EMIN   =  10.00;   EMAX   =-10.00  energy-range for DOS
   EFERMI =   0.00
   ISMEAR =    -5;   SIGMA  =   0.20  broadening in eV -4-tet -1-fermi 0-gaus

 Electronic relaxation 2 (details)
   IALGO  =     38    algorithm
   LDIAG  =      T    sub-space diagonalisation (order eigenvalues)
   LSUBROT=      F    optimize rotation matrix (better conditioning)
   TURBO    =      0    0=normal 1=particle mesh
   IRESTART =      0    0=no restart 2=restart with 2 vectors
   NREBOOT  =      0    no. of reboots
   NMIN     =      0    reboot dimension
   EREF     =   0.00    reference energy to select bands
   IMIX   =      4    mixing-type and parameters
     AMIX     =   0.40;   BMIX     =  1.00
     AMIX_MAG =   1.60;   BMIX_MAG =  1.00
     AMIN     =   0.10
     WC   =   100.;   INIMIX=   1;  MIXPRE=   1;  MAXMIX= -45

 Intra band minimization:
   WEIMIN = 0.0010     energy-eigenvalue tresh-hold
   EBREAK =  0.29E-08  absolut break condition
   DEPER  =   0.30     relativ break condition  

   TIME   =   0.40     timestep for ELM

  volume/ion in A,a.u.               =      10.20        68.82
  Fermi-wavevector in a.u.,A,eV,Ry     =   1.024595  1.936203 14.283322  1.049795
  Thomas-Fermi vector in A             =   2.158390
 
 Write flags
   LWAVE  =      F    write WAVECAR
   LCHARG =      F    write CHGCAR
   LVTOT  =      F    write LOCPOT, total local potential
   LVHAR  =      F    write LOCPOT, Hartree potential only
   LELF   =      F    write electronic localiz. function (ELF)
   LORBIT =      0    0 simple, 1 ext, 2 COOP (PROOUT)


 Dipole corrections
   LMONO  =      F    monopole corrections only (constant potential shift)
   LDIPOL =      F    correct potential (dipole corrections)
   IDIPOL =      0    1-x, 2-y, 3-z, 4-all directions 
   EPSILON=  1.0000000 bulk dielectric constant

 Exchange correlation treatment:
   GGA     =    PE    GGA type
   LEXCH   =     8    internal setting for exchange type
   VOSKOWN=      0    Vosko Wilk Nusair interpolation
   LHFCALC =     F    Hartree Fock is set to
   LHFONE  =     F    Hartree Fock one center treatment
   AEXX    =    0.0000 exact exchange contribution

 Linear response parameters
   LEPSILON=     F    determine dielectric tensor
   LRPA    =     F    only Hartree local field effects (RPA)
   LNABLA  =     F    use nabla operator in PAW spheres
   LVEL    =     F    velocity operator in full k-point grid
   LINTERFAST=   F  fast interpolation
   KINTER  =     0    interpolate to denser k-point grid
   CSHIFT  =0.1000    complex shift for real part using Kramers Kronig
   OMEGAMAX=  -1.0    maximum frequency
   DEG_THRESHOLD= 0.2000000E-02 threshold for treating states as degnerate
   RTIME   =    0.100 relaxation time in fs

 Orbital magnetization related:
   ORBITALMAG=     F  switch on orbital magnetization
   LCHIMAG   =     F  perturbation theory with respect to B field
   DQ        =  0.001000  dq finite difference perturbation B field



--------------------------------------------------------------------------------------------------------


 conjugate gradient relaxation of ions
 charge density and potential will be updated during run
 non-spin polarized calculation
 Variant of blocked Davidson
 Davidson routine will perform the subspace rotation
 perform sub-space diagonalisation
    after iterative eigenvector-optimisation
 modified Broyden-mixing scheme, WC =      100.0
 initial mixing is a Kerker type mixing with AMIX =  0.4000 and BMIX =      1.0000
 Hartree-type preconditioning will be used
 using additional bands           26
 reciprocal scheme for non local part
 calculate Harris-corrections to forces 
   (improved forces if not selfconsistent)
 use gradient corrections 
 use of overlap-Matrix (Vanderbilt PP)
 Fermi weights with tetrahedron method with Bloechl corrections


--------------------------------------------------------------------------------------------------------


  energy-cutoff  :      600.00
  volume of cell :      489.50
      direct lattice vectors                 reciprocal lattice vectors
     7.499252306  0.000000000  0.000000000     0.133346627  0.000000000  0.000000000
     0.000000000  9.554791755  0.000000000     0.000000000  0.104659529  0.000000000
     0.000000000  0.000000000  6.831405907     0.000000000  0.000000000  0.146382752

  length of vectors
     7.499252306  9.554791755  6.831405907     0.133346627  0.104659529  0.146382752


 
 k-points in units of 2pi/SCALE and weight: B4C B11C-CBC                            
   0.00000000  0.00000000  0.00000000       0.016
   0.03399048  0.00000000  0.00000000       0.031
   0.06798097  0.00000000  0.00000000       0.016
   0.00000000  0.02667805  0.00000000       0.031
   0.03399048  0.02667805  0.00000000       0.062
   0.06798097  0.02667805  0.00000000       0.031
   0.00000000  0.05335610  0.00000000       0.016
   0.03399048  0.05335610  0.00000000       0.031
   0.06798097  0.05335610  0.00000000       0.016
   0.00000000  0.00000000  0.03731343       0.031
   0.03399048  0.00000000  0.03731343       0.062
   0.06798097  0.00000000  0.03731343       0.031
   0.00000000  0.02667805  0.03731343       0.062
   0.03399048  0.02667805  0.03731343       0.125
   0.06798097  0.02667805  0.03731343       0.062
   0.00000000  0.05335610  0.03731343       0.031
   0.03399048  0.05335610  0.03731343       0.062
   0.06798097  0.05335610  0.03731343       0.031
   0.00000000  0.00000000  0.07462687       0.016
   0.03399048  0.00000000  0.07462687       0.031
   0.06798097  0.00000000  0.07462687       0.016
   0.00000000  0.02667805  0.07462687       0.031
   0.03399048  0.02667805  0.07462687       0.062
   0.06798097  0.02667805  0.07462687       0.031
   0.00000000  0.05335610  0.07462687       0.016
   0.03399048  0.05335610  0.07462687       0.031
   0.06798097  0.05335610  0.07462687       0.016
 
 k-points in reciprocal lattice and weights: B4C B11C-CBC                            
   0.00000000  0.00000000  0.00000000       0.016
   0.25000000  0.00000000  0.00000000       0.031
   0.50000000  0.00000000  0.00000000       0.016
   0.00000000  0.25000000  0.00000000       0.031
   0.25000000  0.25000000  0.00000000       0.062
   0.50000000  0.25000000  0.00000000       0.031
   0.00000000  0.50000000  0.00000000       0.016
   0.25000000  0.50000000  0.00000000       0.031
   0.50000000  0.50000000  0.00000000       0.016
   0.00000000  0.00000000  0.25000000       0.031
   0.25000000  0.00000000  0.25000000       0.062
   0.50000000  0.00000000  0.25000000       0.031
   0.00000000  0.25000000  0.25000000       0.062
   0.25000000  0.25000000  0.25000000       0.125
   0.50000000  0.25000000  0.25000000       0.062
   0.00000000  0.50000000  0.25000000       0.031
   0.25000000  0.50000000  0.25000000       0.062
   0.50000000  0.50000000  0.25000000       0.031
   0.00000000  0.00000000  0.50000000       0.016
   0.25000000  0.00000000  0.50000000       0.031
   0.50000000  0.00000000  0.50000000       0.016
   0.00000000  0.25000000  0.50000000       0.031
   0.25000000  0.25000000  0.50000000       0.062
   0.50000000  0.25000000  0.50000000       0.031
   0.00000000  0.50000000  0.50000000       0.016
   0.25000000  0.50000000  0.50000000       0.031
   0.50000000  0.50000000  0.50000000       0.016
 
 position of ions in fractional coordinates (direct lattice) 
   0.94599998  0.13760001  0.99980003
   0.05400000  0.86239999  0.00020000
   0.55400002  0.86239999  0.49980000
   0.44600001  0.13760001  0.50019997
   0.05400000  0.63760001  0.50019997
   0.94599998  0.36239999  0.49980000
   0.44600001  0.36239999  0.00020000
   0.55400002  0.63760001  0.99980003
   0.07680000  0.09030000  0.13240001
   0.92320001  0.90969998  0.86759996
   0.42320001  0.90969998  0.63240004
   0.57679999  0.09030000  0.36759999
   0.92320001  0.59030002  0.36759999
   0.07680000  0.40970001  0.63240004
   0.57679999  0.40970001  0.86759996
   0.42320001  0.59030002  0.13240001
   0.87000001  0.04540000  0.87180000
   0.12999999  0.95459998  0.12820000
   0.62999999  0.95459998  0.37180000
   0.37000001  0.04540000  0.62820000
   0.12999999  0.54540002  0.62820000
   0.87000001  0.45460001  0.37180000
   0.37000001  0.45460001  0.12820000
   0.62999999  0.54540002  0.87180000
   0.91119999  0.23160000  0.99910003
   0.08880000  0.76840001  0.00090000
   0.58880001  0.76840001  0.49910000
   0.41119999  0.23160000  0.50089997
   0.08880000  0.73159999  0.50089997
   0.91119999  0.26840001  0.49910000
   0.41119999  0.26840001  0.00090000
   0.58880001  0.73159999  0.99910003
   0.12650000  0.15199999  0.22240000
   0.87349999  0.84799999  0.77759999
   0.37349999  0.84799999  0.72240001
   0.62650001  0.15199999  0.27759999
   0.87349999  0.65200001  0.27759999
   0.12650000  0.34799999  0.72240001
   0.62650001  0.34799999  0.77759999
   0.37349999  0.65200001  0.22240000
   0.78079999  0.07640000  0.78670001
   0.21920000  0.92360002  0.21330001
   0.71920001  0.92360002  0.28670001
   0.28079999  0.07640000  0.71329999
   0.21920000  0.57639998  0.71329999
   0.78079999  0.42360002  0.28670001
   0.28079999  0.42360002  0.21330001
   0.71920001  0.57639998  0.78670001
 
 position of ions in cartesian coordinates  (Angst):
   7.09429253  1.31473939  6.83003980
   0.40495963  8.24005236  0.00136628
   4.15458593  8.24005236  3.41433665
   3.34466660  1.31473939  3.41706906
   0.40495963  6.09213527  3.41706906
   7.09429253  3.46265648  3.41433665
   3.34466660  3.46265648  0.00136628
   4.15458593  6.09213527  6.83003980
   0.57594261  0.86279771  0.90447818
   6.92330981  8.69199383  5.92692752
   3.17368366  8.69199383  4.32018134
   4.32556865  0.86279771  2.51122477
   6.92330981  5.64019380  2.51122477
   0.57594261  3.91459824  4.32018134
   4.32556865  3.91459824  5.92692752
   3.17368366  5.64019380  0.90447818
   6.52434954  0.43378756  5.95561970
   0.97490276  9.12100399  0.87578620
   4.72452892  9.12100399  2.53991675
   2.77472339  0.43378756  4.29148916
   0.97490276  5.21118364  4.29148916
   6.52434954  4.34360839  2.53991675
   2.77472339  4.34360839  0.87578620
   4.72452892  5.21118364  5.95561970
   6.83331860  2.21288978  6.82525784
   0.66593359  7.34190211  0.00614827
   4.41555986  7.34190211  3.40955469
   3.08369245  2.21288978  3.42185102
   0.66593359  6.99028552  3.42185102
   6.83331860  2.56450623  3.40955469
   3.08369245  2.56450623  0.00614827
   4.41555986  6.99028552  6.82525784
   0.94865539  1.45232830  1.51930464
   6.55059681  8.10246331  5.31210117
   2.80097066  8.10246331  4.93500770
   4.69828164  1.45232830  1.89639821
   6.55059681  6.22972432  1.89639821
   0.94865539  3.32506744  4.93500770
   4.69828164  3.32506744  5.31210117
   2.80097066  6.22972432  1.51930464
   5.85541609  0.72998606  5.37426710
   1.64383611  8.82480584  1.45713891
   5.39346237  8.82480584  1.95856414
   2.10578993  0.72998606  4.87284177
   1.64383611  5.50738180  4.87284177
   5.85541609  4.04740996  1.95856414
   2.10578993  4.04740996  1.45713891
   5.39346237  5.50738180  5.37426710
 


--------------------------------------------------------------------------------------------------------


 k-point  1 :   0.0000 0.0000 0.0000  plane waves:   16313
 k-point  2 :   0.2500 0.0000 0.0000  plane waves:   16364
 k-point  3 :   0.5000 0.0000 0.0000  plane waves:   16342
 k-point  4 :   0.0000 0.2500 0.0000  plane waves:   16328
 k-point  5 :   0.2500 0.2500 0.0000  plane waves:   16365
 k-point  6 :   0.5000 0.2500 0.0000  plane waves:   16348
 k-point  7 :   0.0000 0.5000 0.0000  plane waves:   16310
 k-point  8 :   0.2500 0.5000 0.0000  plane waves:   16322
 k-point  9 :   0.5000 0.5000 0.0000  plane waves:   16380
 k-point 10 :   0.0000 0.0000 0.2500  plane waves:   16293
 k-point 11 :   0.2500 0.0000 0.2500  plane waves:   16328
 k-point 12 :   0.5000 0.0000 0.2500  plane waves:   16354
 k-point 13 :   0.0000 0.2500 0.2500  plane waves:   16323
 k-point 14 :   0.2500 0.2500 0.2500  plane waves:   16335
 k-point 15 :   0.5000 0.2500 0.2500  plane waves:   16330
 k-point 16 :   0.0000 0.5000 0.2500  plane waves:   16322
 k-point 17 :   0.2500 0.5000 0.2500  plane waves:   16364
 k-point 18 :   0.5000 0.5000 0.2500  plane waves:   16352
 k-point 19 :   0.0000 0.0000 0.5000  plane waves:   16312
 k-point 20 :   0.2500 0.0000 0.5000  plane waves:   16276
 k-point 21 :   0.5000 0.0000 0.5000  plane waves:   16320
 k-point 22 :   0.0000 0.2500 0.5000  plane waves:   16310
 k-point 23 :   0.2500 0.2500 0.5000  plane waves:   16314
 k-point 24 :   0.5000 0.2500 0.5000  plane waves:   16344
 k-point 25 :   0.0000 0.5000 0.5000  plane waves:   16308
 k-point 26 :   0.2500 0.5000 0.5000  plane waves:   16332
 k-point 27 :   0.5000 0.5000 0.5000  plane waves:   16336

 maximum and minimum number of plane-waves per node :      4130     4045

 maximum number of plane-waves:     16380
 maximum index in each direction: 
   IXMAX=   14   IYMAX=   19   IZMAX=   13
   IXMIN=  -15   IYMIN=  -19   IZMIN=  -14

 WARNING: aliasing errors must be expected set NGX to  60 to avoid them
 WARNING: aliasing errors must be expected set NGY to  78 to avoid them
 WARNING: aliasing errors must be expected set NGZ to  56 to avoid them
 aliasing errors are usually negligible using standard VASP settings
 and one can safely disregard these warnings

 parallel 3D FFT for wavefunctions:
    minimum data exchange during FFTs selected (reduces bandwidth)
 parallel 3D FFT for charge:
    minimum data exchange during FFTs selected (reduces bandwidth)


 total amount of memory used by VASP on root node   138836. kBytes
========================================================================

   base      :      30000. kBytes
   nonl-proj :      17445. kBytes
   fftplans  :       5078. kBytes
   grid      :       8110. kBytes
   one-center:         36. kBytes
   wavefun   :      78167. kBytes
 
     INWAV:  cpu time    0.00: real time    0.00
 Broyden mixing: mesh for mixing (old mesh)
   NGX = 29   NGY = 39   NGZ = 27
  (NGX  = 96   NGY  =120   NGZ  = 84)
  gives a total of  30537 points

 initial charge density was supplied:
 charge density of overlapping atoms calculated
 number of electron     120.0000000 magnetization 
 keeping initial charge density in first step


--------------------------------------------------------------------------------------------------------


 Maximum index for augmentation-charges          379 (set IRDMAX)


--------------------------------------------------------------------------------------------------------


 First call to EWALD:  gamma=   0.225
 Maximum number of real-space cells 3x 2x 3
 Maximum number of reciprocal cells 3x 3x 2

 FEWALD executed in parallel
    FEWALD:  cpu time    0.06: real time    0.26


----------------------------------------- Iteration    1(   1)  ---------------------------------------


    POTLOK:  cpu time    0.77: real time    3.04
    SETDIJ:  cpu time    0.06: real time    0.24
     EDDAV:  cpu time  259.15: real time 1036.83
 BZINTS: Fermi energy:  9.471695;120.000000 electrons
         Band energy:-497.274343;  BLOECHL correction: -0.069742
       DOS:  cpu time    0.07: real time    0.30
    --------------------------------------------
      LOOP:  cpu time  260.05: real time 1040.42

 eigenvalue-minimisations  :  4644
 total energy-change (2. order) : 0.6537280E+03  (-0.5915432E+04)
 number of electron     120.0000000 magnetization 
 augmentation part      120.0000000 magnetization 

 Free energy of the ion-electron system (eV)
  ---------------------------------------------------
  alpha Z        PSCENC =       134.18282821
  Ewald energy   TEWEN  =     -1260.55503022
  -Hartree energ DENC   =     -1915.91886686
  -exchange      EXHF   =         0.00000000
  -V(xc)+E(xc)   XCENC  =       389.80246151
  PAW double counting   =       926.70645134     -954.53414885
  entropy T*S    EENTRO =         0.00000000
  eigenvalues    EBANDS =      -497.27434336
  atomic energy  EATOM  =      3831.31862854
  ---------------------------------------------------
  free energy    TOTEN  =       653.72798032 eV

  energy without entropy =      653.72798032  energy(sigma->0) =      653.72798032


--------------------------------------------------------------------------------------------------------




----------------------------------------- Iteration    1(   2)  ---------------------------------------


     EDDAV:  cpu time  298.77: real time 1195.29
 BZINTS: Fermi energy: -3.455668;120.000000 electrons
         Band energy:***********;  BLOECHL correction:  0.000000
       DOS:  cpu time    0.02: real time    0.07
    --------------------------------------------
      LOOP:  cpu time  298.81: real time 1195.46

 eigenvalue-minimisations  :  5834
 total energy-change (2. order) :-0.9037813E+03  (-0.8754634E+03)
 number of electron     120.0000000 magnetization 
 augmentation part      120.0000000 magnetization 

 Free energy of the ion-electron system (eV)
  ---------------------------------------------------
  alpha Z        PSCENC =       134.18282821
  Ewald energy   TEWEN  =     -1260.55503022
  -Hartree energ DENC   =     -1915.91886686
  -exchange      EXHF   =         0.00000000
  -V(xc)+E(xc)   XCENC  =       389.80246151
  PAW double counting   =       926.70645134     -954.53414885
  entropy T*S    EENTRO =         0.00000000
  eigenvalues    EBANDS =     -1401.05560745
  atomic energy  EATOM  =      3831.31862854
  ---------------------------------------------------
  free energy    TOTEN  =      -250.05328377 eV

  energy without entropy =     -250.05328377  energy(sigma->0) =     -250.05328377


--------------------------------------------------------------------------------------------------------




----------------------------------------- Iteration    1(   3)  ---------------------------------------


     EDDAV:  cpu time  292.14: real time 1168.77
 BZINTS: Fermi energy: -4.894851;120.000000 electrons
         Band energy:***********;  BLOECHL correction:  0.000000
       DOS:  cpu time    0.02: real time    0.08
    --------------------------------------------
      LOOP:  cpu time  292.18: real time 1168.92

 eigenvalue-minimisations  :  5616
 total energy-change (2. order) :-0.8167983E+02  (-0.8113100E+02)
 number of electron     120.0000000 magnetization 
 augmentation part      120.0000000 magnetization 

 Free energy of the ion-electron system (eV)
  ---------------------------------------------------
  alpha Z        PSCENC =       134.18282821
  Ewald energy   TEWEN  =     -1260.55503022
  -Hartree energ DENC   =     -1915.91886686
  -exchange      EXHF   =         0.00000000
  -V(xc)+E(xc)   XCENC  =       389.80246151
  PAW double counting   =       926.70645134     -954.53414885
  entropy T*S    EENTRO =         0.00000000
  eigenvalues    EBANDS =     -1482.73543502
  atomic energy  EATOM  =      3831.31862854
  ---------------------------------------------------
  free energy    TOTEN  =      -331.73311134 eV

  energy without entropy =     -331.73311134  energy(sigma->0) =     -331.73311134


--------------------------------------------------------------------------------------------------------




----------------------------------------- Iteration    1(   4)  ---------------------------------------


     EDDAV:  cpu time  309.79: real time 1239.39
 BZINTS: Fermi energy: -4.897226;120.000000 electrons
         Band energy:***********;  BLOECHL correction:  0.000000
       DOS:  cpu time    0.01: real time    0.07
    --------------------------------------------
      LOOP:  cpu time  309.82: real time 1239.53

 eigenvalue-minimisations  :  5912
 total energy-change (2. order) :-0.1737690E+01  (-0.1735028E+01)
 number of electron     120.0000000 magnetization 
 augmentation part      120.0000000 magnetization 

 Free energy of the ion-electron system (eV)
  ---------------------------------------------------
  alpha Z        PSCENC =       134.18282821
  Ewald energy   TEWEN  =     -1260.55503022
  -Hartree energ DENC   =     -1915.91886686
  -exchange      EXHF   =         0.00000000
  -V(xc)+E(xc)   XCENC  =       389.80246151
  PAW double counting   =       926.70645134     -954.53414885
  entropy T*S    EENTRO =         0.00000000
  eigenvalues    EBANDS =     -1484.47312507
  atomic energy  EATOM  =      3831.31862854
  ---------------------------------------------------
  free energy    TOTEN  =      -333.47080139 eV

  energy without entropy =     -333.47080139  energy(sigma->0) =     -333.47080139


--------------------------------------------------------------------------------------------------------




----------------------------------------- Iteration    1(   5)  ---------------------------------------


     EDDAV:  cpu time  298.40: real time 1193.81
 BZINTS: Fermi energy: -4.939583;120.000000 electrons
         Band energy:***********;  BLOECHL correction:  0.000000
       DOS:  cpu time    0.02: real time    0.06
    CHARGE:  cpu time    6.38: real time   25.54
    MIXING:  cpu time    0.06: real time    0.26
    --------------------------------------------
      LOOP:  cpu time  304.88: real time 1219.72

 eigenvalue-minimisations  :  5856
 total energy-change (2. order) :-0.3847904E-01  (-0.3847163E-01)
 number of electron     120.0000019 magnetization 
 augmentation part        3.6721659 magnetization 

 Broyden mixing:
  rms(total) = 0.32795E+01    rms(broyden)= 0.32793E+01
  rms(prec ) = 0.44765E+01
  weight for this iteration     100.00

 Free energy of the ion-electron system (eV)
  ---------------------------------------------------
  alpha Z        PSCENC =       134.18282821
  Ewald energy   TEWEN  =     -1260.55503022
  -Hartree energ DENC   =     -1915.91886686
  -exchange      EXHF   =         0.00000000
  -V(xc)+E(xc)   XCENC  =       389.80246151
  PAW double counting   =       926.70645134     -954.53414885
  entropy T*S    EENTRO =         0.00000000
  eigenvalues    EBANDS =     -1484.51160410
  atomic energy  EATOM  =      3831.31862854
  ---------------------------------------------------
  free energy    TOTEN  =      -333.50928043 eV

  energy without entropy =     -333.50928043  energy(sigma->0) =     -333.50928043


--------------------------------------------------------------------------------------------------------




----------------------------------------- Iteration    1(   6)  ---------------------------------------


    POTLOK:  cpu time    0.76: real time    3.00
    SETDIJ:  cpu time    0.08: real time    0.33
     EDDAV:  cpu time  271.90: real time 1087.82
 BZINTS: Fermi energy: -3.119576;120.000000 electrons
         Band energy:***********;  BLOECHL correction:  0.000000
       DOS:  cpu time    0.02: real time    0.07
    CHARGE:  cpu time    6.39: real time   27.00
    MIXING:  cpu time    0.10: real time    0.49
    --------------------------------------------
      LOOP:  cpu time  279.25: real time 1118.75

 eigenvalue-minimisations  :  5006
 total energy-change (2. order) : 0.3442573E+02  (-0.4101481E+01)
 number of electron     120.0000018 magnetization 
 augmentation part        3.3955409 magnetization 

 Broyden mixing:
  rms(total) = 0.16252E+01    rms(broyden)= 0.16252E+01
  rms(prec ) = 0.21709E+01
  weight for this iteration     100.00

 eigenvalues of (default mixing * dielectric matrix)
  average eigenvalue GAMMA=   1.8119
  1.8119

 Free energy of the ion-electron system (eV)
  ---------------------------------------------------
  alpha Z        PSCENC =       134.18282821
  Ewald energy   TEWEN  =     -1260.55503022
  -Hartree energ DENC   =     -2157.27470607
  -exchange      EXHF   =         0.00000000
  -V(xc)+E(xc)   XCENC  =       404.79755372
  PAW double counting   =      1459.44725826    -1491.11699851
  entropy T*S    EENTRO =         0.00000000
  eigenvalues    EBANDS =     -1219.88308821
  atomic energy  EATOM  =      3831.31862854
  ---------------------------------------------------
  free energy    TOTEN  =      -299.08355429 eV

  energy without entropy =     -299.08355429  energy(sigma->0) =     -299.08355429


--------------------------------------------------------------------------------------------------------




----------------------------------------- Iteration    1(   7)  ---------------------------------------


    POTLOK:  cpu time    0.72: real time    3.59
    SETDIJ:  cpu time    0.07: real time    0.38
     EDDAV:  cpu time  282.41: real time 1412.28
 BZINTS: Fermi energy: -1.773788;120.000000 electrons
         Band energy:***********;  BLOECHL correction:  0.000000
       DOS:  cpu time    0.01: real time    0.07
    CHARGE:  cpu time    5.77: real time   28.87
    MIXING:  cpu time    0.10: real time    0.50
    --------------------------------------------
      LOOP:  cpu time  289.10: real time 1445.75

 eigenvalue-minimisations  :  5584
 total energy-change (2. order) : 0.9005150E+01  (-0.2732405E+01)
 number of electron     120.0000017 magnetization 
 augmentation part        3.1667413 magnetization 

 Broyden mixing:
  rms(total) = 0.42290E+00    rms(broyden)= 0.42280E+00
  rms(prec ) = 0.51457E+00
  weight for this iteration     100.00

 eigenvalues of (default mixing * dielectric matrix)
  average eigenvalue GAMMA=   1.9542
  1.9542  1.9542

 Free energy of the ion-electron system (eV)
  ---------------------------------------------------
  alpha Z        PSCENC =       134.18282821
  Ewald energy   TEWEN  =     -1260.55503022
  -Hartree energ DENC   =     -2374.55091218
  -exchange      EXHF   =         0.00000000
  -V(xc)+E(xc)   XCENC  =       419.72881730
  PAW double counting   =      2041.76885018    -2075.89298130
  entropy T*S    EENTRO =         0.00000000
  eigenvalues    EBANDS =     -1006.07860490
  atomic energy  EATOM  =      3831.31862854
  ---------------------------------------------------
  free energy    TOTEN  =      -290.07840436 eV

  energy without entropy =     -290.07840436  energy(sigma->0) =     -290.07840436


--------------------------------------------------------------------------------------------------------




----------------------------------------- Iteration    1(   8)  ---------------------------------------


    POTLOK:  cpu time    0.76: real time    3.75
    SETDIJ:  cpu time    0.07: real time    0.37
     EDDAV:  cpu time  271.05: real time 1355.48
 BZINTS: Fermi energy: -1.879610;120.000000 electrons
         Band energy:***********;  BLOECHL correction:  0.000000
       DOS:  cpu time    0.01: real time    0.07
    CHARGE:  cpu time    5.54: real time   27.71
    MIXING:  cpu time    0.12: real time    0.60
    --------------------------------------------
      LOOP:  cpu time  277.56: real time 1388.06

 eigenvalue-minimisations  :  5210
 total energy-change (2. order) : 0.7223204E-01  (-0.1454976E+00)
 number of electron     120.0000017 magnetization 
 augmentation part        3.1793482 magnetization 

 Broyden mixing:
  rms(total) = 0.85470E-01    rms(broyden)= 0.85463E-01
  rms(prec ) = 0.14031E+00
  weight for this iteration     100.00

 eigenvalues of (default mixing * dielectric matrix)
  average eigenvalue GAMMA=   1.7150
  1.0970  2.4202  1.6277

 Free energy of the ion-electron system (eV)
  ---------------------------------------------------
  alpha Z        PSCENC =       134.18282821
  Ewald energy   TEWEN  =     -1260.55503022
  -Hartree energ DENC   =     -2371.85197092
  -exchange      EXHF   =         0.00000000
  -V(xc)+E(xc)   XCENC  =       420.73829490
  PAW double counting   =      2086.78849098    -2120.04346091
  entropy T*S    EENTRO =         0.00000000
  eigenvalues    EBANDS =     -1010.58395291
  atomic energy  EATOM  =      3831.31862854
  ---------------------------------------------------
  free energy    TOTEN  =      -290.00617232 eV

  energy without entropy =     -290.00617232  energy(sigma->0) =     -290.00617232


--------------------------------------------------------------------------------------------------------




----------------------------------------- Iteration    1(   9)  ---------------------------------------


    POTLOK:  cpu time    0.74: real time    3.69
    SETDIJ:  cpu time    0.06: real time    0.30
     EDDAV:  cpu time  280.12: real time 1400.88
 BZINTS: Fermi energy: -1.796935;120.000000 electrons
         Band energy:-996.593950;  BLOECHL correction:  0.000000
       DOS:  cpu time    0.01: real time    0.07
    CHARGE:  cpu time    5.50: real time   27.51
    MIXING:  cpu time    0.11: real time    0.56
    --------------------------------------------
      LOOP:  cpu time  286.57: real time 1433.10

 eigenvalue-minimisations  :  5432
 total energy-change (2. order) : 0.1960467E-01  (-0.2073830E-01)
 number of electron     120.0000017 magnetization 
 augmentation part        3.1660138 magnetization 

 Broyden mixing:
  rms(total) = 0.31018E-01    rms(broyden)= 0.31014E-01
  rms(prec ) = 0.49272E-01
  weight for this iteration     100.00

 eigenvalues of (default mixing * dielectric matrix)
  average eigenvalue GAMMA=   1.5724
  2.0072  2.0072  1.1376  1.1376

 Free energy of the ion-electron system (eV)
  ---------------------------------------------------
  alpha Z        PSCENC =       134.18282821
  Ewald energy   TEWEN  =     -1260.55503022
  -Hartree energ DENC   =     -2386.76281540
  -exchange      EXHF   =         0.00000000
  -V(xc)+E(xc)   XCENC  =       421.75430911
  PAW double counting   =      2122.23287539    -2155.56341284
  entropy T*S    EENTRO =         0.00000000
  eigenvalues    EBANDS =      -996.59395044
  atomic energy  EATOM  =      3831.31862854
  ---------------------------------------------------
  free energy    TOTEN  =      -289.98656765 eV

  energy without entropy =     -289.98656765  energy(sigma->0) =     -289.98656765


--------------------------------------------------------------------------------------------------------




----------------------------------------- Iteration    1(  10)  ---------------------------------------


    POTLOK:  cpu time    0.75: real time    3.72
    SETDIJ:  cpu time    0.08: real time    0.42
     EDDAV:  cpu time  272.14: real time 1360.95
 BZINTS: Fermi energy: -1.778551;120.000000 electrons
         Band energy:-995.500604;  BLOECHL correction:  0.000000
       DOS:  cpu time    0.01: real time    0.07
    CHARGE:  cpu time    5.25: real time   26.24
    MIXING:  cpu time    0.12: real time    0.62
    --------------------------------------------
      LOOP:  cpu time  278.36: real time 1392.08

 eigenvalue-minimisations  :  5334
 total energy-change (2. order) :-0.7670617E-02  (-0.1935808E-02)
 number of electron     120.0000017 magnetization 
 augmentation part        3.1636152 magnetization 

 Broyden mixing:
  rms(total) = 0.18288E-01    rms(broyden)= 0.18287E-01
  rms(prec ) = 0.28969E-01
  weight for this iteration     100.00

 eigenvalues of (default mixing * dielectric matrix)
  average eigenvalue GAMMA=   1.6306
  2.3885  2.2275  1.3098  1.3098  0.9174

 Free energy of the ion-electron system (eV)
  ---------------------------------------------------
  alpha Z        PSCENC =       134.18282821
  Ewald energy   TEWEN  =     -1260.55503022
  -Hartree energ DENC   =     -2387.88017027
  -exchange      EXHF   =         0.00000000
  -V(xc)+E(xc)   XCENC  =       421.75036651
  PAW double counting   =      2116.48715389    -2149.79741139
  entropy T*S    EENTRO =         0.00000000
  eigenvalues    EBANDS =      -995.50060355
  atomic energy  EATOM  =      3831.31862854
  ---------------------------------------------------
  free energy    TOTEN  =      -289.99423827 eV

  energy without entropy =     -289.99423827  energy(sigma->0) =     -289.99423827


--------------------------------------------------------------------------------------------------------




----------------------------------------- Iteration    1(  11)  ---------------------------------------


    POTLOK:  cpu time    0.76: real time    3.79
    SETDIJ:  cpu time    0.06: real time    0.29
     EDDAV:  cpu time  263.11: real time 1316.05
 BZINTS: Fermi energy: -1.756588;120.000000 electrons
         Band energy:-993.107717;  BLOECHL correction:  0.000000
       DOS:  cpu time    0.02: real time    0.08
    CHARGE:  cpu time    5.65: real time   28.26
    MIXING:  cpu time    0.12: real time    0.61
    --------------------------------------------
      LOOP:  cpu time  269.74: real time 1349.18

 eigenvalue-minimisations  :  4952
 total energy-change (2. order) :-0.3530184E-02  (-0.4451744E-03)
 number of electron     120.0000017 magnetization 
 augmentation part        3.1620278 magnetization 

 Broyden mixing:
  rms(total) = 0.56867E-02    rms(broyden)= 0.56865E-02
  rms(prec ) = 0.96820E-02
  weight for this iteration     100.00

 eigenvalues of (default mixing * dielectric matrix)
  average eigenvalue GAMMA=   1.7465
  2.9920  2.2877  1.8406  0.9262  1.2162  1.2162

 Free energy of the ion-electron system (eV)
  ---------------------------------------------------
  alpha Z        PSCENC =       134.18282821
  Ewald energy   TEWEN  =     -1260.55503022
  -Hartree energ DENC   =     -2390.52361903
  -exchange      EXHF   =         0.00000000
  -V(xc)+E(xc)   XCENC  =       421.96517418
  PAW double counting   =      2120.31183334    -2153.58986696
  entropy T*S    EENTRO =         0.00000000
  eigenvalues    EBANDS =      -993.10771651
  atomic energy  EATOM  =      3831.31862854
  ---------------------------------------------------
  free energy    TOTEN  =      -289.99776845 eV

  energy without entropy =     -289.99776845  energy(sigma->0) =     -289.99776845


--------------------------------------------------------------------------------------------------------




----------------------------------------- Iteration    1(  12)  ---------------------------------------


    POTLOK:  cpu time    0.74: real time    3.66
    SETDIJ:  cpu time    0.07: real time    0.39
     EDDAV:  cpu time  270.24: real time 1351.53
 BZINTS: Fermi energy: -1.743909;120.000000 electrons
         Band energy:-991.452929;  BLOECHL correction:  0.000000
       DOS:  cpu time    0.02: real time    0.09
    CHARGE:  cpu time    5.24: real time   26.23
    MIXING:  cpu time    0.14: real time    0.68
    --------------------------------------------
      LOOP:  cpu time  276.47: real time 1382.64

 eigenvalue-minimisations  :  5132
 total energy-change (2. order) :-0.6129971E-03  (-0.2341787E-03)
 number of electron     120.0000017 magnetization 
 augmentation part        3.1603851 magnetization 

 Broyden mixing:
  rms(total) = 0.42645E-02    rms(broyden)= 0.42641E-02
  rms(prec ) = 0.64925E-02
  weight for this iteration     100.00

 eigenvalues of (default mixing * dielectric matrix)
  average eigenvalue GAMMA=   1.6685
  3.0142  2.1316  1.9061  1.3676  1.3676  0.9462  0.9462

 Free energy of the ion-electron system (eV)
  ---------------------------------------------------
  alpha Z        PSCENC =       134.18282821
  Ewald energy   TEWEN  =     -1260.55503022
  -Hartree energ DENC   =     -2392.26939332
  -exchange      EXHF   =         0.00000000
  -V(xc)+E(xc)   XCENC  =       422.06615770
  PAW double counting   =      2121.34729642    -2154.63593994
  entropy T*S    EENTRO =         0.00000000
  eigenvalues    EBANDS =      -991.45292884
  atomic energy  EATOM  =      3831.31862854
  ---------------------------------------------------
  free energy    TOTEN  =      -289.99838145 eV

  energy without entropy =     -289.99838145  energy(sigma->0) =     -289.99838145


--------------------------------------------------------------------------------------------------------




----------------------------------------- Iteration    1(  13)  ---------------------------------------


    POTLOK:  cpu time    0.75: real time    3.71
    SETDIJ:  cpu time    0.07: real time    0.34
     EDDAV:  cpu time  283.85: real time 1419.53
 BZINTS: Fermi energy: -1.746388;120.000000 electrons
         Band energy:-991.869812;  BLOECHL correction:  0.000000
       DOS:  cpu time    0.01: real time    0.07
    CHARGE:  cpu time    5.21: real time   26.05
    MIXING:  cpu time    0.15: real time    0.76
    --------------------------------------------
      LOOP:  cpu time  290.05: real time 1450.55

 eigenvalue-minimisations  :  5660
 total energy-change (2. order) : 0.7050219E-04  (-0.3452572E-04)
 number of electron     120.0000017 magnetization 
 augmentation part        3.1608564 magnetization 

 Broyden mixing:
  rms(total) = 0.10210E-02    rms(broyden)= 0.10210E-02
  rms(prec ) = 0.14946E-02
  weight for this iteration     100.00

 eigenvalues of (default mixing * dielectric matrix)
  average eigenvalue GAMMA=   1.6987
  3.0507  2.5597  1.8214  1.8214  1.2091  1.2091  0.9589  0.9589

 Free energy of the ion-electron system (eV)
  ---------------------------------------------------
  alpha Z        PSCENC =       134.18282821
  Ewald energy   TEWEN  =     -1260.55503022
  -Hartree energ DENC   =     -2391.84449474
  -exchange      EXHF   =         0.00000000
  -V(xc)+E(xc)   XCENC  =       422.05010618
  PAW double counting   =      2120.75348702    -2154.03402392
  entropy T*S    EENTRO =         0.00000000
  eigenvalues    EBANDS =      -991.86981202
  atomic energy  EATOM  =      3831.31862854
  ---------------------------------------------------
  free energy    TOTEN  =      -289.99831094 eV

  energy without entropy =     -289.99831094  energy(sigma->0) =     -289.99831094


--------------------------------------------------------------------------------------------------------




----------------------------------------- Iteration    1(  14)  ---------------------------------------


    POTLOK:  cpu time    0.73: real time    3.63
    SETDIJ:  cpu time    0.08: real time    0.42
     EDDAV:  cpu time  268.05: real time 1340.51
 BZINTS: Fermi energy: -1.747252;120.000000 electrons
         Band energy:-992.042390;  BLOECHL correction:  0.000000
       DOS:  cpu time    0.01: real time    0.07
    CHARGE:  cpu time    5.62: real time   28.10
    MIXING:  cpu time    0.16: real time    0.81
    --------------------------------------------
      LOOP:  cpu time  274.67: real time 1373.60

 eigenvalue-minimisations  :  5160
 total energy-change (2. order) :-0.1162120E-04  (-0.5941528E-05)
 number of electron     120.0000017 magnetization 
 augmentation part        3.1610530 magnetization 

 Broyden mixing:
  rms(total) = 0.58278E-03    rms(broyden)= 0.58269E-03
  rms(prec ) = 0.84768E-03
  weight for this iteration     100.00

 eigenvalues of (default mixing * dielectric matrix)
  average eigenvalue GAMMA=   1.7144
  3.1572  2.5533  2.1864  1.5867  1.5867  1.4328  0.9674  0.9793  0.9793

 Free energy of the ion-electron system (eV)
  ---------------------------------------------------
  alpha Z        PSCENC =       134.18282821
  Ewald energy   TEWEN  =     -1260.55503022
  -Hartree energ DENC   =     -2391.66069174
  -exchange      EXHF   =         0.00000000
  -V(xc)+E(xc)   XCENC  =       422.03719419
  PAW double counting   =      2120.15534954    -2153.43421080
  entropy T*S    EENTRO =         0.00000000
  eigenvalues    EBANDS =      -992.04239029
  atomic energy  EATOM  =      3831.31862854
  ---------------------------------------------------
  free energy    TOTEN  =      -289.99832257 eV

  energy without entropy =     -289.99832257  energy(sigma->0) =     -289.99832257


--------------------------------------------------------------------------------------------------------




----------------------------------------- Iteration    1(  15)  ---------------------------------------


    POTLOK:  cpu time    0.74: real time    3.70
    SETDIJ:  cpu time    0.06: real time    0.34
     EDDAV:  cpu time  275.86: real time 1379.55
 BZINTS: Fermi energy: -1.746697;120.000000 electrons
         Band energy:-991.950917;  BLOECHL correction:  0.000000
       DOS:  cpu time    0.02: real time    0.08
    CHARGE:  cpu time    5.31: real time   26.58
    MIXING:  cpu time    0.17: real time    0.86
    --------------------------------------------
      LOOP:  cpu time  282.19: real time 1411.19

 eigenvalue-minimisations  :  5320
 total energy-change (2. order) :-0.9445121E-06  (-0.1104246E-05)
 number of electron     120.0000017 magnetization 
 augmentation part        3.1609542 magnetization 

 Broyden mixing:
  rms(total) = 0.15265E-03    rms(broyden)= 0.15265E-03
  rms(prec ) = 0.23353E-03
  weight for this iteration     100.00

 eigenvalues of (default mixing * dielectric matrix)
  average eigenvalue GAMMA=   1.7091
  3.3370  2.6880  2.2813  1.9103  1.4448  1.4448  1.0204  0.9634  1.0004  1.0004

 Free energy of the ion-electron system (eV)
  ---------------------------------------------------
  alpha Z        PSCENC =       134.18282821
  Ewald energy   TEWEN  =     -1260.55503022
  -Hartree energ DENC   =     -2391.75506447
  -exchange      EXHF   =         0.00000000
  -V(xc)+E(xc)   XCENC  =       422.04188436
  PAW double counting   =      2120.32808024    -2153.60873329
  entropy T*S    EENTRO =         0.00000000
  eigenvalues    EBANDS =      -991.95091689
  atomic energy  EATOM  =      3831.31862854
  ---------------------------------------------------
  free energy    TOTEN  =      -289.99832351 eV

  energy without entropy =     -289.99832351  energy(sigma->0) =     -289.99832351


--------------------------------------------------------------------------------------------------------




----------------------------------------- Iteration    1(  16)  ---------------------------------------


    POTLOK:  cpu time    0.75: real time    3.73
    SETDIJ:  cpu time    0.07: real time    0.36
     EDDAV:  cpu time  220.64: real time 1103.41
 BZINTS: Fermi energy: -1.746788;120.000000 electrons
         Band energy:-991.970461;  BLOECHL correction:  0.000000
       DOS:  cpu time    0.02: real time    0.10
    --------------------------------------------
      LOOP:  cpu time  221.50: real time 1107.71

 eigenvalue-minimisations  :  3590
 total energy-change (2. order) : 0.1228000E-06  (-0.6798851E-07)
 number of electron     120.0000017 magnetization 
 augmentation part        3.1609542 magnetization 

 Free energy of the ion-electron system (eV)
  ---------------------------------------------------
  alpha Z        PSCENC =       134.18282821
  Ewald energy   TEWEN  =     -1260.55503022
  -Hartree energ DENC   =     -2391.73482680
  -exchange      EXHF   =         0.00000000
  -V(xc)+E(xc)   XCENC  =       422.04080289
  PAW double counting   =      2120.29161768    -2153.57188242
  entropy T*S    EENTRO =         0.00000000
  eigenvalues    EBANDS =      -991.97046127
  atomic energy  EATOM  =      3831.31862854
  ---------------------------------------------------
  free energy    TOTEN  =      -289.99832339 eV

  energy without entropy =     -289.99832339  energy(sigma->0) =     -289.99832339


--------------------------------------------------------------------------------------------------------




 average (electrostatic) potential at core
  the test charge radii are     0.6991  0.5201
  (the norm of the test charge is              1.0000)
       1 -54.2527       2 -54.2527       3 -54.2527       4 -54.2527       5 -54.2527
       6 -54.2527       7 -54.2527       8 -54.2527       9 -54.2412      10 -54.2412
      11 -54.2412      12 -54.2412      13 -54.2412      14 -54.2412      15 -54.2412
      16 -54.2412      17 -54.2062      18 -54.2063      19 -54.2063      20 -54.2062
      21 -54.2063      22 -54.2063      23 -54.2062      24 -54.2063      25 -39.7306
      26 -39.7306      27 -39.7306      28 -39.7306      29 -39.7306      30 -39.7306
      31 -39.7306      32 -39.7306      33 -39.8048      34 -39.8049      35 -39.8049
      36 -39.8048      37 -39.8049      38 -39.8048      39 -39.8048      40 -39.8049
      41 -39.6755      42 -39.6755      43 -39.6755      44 -39.6755      45 -39.6755
      46 -39.6755      47 -39.6755      48 -39.6755
 
 
 
 E-fermi :  -1.7468     XC(G=0):  -7.2915     alpha+bet : -6.2759


 k-point     1 :       0.0000    0.0000    0.0000
  band No.  band energies     occupation 
      1     -17.3767      2.00000
      2     -17.2955      2.00000
      3     -17.2430      2.00000
      4     -17.2265      2.00000
      5     -14.8353      2.00000
      6     -14.8029      2.00000
      7     -14.7981      2.00000
      8     -14.7627      2.00000
      9     -14.6445      2.00000
     10     -14.4843      2.00000
     11     -14.4378      2.00000
     12     -14.4372      2.00000
     13     -11.4242      2.00000
     14     -11.4161      2.00000
     15     -11.3925      2.00000
     16     -11.2264      2.00000
     17     -11.1272      2.00000
     18     -11.0932      2.00000
     19     -11.0667      2.00000
     20     -11.0446      2.00000
     21      -9.7066      2.00000
     22      -9.5145      2.00000
     23      -9.4684      2.00000
     24      -9.2937      2.00000
     25      -8.1583      2.00000
     26      -8.0855      2.00000
     27      -7.9147      2.00000
     28      -7.7950      2.00000
     29      -6.7995      2.00000
     30      -6.7639      2.00000
     31      -6.7371      2.00000
     32      -6.6783      2.00000
     33      -6.6631      2.00000
     34      -6.6313      2.00000
     35      -6.5762      2.00000
     36      -6.5183      2.00000
     37      -6.4399      2.00000
     38      -6.2905      2.00000
     39      -6.2399      2.00000
     40      -6.1457      2.00000
     41      -5.0029      2.00000
     42      -4.9794      2.00000
     43      -4.9373      2.00000
     44      -4.8442      2.00000
     45      -4.5246      2.00000
     46      -4.4799      2.00000
     47      -4.3719      2.00000
     48      -4.2504      2.00000
     49      -4.1690      2.00000
     50      -4.1110      2.00000
     51      -4.0885      2.00000
     52      -4.0801      2.00000
     53      -2.6137      2.00000
     54      -2.5995      2.00000
     55      -2.3055      2.00000
     56      -2.1333      2.00000
     57      -2.1211      2.00000
     58      -2.0726      2.00000
     59      -1.9742      2.00000
     60      -1.7939      2.00000
     61       2.6442      0.00000
     62       2.7707      0.00000
     63       2.8608      0.00000
     64       2.9438      0.00000
     65       3.1459      0.00000
     66       3.2788      0.00000
     67       3.2881      0.00000
     68       3.4631      0.00000
     69       3.9344      0.00000
     70       4.9099      0.00000
     71       5.6226      0.00000
     72       6.0056      0.00000
     73       6.1093      0.00000
     74       6.3990      0.00000
     75       6.6100      0.00000
     76       6.6212      0.00000
     77       6.6865      0.00000
     78       6.7240      0.00000
     79       6.9187      0.00000
     80       7.0963      0.00000
     81       7.3085      0.00000
     82       7.4026      0.00000
     83       7.4145      0.00000
     84       7.4699      0.00000
     85       7.8850      0.00000
     86       8.1966      0.00000

 k-point     2 :       0.2500    0.0000    0.0000
  band No.  band energies     occupation 
      1     -17.3580      2.00000
      2     -17.2855      2.00000
      3     -17.2636      2.00000
      4     -17.2368      2.00000
      5     -14.8227      2.00000
      6     -14.8014      2.00000
      7     -14.7980      2.00000
      8     -14.7707      2.00000
      9     -14.6238      2.00000
     10     -14.5100      2.00000
     11     -14.4384      2.00000
     12     -14.4380      2.00000
     13     -11.4113      2.00000
     14     -11.3950      2.00000
     15     -11.3915      2.00000
     16     -11.2507      2.00000
     17     -11.1218      2.00000
     18     -11.0877      2.00000
     19     -11.0787      2.00000
     20     -11.0542      2.00000
     21      -9.6881      2.00000
     22      -9.5531      2.00000
     23      -9.4445      2.00000
     24      -9.3213      2.00000
     25      -8.1461      2.00000
     26      -8.0948      2.00000
     27      -7.8923      2.00000
     28      -7.8077      2.00000
     29      -6.7821      2.00000
     30      -6.7374      2.00000
     31      -6.7239      2.00000
     32      -6.6720      2.00000
     33      -6.6431      2.00000
     34      -6.5999      2.00000
     35      -6.5712      2.00000
     36      -6.5217      2.00000
     37      -6.4335      2.00000
     38      -6.3269      2.00000
     39      -6.2253      2.00000
     40      -6.1605      2.00000
     41      -5.0588      2.00000
     42      -5.0401      2.00000
     43      -4.9608      2.00000
     44      -4.8972      2.00000
     45      -4.4968      2.00000
     46      -4.4696      2.00000
     47      -4.3479      2.00000
     48      -4.2636      2.00000
     49      -4.1352      2.00000
     50      -4.0949      2.00000
     51      -4.0812      2.00000
     52      -4.0714      2.00000
     53      -2.5327      2.00000
     54      -2.5307      2.00000
     55      -2.2984      2.00000
     56      -2.1978      2.00000
     57      -2.1423      2.00000
     58      -2.0543      2.00000
     59      -2.0378      2.00000
     60      -1.8433      2.00000
     61       2.6972      0.00000
     62       2.8443      0.00000
     63       2.8910      0.00000
     64       2.9157      0.00000
     65       3.1602      0.00000
     66       3.2150      0.00000
     67       3.2449      0.00000
     68       3.3495      0.00000
     69       4.1332      0.00000
     70       5.1066      0.00000
     71       5.4953      0.00000
     72       5.6759      0.00000
     73       5.9338      0.00000
     74       6.2965      0.00000
     75       6.4468      0.00000
     76       6.6863      0.00000
     77       6.7088      0.00000
     78       6.8744      0.00000
     79       7.1161      0.00000
     80       7.1435      0.00000
     81       7.2048      0.00000
     82       7.4485      0.00000
     83       7.5455      0.00000
     84       7.6939      0.00000
     85       7.8563      0.00000
     86       7.9265      0.00000

 k-point     3 :       0.5000    0.0000    0.0000
  band No.  band energies     occupation 
      1     -17.3117      2.00000
      2     -17.3117      2.00000
      3     -17.2613      2.00000
      4     -17.2613      2.00000
      5     -14.7989      2.00000
      6     -14.7989      2.00000
      7     -14.7945      2.00000
      8     -14.7945      2.00000
      9     -14.5691      2.00000
     10     -14.5691      2.00000
     11     -14.4388      2.00000
     12     -14.4388      2.00000
     13     -11.4020      2.00000
     14     -11.4020      2.00000
     15     -11.3170      2.00000
     16     -11.3170      2.00000
     17     -11.1036      2.00000
     18     -11.1036      2.00000
     19     -11.0729      2.00000
     20     -11.0729      2.00000
     21      -9.6305      2.00000
     22      -9.6305      2.00000
     23      -9.3848      2.00000
     24      -9.3848      2.00000
     25      -8.1190      2.00000
     26      -8.1190      2.00000
     27      -7.8453      2.00000
     28      -7.8453      2.00000
     29      -6.7520      2.00000
     30      -6.7520      2.00000
     31      -6.6797      2.00000
     32      -6.6797      2.00000
     33      -6.5863      2.00000
     34      -6.5863      2.00000
     35      -6.5449      2.00000
     36      -6.5449      2.00000
     37      -6.3975      2.00000
     38      -6.3975      2.00000
     39      -6.1930      2.00000
     40      -6.1930      2.00000
     41      -5.1043      2.00000
     42      -5.1043      2.00000
     43      -4.9671      2.00000
     44      -4.9671      2.00000
     45      -4.4680      2.00000
     46      -4.4680      2.00000
     47      -4.3006      2.00000
     48      -4.3006      2.00000
     49      -4.0882      2.00000
     50      -4.0882      2.00000
     51      -4.0713      2.00000
     52      -4.0713      2.00000
     53      -2.3626      2.00000
     54      -2.3626      2.00000
     55      -2.3551      2.00000
     56      -2.3551      2.00000
     57      -2.1655      2.00000
     58      -2.1655      2.00000
     59      -1.9475      2.00000
     60      -1.9475      2.00000
     61       2.8180      0.00000
     62       2.8180      0.00000
     63       2.9599      0.00000
     64       2.9599      0.00000
     65       3.1512      0.00000
     66       3.1512      0.00000
     67       3.1946      0.00000
     68       3.1946      0.00000
     69       4.6891      0.00000
     70       4.6891      0.00000
     71       5.5436      0.00000
     72       5.5436      0.00000
     73       5.9060      0.00000
     74       5.9060      0.00000
     75       6.7878      0.00000
     76       6.7878      0.00000
     77       6.8322      0.00000
     78       6.8322      0.00000
     79       6.8943      0.00000
     80       6.8943      0.00000
     81       7.5476      0.00000
     82       7.5476      0.00000
     83       7.7535      0.00000
     84       7.7535      0.00000
     85       7.7916      0.00000
     86       7.7916      0.00000

 k-point     4 :       0.0000    0.2500    0.0000
  band No.  band energies     occupation 
      1     -17.3654      2.00000
      2     -17.3080      2.00000
      3     -17.2407      2.00000
      4     -17.2290      2.00000
      5     -14.8298      2.00000
      6     -14.8035      2.00000
      7     -14.7950      2.00000
      8     -14.7639      2.00000
      9     -14.6197      2.00000
     10     -14.4778      2.00000
     11     -14.4705      2.00000
     12     -14.4449      2.00000
     13     -11.4182      2.00000
     14     -11.3956      2.00000
     15     -11.3861      2.00000
     16     -11.2503      2.00000
     17     -11.1175      2.00000
     18     -11.0905      2.00000
     19     -11.0719      2.00000
     20     -11.0608      2.00000
     21      -9.6525      2.00000
     22      -9.5085      2.00000
     23      -9.4757      2.00000
     24      -9.3616      2.00000
     25      -8.1226      2.00000
     26      -8.0409      2.00000
     27      -7.9505      2.00000
     28      -7.8348      2.00000
     29      -6.7701      2.00000
     30      -6.7417      2.00000
     31      -6.7300      2.00000
     32      -6.6797      2.00000
     33      -6.6604      2.00000
     34      -6.6215      2.00000
     35      -6.5618      2.00000
     36      -6.5505      2.00000
     37      -6.4310      2.00000
     38      -6.2874      2.00000
     39      -6.2515      2.00000
     40      -6.1970      2.00000
     41      -5.0056      2.00000
     42      -4.9684      2.00000
     43      -4.9617      2.00000
     44      -4.8737      2.00000
     45      -4.4768      2.00000
     46      -4.4425      2.00000
     47      -4.3704      2.00000
     48      -4.2804      2.00000
     49      -4.1509      2.00000
     50      -4.1106      2.00000
     51      -4.0941      2.00000
     52      -4.0896      2.00000
     53      -2.6114      2.00000
     54      -2.6019      2.00000
     55      -2.2588      2.00000
     56      -2.1370      2.00000
     57      -2.1143      2.00000
     58      -2.0803      2.00000
     59      -1.9696      2.00000
     60      -1.8425      2.00000
     61       2.6593      0.00000
     62       2.7480      0.00000
     63       2.8856      0.00000
     64       2.9454      0.00000
     65       3.1510      0.00000
     66       3.2517      0.00000
     67       3.2929      0.00000
     68       3.4239      0.00000
     69       4.0541      0.00000
     70       4.7343      0.00000
     71       5.7525      0.00000
     72       6.0658      0.00000
     73       6.1874      0.00000
     74       6.4457      0.00000
     75       6.4773      0.00000
     76       6.5050      0.00000
     77       6.7163      0.00000
     78       6.7762      0.00000
     79       6.8844      0.00000
     80       7.1031      0.00000
     81       7.1967      0.00000
     82       7.3849      0.00000
     83       7.5383      0.00000
     84       7.7017      0.00000
     85       7.7648      0.00000
     86       7.7960      0.00000

 k-point     5 :       0.2500    0.2500    0.0000
  band No.  band energies     occupation 
      1     -17.3478      2.00000
      2     -17.2966      2.00000
      3     -17.2597      2.00000
      4     -17.2408      2.00000
      5     -14.8196      2.00000
      6     -14.8022      2.00000
      7     -14.7968      2.00000
      8     -14.7725      2.00000
      9     -14.5991      2.00000
     10     -14.4988      2.00000
     11     -14.4665      2.00000
     12     -14.4483      2.00000
     13     -11.3945      2.00000
     14     -11.3921      2.00000
     15     -11.3876      2.00000
     16     -11.2732      2.00000
     17     -11.1129      2.00000
     18     -11.0872      2.00000
     19     -11.0804      2.00000
     20     -11.0661      2.00000
     21      -9.6380      2.00000
     22      -9.5363      2.00000
     23      -9.4593      2.00000
     24      -9.3789      2.00000
     25      -8.1106      2.00000
     26      -8.0527      2.00000
     27      -7.9313      2.00000
     28      -7.8494      2.00000
     29      -6.7632      2.00000
     30      -6.7319      2.00000
     31      -6.7206      2.00000
     32      -6.6793      2.00000
     33      -6.6359      2.00000
     34      -6.5992      2.00000
     35      -6.5584      2.00000
     36      -6.5530      2.00000
     37      -6.4104      2.00000
     38      -6.3041      2.00000
     39      -6.2370      2.00000
     40      -6.2007      2.00000
     41      -5.0506      2.00000
     42      -5.0229      2.00000
     43      -4.9817      2.00000
     44      -4.9231      2.00000
     45      -4.4616      2.00000
     46      -4.4383      2.00000
     47      -4.3554      2.00000
     48      -4.2925      2.00000
     49      -4.1227      2.00000
     50      -4.0952      2.00000
     51      -4.0848      2.00000
     52      -4.0788      2.00000
     53      -2.5329      2.00000
     54      -2.5311      2.00000
     55      -2.2651      2.00000
     56      -2.1970      2.00000
     57      -2.1265      2.00000
     58      -2.0529      2.00000
     59      -2.0431      2.00000
     60      -1.8891      2.00000
     61       2.7089      0.00000
     62       2.8151      0.00000
     63       2.8891      0.00000
     64       2.9307      0.00000
     65       3.1609      0.00000
     66       3.2074      0.00000
     67       3.2529      0.00000
     68       3.3326      0.00000
     69       4.2472      0.00000
     70       4.9126      0.00000
     71       5.5757      0.00000
     72       5.8450      0.00000
     73       5.8855      0.00000
     74       6.3397      0.00000
     75       6.5068      0.00000
     76       6.5395      0.00000
     77       6.7936      0.00000
     78       6.8195      0.00000
     79       6.9818      0.00000
     80       7.1786      0.00000
     81       7.2601      0.00000
     82       7.3914      0.00000
     83       7.4388      0.00000
     84       7.7283      0.00000
     85       7.7949      0.00000
     86       7.9840      0.00000

 k-point     6 :       0.5000    0.2500    0.0000
  band No.  band energies     occupation 
      1     -17.3045      2.00000
      2     -17.3045      2.00000
      3     -17.2689      2.00000
      4     -17.2689      2.00000
      5     -14.8007      2.00000
      6     -14.8007      2.00000
      7     -14.7943      2.00000
      8     -14.7943      2.00000
      9     -14.5492      2.00000
     10     -14.5492      2.00000
     11     -14.4571      2.00000
     12     -14.4571      2.00000
     13     -11.3912      2.00000
     14     -11.3912      2.00000
     15     -11.3311      2.00000
     16     -11.3311      2.00000
     17     -11.0989      2.00000
     18     -11.0989      2.00000
     19     -11.0773      2.00000
     20     -11.0773      2.00000
     21      -9.5936      2.00000
     22      -9.5936      2.00000
     23      -9.4195      2.00000
     24      -9.4195      2.00000
     25      -8.0815      2.00000
     26      -8.0815      2.00000
     27      -7.8881      2.00000
     28      -7.8881      2.00000
     29      -6.7456      2.00000
     30      -6.7456      2.00000
     31      -6.6922      2.00000
     32      -6.6922      2.00000
     33      -6.5882      2.00000
     34      -6.5882      2.00000
     35      -6.5572      2.00000
     36      -6.5572      2.00000
     37      -6.3542      2.00000
     38      -6.3542      2.00000
     39      -6.2130      2.00000
     40      -6.2130      2.00000
     41      -5.0836      2.00000
     42      -5.0836      2.00000
     43      -4.9886      2.00000
     44      -4.9886      2.00000
     45      -4.4414      2.00000
     46      -4.4414      2.00000
     47      -4.3228      2.00000
     48      -4.3228      2.00000
     49      -4.0857      2.00000
     50      -4.0857      2.00000
     51      -4.0745      2.00000
[...]
     11     -14.0300      2.00000
     12     -14.0300      2.00000
     13     -10.5729      2.00000
     14     -10.5729      2.00000
     15     -10.5729      2.00000
     16     -10.5729      2.00000
     17     -10.3709      2.00000
     18     -10.3709      2.00000
     19     -10.3709      2.00000
     20     -10.3709      2.00000
     21      -8.4997      2.00000
     22      -8.4997      2.00000
     23      -8.4997      2.00000
     24      -8.4997      2.00000
     25      -6.8678      2.00000
     26      -6.8678      2.00000
     27      -6.8678      2.00000
     28      -6.8678      2.00000
     29      -6.5365      2.00000
     30      -6.5365      2.00000
     31      -6.5365      2.00000
     32      -6.5365      2.00000
     33      -6.1676      2.00000
     34      -6.1676      2.00000
     35      -6.1676      2.00000
     36      -6.1676      2.00000
     37      -5.6248      2.00000
     38      -5.6248      2.00000
     39      -5.6248      2.00000
     40      -5.6248      2.00000
     41      -4.6448      2.00000
     42      -4.6448      2.00000
     43      -4.6448      2.00000
     44      -4.6448      2.00000
     45      -4.0193      2.00000
     46      -4.0193      2.00000
     47      -4.0193      2.00000
     48      -4.0193      2.00000
     49      -3.7316      2.00000
     50      -3.7316      2.00000
     51      -3.7316      2.00000
     52      -3.7316      2.00000
     53      -2.1615      2.00000
     54      -2.1615      2.00000
     55      -2.1615      2.00000
     56      -2.1615      2.00000
     57      -1.9532      2.00000
     58      -1.9532      2.00000
     59      -1.9532      2.00000
     60      -1.9532      2.00000
     61       2.7009      0.00000
     62       2.7009      0.00000
     63       2.7009      0.00000
     64       2.7009      0.00000
     65       3.2713      0.00000
     66       3.2713      0.00000
     67       3.2713      0.00000
     68       3.2713      0.00000
     69       5.1069      0.00000
     70       5.1069      0.00000
     71       5.1069      0.00000
     72       5.1069      0.00000
     73       5.6206      0.00000
     74       5.6206      0.00000
     75       5.6206      0.00000
     76       5.6206      0.00000
     77       6.5812      0.00000
     78       6.5812      0.00000
     79       6.5812      0.00000
     80       6.5812      0.00000
     81       7.1449      0.00000
     82       7.1449      0.00000
     83       7.1449      0.00000
     84       7.1449      0.00000
     85       7.3124      0.00000
     86       7.3124      0.00000


--------------------------------------------------------------------------------------------------------


 soft charge-density along one line, spin component           1
         0         1         2         3         4         5         6         7         8         9
 total charge-density along one line
 
 pseudopotential strength for first ion, spin component:           1
 10.001   0.012  -0.001  -0.000   0.000   0.001   0.000  -0.000
  0.012  -0.002   0.000   0.000  -0.000   0.000   0.000  -0.000
 -0.001   0.000  -4.143  -0.001   0.001  -0.016  -0.001   0.000
 -0.000   0.000  -0.001  -4.142  -0.003  -0.001  -0.015  -0.002
  0.000  -0.000   0.001  -0.003  -4.142   0.000  -0.002  -0.015
  0.001   0.000  -0.016  -0.001   0.000  -0.768   0.000  -0.000
  0.000   0.000  -0.001  -0.015  -0.002   0.000  -0.768   0.000
 -0.000  -0.000   0.000  -0.002  -0.015  -0.000   0.000  -0.768
 total augmentation occupancy for first ion, spin component:           1
  1.482  -1.098  -0.015   0.000   0.004  -0.016  -0.000   0.005
 -1.098   0.964   0.075   0.001  -0.023   0.036   0.000  -0.011
 -0.015   0.075   1.198   0.051  -0.045   0.205   0.019  -0.015
  0.000   0.001   0.051   1.090   0.166   0.019   0.171   0.063
  0.004  -0.023  -0.045   0.166   1.069  -0.015   0.063   0.163
 -0.016   0.036   0.205   0.019  -0.015   0.039   0.005  -0.003
 -0.000   0.000   0.019   0.171   0.063   0.005   0.032   0.017
  0.005  -0.011  -0.015   0.063   0.163  -0.003   0.017   0.029


------------------------ aborting loop because EDIFF is reached ----------------------------------------


    CHARGE:  cpu time    6.02: real time   24.10
    FORLOC:  cpu time    0.07: real time    0.29
    FORNL :  cpu time   50.23: real time  200.97
    STRESS:  cpu time   62.88: real time  251.56
    FORHAR:  cpu time    0.27: real time    1.08
    MIXING:  cpu time    0.11: real time    0.44
    OFIELD:  cpu time    0.00: real time    0.00

 ---------------------------------------------------------------------------------------------

         DFTD3 V3.0 Rev 1        
 Edisp (eV)   -3.23654

 E6    (eV) :    -2.4342
 E8    (eV) :    -0.8023
 % E8        : 24.79
    FORVDW:  cpu time    0.53: real time    2.15

  FORCE on cell =-STRESS in cart. coord.  units (eV):
  Direction    XX          YY          ZZ          XY          YZ          ZX
  --------------------------------------------------------------------------------------
  Alpha Z   134.18283   134.18283   134.18283
  Ewald   -1077.01632   442.03787  -970.40643     0.00003     0.00000    -0.00002
  Hartree   492.65662  1106.95644   511.29517     0.00000    -0.00000    -0.00000
  E(xc)    -427.91470  -422.07876  -427.29355     0.00000    -0.00000    -0.00000
  Local    -733.83941 -2767.59200  -848.13160    -0.00001     0.00000     0.00001
  n-local  -146.53478  -154.48773  -147.45464    -0.00086     0.00242     0.02287
  augment    -5.49880    -5.95312    -5.55034    -0.00000    -0.00000     0.00000
  Kinetic  1765.35674  1668.20860  1754.80820     0.00666    -0.00952    -0.20691
  Fock        0.00000     0.00000     0.00000     0.00000     0.00000     0.00000
  vdW        -3.42889    -3.09264    -3.33954    -0.00000    -0.00000    -0.00000
  -------------------------------------------------------------------------------------
  Total      -2.03671    -1.81853    -1.88990     0.00000     0.00000    -0.00000
  in kB      -6.66638    -5.95226    -6.18586     0.00000     0.00000    -0.00000
  external pressure =       -6.27 kB  Pullay stress =        0.00 kB


 VOLUME and BASIS-vectors are now :
 -----------------------------------------------------------------------------
  energy-cutoff  :      600.00
  volume of cell :      489.50
      direct lattice vectors                 reciprocal lattice vectors
     7.499252306  0.000000000  0.000000000     0.133346627  0.000000000  0.000000000
     0.000000000  9.554791755  0.000000000     0.000000000  0.104659529  0.000000000
     0.000000000  0.000000000  6.831405907     0.000000000  0.000000000  0.146382752

  length of vectors
     7.499252306  9.554791755  6.831405907     0.133346627  0.104659529  0.146382752


 FORCES acting on ions
    electron-ion (+dipol)            ewald-force                    non-local-force                 convergence-correction
 -----------------------------------------------------------------------------------------------
   0.313E+02 -.109E+03 -.337E+00   -.317E+02 0.110E+03 0.383E+00   0.374E+00 -.108E+01 -.374E-01   -.106E-02 -.656E-03 -.914E-03
   -.313E+02 0.109E+03 0.336E+00   0.317E+02 -.110E+03 -.383E+00   -.374E+00 0.108E+01 0.374E-01   0.106E-02 0.656E-03 0.914E-03
   -.313E+02 0.109E+03 -.336E+00   0.317E+02 -.110E+03 0.383E+00   -.374E+00 0.108E+01 -.374E-01   0.106E-02 0.656E-03 -.914E-03
   0.313E+02 -.109E+03 0.337E+00   -.317E+02 0.110E+03 -.383E+00   0.374E+00 -.108E+01 0.374E-01   -.106E-02 -.656E-03 0.914E-03
   -.313E+02 -.109E+03 0.337E+00   0.317E+02 0.110E+03 -.383E+00   -.374E+00 -.108E+01 0.374E-01   0.106E-02 -.656E-03 0.914E-03
   0.313E+02 0.109E+03 -.337E+00   -.317E+02 -.110E+03 0.383E+00   0.374E+00 0.108E+01 -.374E-01   -.106E-02 0.656E-03 -.914E-03
   0.313E+02 0.109E+03 0.336E+00   -.317E+02 -.110E+03 -.383E+00   0.374E+00 0.108E+01 0.374E-01   -.106E-02 0.656E-03 0.914E-03
   -.313E+02 -.109E+03 -.337E+00   0.317E+02 0.110E+03 0.383E+00   -.374E+00 -.108E+01 -.374E-01   0.106E-02 -.656E-03 -.914E-03
   -.453E+02 -.708E+02 -.734E+02   0.458E+02 0.715E+02 0.742E+02   -.499E+00 -.735E+00 -.860E+00   0.746E-03 -.141E-02 0.280E-03
   0.453E+02 0.708E+02 0.734E+02   -.458E+02 -.715E+02 -.742E+02   0.499E+00 0.735E+00 0.860E+00   -.746E-03 0.141E-02 -.280E-03
   0.453E+02 0.708E+02 -.734E+02   -.458E+02 -.715E+02 0.742E+02   0.499E+00 0.735E+00 -.860E+00   -.746E-03 0.141E-02 0.280E-03
   -.453E+02 -.708E+02 0.734E+02   0.458E+02 0.715E+02 -.742E+02   -.499E+00 -.735E+00 0.860E+00   0.746E-03 -.141E-02 -.280E-03
   0.453E+02 -.708E+02 0.734E+02   -.458E+02 0.715E+02 -.742E+02   0.499E+00 -.735E+00 0.860E+00   -.746E-03 -.141E-02 -.280E-03
   -.453E+02 0.708E+02 -.734E+02   0.458E+02 -.715E+02 0.742E+02   -.499E+00 0.735E+00 -.860E+00   0.746E-03 0.141E-02 0.280E-03
   -.453E+02 0.708E+02 0.734E+02   0.458E+02 -.715E+02 -.742E+02   -.499E+00 0.735E+00 0.860E+00   0.746E-03 0.141E-02 -.280E-03
   0.453E+02 -.708E+02 -.734E+02   -.458E+02 0.715E+02 0.742E+02   0.499E+00 -.735E+00 -.860E+00   -.746E-03 -.141E-02 0.280E-03
   0.780E+02 -.361E+02 0.718E+02   -.789E+02 0.365E+02 -.726E+02   0.924E+00 -.374E+00 0.825E+00   -.699E-03 0.136E-03 -.305E-03
   -.780E+02 0.361E+02 -.718E+02   0.789E+02 -.365E+02 0.726E+02   -.924E+00 0.374E+00 -.825E+00   0.699E-03 -.136E-03 0.305E-03
   -.780E+02 0.361E+02 0.718E+02   0.789E+02 -.365E+02 -.726E+02   -.924E+00 0.374E+00 0.825E+00   0.699E-03 -.136E-03 -.305E-03
   0.780E+02 -.361E+02 -.718E+02   -.789E+02 0.365E+02 0.726E+02   0.924E+00 -.374E+00 -.825E+00   -.699E-03 0.136E-03 0.305E-03
   -.780E+02 -.361E+02 -.718E+02   0.789E+02 0.365E+02 0.726E+02   -.924E+00 -.374E+00 -.825E+00   0.699E-03 0.136E-03 0.305E-03
   0.780E+02 0.361E+02 0.718E+02   -.789E+02 -.365E+02 -.726E+02   0.924E+00 0.374E+00 0.825E+00   -.699E-03 -.136E-03 -.305E-03
   0.780E+02 0.361E+02 -.718E+02   -.789E+02 -.365E+02 0.726E+02   0.924E+00 0.374E+00 -.825E+00   -.699E-03 -.136E-03 0.305E-03
   -.780E+02 -.361E+02 0.718E+02   0.789E+02 0.365E+02 -.726E+02   -.924E+00 -.374E+00 0.825E+00   0.699E-03 0.136E-03 -.305E-03
   0.134E+02 -.508E+02 -.912E+00   -.150E+02 0.563E+02 0.982E+00   0.165E+01 -.555E+01 -.660E-01   -.982E-04 0.102E-03 -.593E-04
   -.134E+02 0.508E+02 0.912E+00   0.150E+02 -.563E+02 -.982E+00   -.165E+01 0.555E+01 0.660E-01   0.982E-04 -.102E-03 0.593E-04
   -.134E+02 0.508E+02 -.912E+00   0.150E+02 -.563E+02 0.982E+00   -.165E+01 0.555E+01 -.660E-01   0.982E-04 -.102E-03 -.593E-04
   0.134E+02 -.508E+02 0.912E+00   -.150E+02 0.563E+02 -.982E+00   0.165E+01 -.555E+01 0.660E-01   -.982E-04 0.102E-03 0.593E-04
   -.134E+02 -.508E+02 0.912E+00   0.150E+02 0.563E+02 -.982E+00   -.165E+01 -.555E+01 0.660E-01   0.982E-04 0.102E-03 0.593E-04
   0.134E+02 0.508E+02 -.912E+00   -.150E+02 -.563E+02 0.982E+00   0.165E+01 0.555E+01 -.660E-01   -.982E-04 -.102E-03 -.593E-04
   0.134E+02 0.508E+02 0.912E+00   -.150E+02 -.563E+02 -.982E+00   0.165E+01 0.555E+01 0.660E-01   -.982E-04 -.102E-03 0.593E-04
   -.134E+02 -.508E+02 -.912E+00   0.150E+02 0.563E+02 0.982E+00   -.165E+01 -.555E+01 -.660E-01   0.982E-04 0.102E-03 -.593E-04
   -.195E+02 -.320E+02 -.332E+02   0.219E+02 0.357E+02 0.370E+02   -.238E+01 -.367E+01 -.382E+01   0.145E-03 -.445E-04 0.153E-03
   0.195E+02 0.320E+02 0.332E+02   -.219E+02 -.357E+02 -.370E+02   0.238E+01 0.367E+01 0.382E+01   -.145E-03 0.445E-04 -.153E-03
   0.195E+02 0.320E+02 -.332E+02   -.219E+02 -.357E+02 0.370E+02   0.238E+01 0.367E+01 -.382E+01   -.145E-03 0.445E-04 0.153E-03
   -.195E+02 -.320E+02 0.332E+02   0.219E+02 0.357E+02 -.370E+02   -.238E+01 -.367E+01 0.382E+01   0.145E-03 -.445E-04 -.153E-03
   0.195E+02 -.320E+02 0.332E+02   -.219E+02 0.357E+02 -.370E+02   0.238E+01 -.367E+01 0.382E+01   -.145E-03 -.445E-04 -.153E-03
   -.195E+02 0.320E+02 -.332E+02   0.219E+02 -.357E+02 0.370E+02   -.238E+01 0.367E+01 -.382E+01   0.145E-03 0.445E-04 0.153E-03
   -.195E+02 0.320E+02 0.332E+02   0.219E+02 -.357E+02 -.370E+02   -.238E+01 0.367E+01 0.382E+01   0.145E-03 0.445E-04 -.153E-03
   0.195E+02 -.320E+02 -.332E+02   -.219E+02 0.357E+02 0.370E+02   0.238E+01 -.367E+01 -.382E+01   -.145E-03 -.445E-04 0.153E-03
   0.332E+02 -.172E+02 0.292E+02   -.373E+02 0.190E+02 -.329E+02   0.412E+01 -.174E+01 0.369E+01   0.179E-03 -.121E-03 0.196E-03
   -.332E+02 0.172E+02 -.292E+02   0.373E+02 -.190E+02 0.329E+02   -.412E+01 0.174E+01 -.369E+01   -.179E-03 0.121E-03 -.196E-03
   -.332E+02 0.172E+02 0.292E+02   0.373E+02 -.190E+02 -.329E+02   -.412E+01 0.174E+01 0.369E+01   -.179E-03 0.121E-03 0.196E-03
   0.332E+02 -.172E+02 -.292E+02   -.373E+02 0.190E+02 0.329E+02   0.412E+01 -.174E+01 -.369E+01   0.179E-03 -.121E-03 -.196E-03
   -.332E+02 -.172E+02 -.292E+02   0.373E+02 0.190E+02 0.329E+02   -.412E+01 -.174E+01 -.369E+01   -.179E-03 -.121E-03 -.196E-03
   0.332E+02 0.172E+02 0.292E+02   -.373E+02 -.190E+02 -.329E+02   0.412E+01 0.174E+01 0.369E+01   0.179E-03 0.121E-03 0.196E-03
   0.332E+02 0.172E+02 -.292E+02   -.373E+02 -.190E+02 0.329E+02   0.412E+01 0.174E+01 -.369E+01   0.179E-03 0.121E-03 -.196E-03
   -.332E+02 -.172E+02 0.292E+02   0.373E+02 0.190E+02 -.329E+02   -.412E+01 -.174E+01 0.369E+01   -.179E-03 -.121E-03 0.196E-03
 -----------------------------------------------------------------------------------------------
   0.330E-03 0.465E-03 -.328E-03   0.711E-14 0.000E+00 -.426E-13   -.178E-14 -.266E-14 0.444E-15   -.527E-09 -.241E-08 0.612E-09
 
 
 POSITION                                       TOTAL-FORCE (eV/Angst)
 -----------------------------------------------------------------------------------
      7.09393      1.33844      0.01574        -0.004779      0.007553      0.009447
      0.40532      8.21635     -0.01574         0.004779     -0.007553     -0.009447
      4.15495      8.21635      3.43144         0.004779     -0.007553      0.009447
      3.34431      1.33844      3.39997        -0.004779      0.007553     -0.009447
      0.40532      6.11584      3.39997         0.004779      0.007553     -0.009447
      7.09393      3.43895      3.43144        -0.004779     -0.007553      0.009447
      3.34431      3.43895     -0.01574        -0.004779     -0.007553     -0.009447
      4.15495      6.11584      0.01574         0.004779      0.007553      0.009447
      0.57805      0.89272      0.90498         0.004750      0.001456     -0.005119
      6.92120      8.66208      5.92642        -0.004750     -0.001456      0.005119
      3.17157      8.66208      4.32068        -0.004750     -0.001456     -0.005119
      4.32768      0.89272      2.51072         0.004750      0.001456      0.005119
      6.92120      5.67011      2.51072        -0.004750      0.001456      0.005119
      0.57805      3.88468      4.32068         0.004750     -0.001456     -0.005119
      4.32768      3.88468      5.92642         0.004750     -0.001456      0.005119
      3.17157      5.67011      0.90498        -0.004750      0.001456     -0.005119
      6.51266      0.44465      5.94181         0.008866     -0.010404      0.002961
      0.98659      9.11014      0.88960        -0.008866      0.010404     -0.002961
      4.73622      9.11014      2.52610        -0.008866      0.010404      0.002961
      2.76303      0.44465      4.30530         0.008866     -0.010404     -0.002961
      0.98659      5.22205      4.30530        -0.008866     -0.010404     -0.002961
      6.51266      4.33274      2.52610         0.008866      0.010404      0.002961
      2.76303      4.33274      0.88960         0.008866      0.010404     -0.002961
      4.73622      5.22205      5.94181        -0.008866     -0.010404      0.002961
      6.78112      2.38379      0.02949        -0.006262     -0.005598      0.004497
      0.71814      7.17100     -0.02949         0.006262      0.005598     -0.004497
      4.46776      7.17100      3.44520         0.006262      0.005598      0.004497
      3.03149      2.38379      3.38621        -0.006262     -0.005598     -0.004497
      0.71814      7.16119      3.38621         0.006262     -0.005598     -0.004497
      6.78112      2.39360      3.44520        -0.006262      0.005598      0.004497
      3.03149      2.39360     -0.02949        -0.006262      0.005598     -0.004497
      4.46776      7.16119      0.02949         0.006262     -0.005598      0.004497
      1.02560      1.58526      1.61792         0.001643      0.003770     -0.001534
      6.47366      7.96953      5.21348        -0.001643     -0.003770      0.001534
      2.72403      7.96953      5.03363        -0.001643     -0.003770     -0.001534
      4.77522      1.58526      1.79778         0.001643      0.003770      0.001534
      6.47366      6.36266      1.79778        -0.001643      0.003770      0.001534
      1.02560      3.19214      5.03363         0.001643     -0.003770     -0.001534
      4.77522      3.19214      5.21348         0.001643     -0.003770      0.001534
      2.72403      6.36266      1.61792        -0.001643      0.003770     -0.001534
      5.73973      0.78054      5.24865        -0.001456     -0.002165      0.003539
      1.75952      8.77425      1.58276         0.001456      0.002165     -0.003539
      5.50914      8.77425      1.83294         0.001456      0.002165      0.003539
      1.99011      0.78054      4.99846        -0.001456     -0.002165     -0.003539
      1.75952      5.55794      4.99846         0.001456     -0.002165     -0.003539
      5.73973      3.99685      1.83294        -0.001456      0.002165      0.003539
      1.99011      3.99685      1.58276        -0.001456      0.002165     -0.003539
      5.50914      5.55794      5.24865         0.001456     -0.002165      0.003539
 -----------------------------------------------------------------------------------
    total drift:                                0.000330      0.000465     -0.000328


--------------------------------------------------------------------------------------------------------



  FREE ENERGIE OF THE ION-ELECTRON SYSTEM (eV)
  ---------------------------------------------------
  free  energy   TOTEN  =      -307.44461027 eV

  energy  without entropy=     -307.44461027  energy(sigma->0) =     -307.44461027
 
 d Force = 0.1482327E-04[ 0.235E-05, 0.273E-04]  d Energy = 0.1733864E-04-0.252E-05
 d Force =-0.3200569E-01[-0.320E-01,-0.320E-01]  d Ewald  =-0.3200569E-01-0.132E-08


--------------------------------------------------------------------------------------------------------


    POTLOK:  cpu time    0.96: real time    3.87


--------------------------------------------------------------------------------------------------------




--------------------------------------------------------------------------------------------------------


  
 reached required accuracy - stopping structural energy minimisation
     LOOP+:  cpu time 1061.17: real time 4245.47
    4ORBIT:  cpu time    0.00: real time    0.00
 BZINTS: Fermi energy: -1.730034;120.000000 electrons
         Band energy:-930.173176;  BLOECHL correction:  0.000000

 total amount of memory used by VASP on root node   138836. kBytes
========================================================================

   base      :      30000. kBytes
   nonl-proj :      17445. kBytes
   fftplans  :       5078. kBytes
   grid      :       8110. kBytes
   one-center:         36. kBytes
   wavefun   :      78167. kBytes
 
  
  
 General timing and accounting informations for this job:
 ========================================================
  
                  Total CPU time used (sec):    59243.633
                            User time (sec):    32219.141
                          System time (sec):    27024.492
                         Elapsed time (sec):   293004.688
  
                   Maximum memory used (kb):      225372.
                   Average memory used (kb):           0.
  
                          Minor page faults:     51857537
                          Major page faults:            0
                 Voluntary context switches:         4549
