   4   4   0   0
  0.8555981E+01  0.2466437E-09  0.2466437E-09  0.6499116E-09  0.5000000E-15
  1.000000000000000E-004
  CAR 
 graphite                                
     18.79080111    -16.70651583  301      4.94830551      1.00000000
    -16.707  0.0000E+00  0.0000E+00
    -16.588  0.0000E+00  0.0000E+00
    -16.470  0.0000E+00  0.0000E+00
    -16.352  0.0000E+00  0.0000E+00
    -16.233  0.0000E+00  0.0000E+00
    -16.115  0.0000E+00  0.0000E+00
    -15.997  0.0000E+00  0.0000E+00
    -15.878  0.0000E+00  0.0000E+00
    -15.760  0.0000E+00  0.0000E+00
    -15.642  0.0000E+00  0.0000E+00
    -15.523  0.0000E+00  0.0000E+00
    -15.405  0.0000E+00  0.0000E+00
    -15.287  0.0000E+00  0.0000E+00
    -15.168  0.0000E+00  0.0000E+00
    -15.050  0.0000E+00  0.0000E+00
    -14.932  0.0000E+00  0.0000E+00
    -14.813  0.0000E+00  0.0000E+00
    -14.695  0.1864E-04  0.7155E-07
    -14.577  0.1026E-02  0.5180E-04
    -14.458  0.1611E-02  0.2182E-03
    -14.340  0.2297E-02  0.4456E-03
    -14.222  0.3258E-02  0.7808E-03
    -14.103  0.3052E-02  0.1152E-02
    -13.985  0.3081E-02  0.1515E-02
    -13.867  0.3105E-02  0.1882E-02
    -13.748  0.3039E-02  0.2245E-02
    -13.630  0.3097E-02  0.2606E-02
    -13.512  0.3148E-02  0.2978E-02
    -13.393  0.3150E-02  0.3351E-02
    -13.275  0.3130E-02  0.3722E-02
    -13.157  0.3062E-02  0.4088E-02
    -13.038  0.3075E-02  0.4451E-02
    -12.920  0.3106E-02  0.4817E-02
    -12.802  0.3159E-02  0.5187E-02
    -12.683  0.3203E-02  0.5564E-02
    -12.565  0.3189E-02  0.5943E-02
    -12.447  0.3172E-02  0.6319E-02
    -12.329  0.3134E-02  0.6692E-02
    -12.210  0.3127E-02  0.7062E-02
    -12.092  0.3143E-02  0.7433E-02
    -11.974  0.3165E-02  0.7806E-02
    -11.855  0.3193E-02  0.8182E-02
    -11.737  0.3227E-02  0.8562E-02
    -11.619  0.3266E-02  0.8946E-02
    -11.500  0.3260E-02  0.9332E-02
    -11.382  0.3253E-02  0.9717E-02
    -11.264  0.3228E-02  0.1010E-01
    -11.145  0.3232E-02  0.1048E-01
    -11.027  0.3247E-02  0.1087E-01
    -10.909  0.3275E-02  0.1125E-01
    -10.790  0.3304E-02  0.1164E-01
    -10.672  0.3333E-02  0.1203E-01
    -10.554  0.3373E-02  0.1243E-01
    -10.435  0.3424E-02  0.1283E-01
    -10.317  0.3488E-02  0.1324E-01
    -10.199  0.3544E-02  0.1366E-01
    -10.080  0.3628E-02  0.1408E-01
     -9.962  0.3741E-02  0.1452E-01
     -9.844  0.3899E-02  0.1497E-01
     -9.725  0.4924E-02  0.1548E-01
     -9.607  0.5397E-02  0.1609E-01
     -9.489  0.5425E-02  0.1676E-01
     -9.370  0.4064E-02  0.1732E-01
     -9.252  0.2990E-02  0.1773E-01
     -9.134  0.2591E-02  0.1806E-01
     -9.015  0.2308E-02  0.1835E-01
     -8.897  0.3868E-02  0.1871E-01
     -8.779  0.3141E-02  0.1908E-01
     -8.660  0.1243E-02  0.1936E-01
     -8.542  0.1101E-02  0.1950E-01
     -8.424  0.9578E-03  0.1962E-01
     -8.305  0.8150E-03  0.1972E-01
     -8.187  0.8338E-03  0.1982E-01
     -8.069  0.1109E-02  0.1993E-01
     -7.951  0.1397E-02  0.2008E-01
     -7.832  0.2003E-02  0.2027E-01
     -7.714  0.4422E-02  0.2064E-01
     -7.596  0.4435E-02  0.2120E-01
     -7.477  0.4040E-02  0.2171E-01
     -7.359  0.4167E-02  0.2217E-01
     -7.241  0.4923E-02  0.2271E-01
     -7.122  0.5678E-02  0.2333E-01
     -7.004  0.5647E-02  0.2404E-01
     -6.886  0.4280E-02  0.2463E-01
     -6.767  0.3505E-02  0.2506E-01
     -6.649  0.3408E-02  0.2547E-01
     -6.531  0.3321E-02  0.2587E-01
     -6.412  0.3237E-02  0.2626E-01
     -6.294  0.3149E-02  0.2663E-01
     -6.176  0.3054E-02  0.2700E-01
     -6.057  0.2960E-02  0.2736E-01
     -5.939  0.2865E-02  0.2770E-01
     -5.821  0.2770E-02  0.2803E-01
     -5.702  0.2675E-02  0.2836E-01
     -5.584  0.2579E-02  0.2867E-01
     -5.466  0.2687E-02  0.2897E-01
     -5.347  0.2918E-02  0.2931E-01
     -5.229  0.3149E-02  0.2967E-01
     -5.111  0.3380E-02  0.3005E-01
     -4.992  0.3611E-02  0.3046E-01
     -4.874  0.3843E-02  0.3091E-01
     -4.756  0.4074E-02  0.3137E-01
     -4.637  0.4128E-02  0.3186E-01
     -4.519  0.4035E-02  0.3235E-01
     -4.401  0.3825E-02  0.3281E-01
     -4.282  0.3823E-02  0.3327E-01
     -4.164  0.3822E-02  0.3372E-01
     -4.046  0.3820E-02  0.3417E-01
     -3.927  0.3832E-02  0.3462E-01
     -3.809  0.3908E-02  0.3508E-01
     -3.691  0.3988E-02  0.3555E-01
     -3.573  0.4264E-02  0.3603E-01
     -3.454  0.4695E-02  0.3657E-01
     -3.336  0.4857E-02  0.3713E-01
     -3.218  0.5089E-02  0.3772E-01
     -3.099  0.5443E-02  0.3834E-01
     -2.981  0.5727E-02  0.3900E-01
     -2.863  0.5866E-02  0.3969E-01
     -2.744  0.6099E-02  0.4039E-01
     -2.626  0.6444E-02  0.4114E-01
     -2.508  0.6930E-02  0.4192E-01
     -2.389  0.7200E-02  0.4277E-01
     -2.271  0.6853E-02  0.4361E-01
     -2.153  0.6374E-02  0.4438E-01
     -2.034  0.6188E-02  0.4512E-01
     -1.916  0.6463E-02  0.4586E-01
     -1.798  0.7802E-02  0.4671E-01
     -1.679  0.8687E-02  0.4768E-01
     -1.561  0.9783E-02  0.4877E-01
     -1.443  0.1138E-01  0.5002E-01
     -1.324  0.1234E-01  0.5164E-01
     -1.206  0.9879E-02  0.5293E-01
     -1.088  0.8795E-02  0.5403E-01
     -0.969  0.7889E-02  0.5502E-01
     -0.851  0.6675E-02  0.5591E-01
     -0.733  0.4940E-02  0.5657E-01
     -0.614  0.4848E-02  0.5714E-01
     -0.496  0.5139E-02  0.5773E-01
     -0.378  0.5589E-02  0.5836E-01
     -0.259  0.6483E-02  0.5906E-01
     -0.141  0.7496E-02  0.5991E-01
     -0.023  0.7935E-02  0.6078E-01
      0.096  0.7881E-02  0.6176E-01
      0.214  0.7272E-02  0.6266E-01
      0.332  0.6727E-02  0.6349E-01
      0.451  0.6426E-02  0.6426E-01
      0.569  0.6173E-02  0.6501E-01
      0.687  0.5959E-02  0.6573E-01
      0.805  0.5758E-02  0.6642E-01
      0.924  0.5914E-02  0.6710E-01
      1.042  0.5934E-02  0.6781E-01
      1.160  0.5811E-02  0.6850E-01
      1.279  0.5697E-02  0.6919E-01
      1.397  0.5953E-02  0.6988E-01
      1.515  0.5642E-02  0.7057E-01
      1.634  0.5809E-02  0.7122E-01
      1.752  0.5608E-02  0.7193E-01
      1.870  0.4706E-02  0.7254E-01
      1.989  0.4414E-02  0.7309E-01
      2.107  0.4303E-02  0.7361E-01
      2.225  0.4174E-02  0.7411E-01
      2.344  0.4144E-02  0.7461E-01
      2.462  0.4130E-02  0.7509E-01
      2.580  0.4140E-02  0.7558E-01
      2.699  0.4163E-02  0.7608E-01
      2.817  0.4270E-02  0.7658E-01
      2.935  0.4414E-02  0.7709E-01
      3.054  0.3421E-02  0.7758E-01
      3.172  0.3054E-02  0.7797E-01
      3.290  0.2577E-02  0.7830E-01
      3.409  0.2125E-02  0.7858E-01
      3.527  0.1829E-02  0.7881E-01
      3.645  0.1653E-02  0.7902E-01
      3.764  0.1477E-02  0.7920E-01
      3.882  0.1298E-02  0.7937E-01
      4.000  0.1123E-02  0.7951E-01
      4.119  0.9550E-03  0.7963E-01
      4.237  0.7966E-03  0.7974E-01
      4.355  0.6414E-03  0.7982E-01
      4.474  0.4979E-03  0.7989E-01
      4.592  0.3623E-03  0.7994E-01
      4.710  0.2338E-03  0.7997E-01
      4.829  0.1109E-03  0.7999E-01
      4.947  0.5964E-05  0.8000E-01
      5.065  0.7580E-04  0.8000E-01
      5.183  0.1620E-03  0.8002E-01
      5.302  0.2549E-03  0.8004E-01
      5.420  0.3565E-03  0.8008E-01
      5.538  0.4672E-03  0.8013E-01
      5.657  0.5904E-03  0.8019E-01
      5.775  0.7317E-03  0.8027E-01
      5.893  0.9075E-03  0.8036E-01
      6.012  0.1178E-02  0.8048E-01
      6.130  0.1725E-02  0.8066E-01
      6.248  0.2102E-02  0.8089E-01
      6.367  0.2235E-02  0.8115E-01
      6.485  0.3138E-02  0.8145E-01
      6.603  0.6225E-02  0.8200E-01
      6.722  0.4666E-02  0.8269E-01
      6.840  0.4411E-02  0.8321E-01
      6.958  0.4278E-02  0.8373E-01
      7.077  0.4148E-02  0.8423E-01
      7.195  0.4059E-02  0.8471E-01
      7.313  0.4104E-02  0.8519E-01
      7.432  0.3942E-02  0.8567E-01
      7.550  0.3289E-02  0.8610E-01
      7.668  0.3115E-02  0.8648E-01
      7.787  0.2961E-02  0.8684E-01
      7.905  0.2825E-02  0.8718E-01
      8.023  0.2706E-02  0.8751E-01
      8.142  0.2610E-02  0.8782E-01
      8.260  0.2542E-02  0.8812E-01
      8.378  0.2482E-02  0.8842E-01
      8.497  0.2431E-02  0.8871E-01
      8.615  0.2380E-02  0.8900E-01
      8.733  0.2331E-02  0.8928E-01
      8.852  0.2281E-02  0.8955E-01
      8.970  0.2232E-02  0.8981E-01
      9.088  0.2164E-02  0.9008E-01
      9.207  0.2107E-02  0.9033E-01
      9.325  0.2057E-02  0.9057E-01
      9.443  0.2011E-02  0.9081E-01
      9.561  0.1972E-02  0.9105E-01
      9.680  0.2034E-02  0.9129E-01
      9.798  0.2200E-02  0.9154E-01
      9.916  0.2256E-02  0.9180E-01
     10.035  0.2287E-02  0.9207E-01
     10.153  0.2355E-02  0.9234E-01
     10.271  0.2409E-02  0.9263E-01
     10.390  0.2438E-02  0.9291E-01
     10.508  0.2470E-02  0.9320E-01
     10.626  0.2640E-02  0.9350E-01
     10.745  0.2854E-02  0.9383E-01
     10.863  0.3067E-02  0.9418E-01
     10.981  0.3455E-02  0.9456E-01
     11.100  0.3239E-02  0.9496E-01
     11.218  0.2692E-02  0.9530E-01
     11.336  0.2478E-02  0.9561E-01
     11.455  0.2298E-02  0.9589E-01
     11.573  0.2168E-02  0.9615E-01
     11.691  0.2006E-02  0.9640E-01
     11.810  0.1899E-02  0.9663E-01
     11.928  0.1828E-02  0.9685E-01
     12.046  0.1862E-02  0.9707E-01
     12.165  0.2146E-02  0.9730E-01
     12.283  0.3222E-02  0.9761E-01
     12.401  0.4837E-02  0.9808E-01
     12.520  0.6192E-02  0.9875E-01
     12.638  0.7192E-02  0.9953E-01
     12.756  0.8642E-02  0.1005E+00
     12.875  0.9675E-02  0.1016E+00
     12.993  0.1008E-01  0.1028E+00
     13.111  0.9801E-02  0.1039E+00
     13.230  0.9843E-02  0.1051E+00
     13.348  0.1298E-01  0.1065E+00
     13.466  0.1273E-01  0.1081E+00
     13.585  0.8913E-02  0.1094E+00
     13.703  0.6360E-02  0.1103E+00
     13.821  0.5761E-02  0.1110E+00
     13.940  0.5564E-02  0.1116E+00
     14.058  0.5765E-02  0.1123E+00
     14.176  0.5686E-02  0.1130E+00
     14.294  0.4669E-02  0.1136E+00
     14.413  0.4022E-02  0.1141E+00
     14.531  0.3474E-02  0.1145E+00
     14.649  0.3045E-02  0.1149E+00
     14.768  0.3118E-02  0.1153E+00
     14.886  0.3557E-02  0.1157E+00
     15.004  0.4282E-02  0.1162E+00
     15.123  0.3672E-02  0.1166E+00
     15.241  0.3783E-02  0.1171E+00
     15.359  0.4211E-02  0.1176E+00
     15.478  0.4196E-02  0.1181E+00
     15.596  0.3060E-02  0.1185E+00
     15.714  0.2269E-02  0.1188E+00
     15.833  0.1910E-02  0.1191E+00
     15.951  0.1601E-02  0.1193E+00
     16.069  0.1467E-02  0.1195E+00
     16.188  0.1298E-02  0.1196E+00
     16.306  0.1085E-02  0.1198E+00
     16.424  0.6575E-03  0.1199E+00
     16.543  0.4799E-03  0.1199E+00
     16.661  0.2647E-03  0.1200E+00
     16.779  0.8828E-06  0.1200E+00
     16.898  0.0000E+00  0.1200E+00
     17.016  0.0000E+00  0.1200E+00
     17.134  0.0000E+00  0.1200E+00
     17.253  0.0000E+00  0.1200E+00
     17.371  0.0000E+00  0.1200E+00
     17.489  0.0000E+00  0.1200E+00
     17.608  0.0000E+00  0.1200E+00
     17.726  0.0000E+00  0.1200E+00
     17.844  0.0000E+00  0.1200E+00
     17.963  0.0000E+00  0.1200E+00
     18.081  0.0000E+00  0.1200E+00
     18.199  0.0000E+00  0.1200E+00
     18.318  0.0000E+00  0.1200E+00
     18.436  0.0000E+00  0.1200E+00
     18.554  0.0000E+00  0.1200E+00
     18.672  0.0000E+00  0.1200E+00
     18.791  0.0000E+00  0.1200E+00
