mesh: [     9,     9,     4 ]
nqpoint: 50     
reciprocal_lattice:
- [   0.40553429,   0.23434576,   0.00000000 ] # a*
- [   0.00018224,   0.46837588,   0.00000000 ] # b*
- [   0.00000000,   0.00000000,   0.15386709 ] # c*
natom:   4      
lattice:
- [     2.466437248995937,    -0.000959642981403,     0.000000000000000 ] # a
- [    -1.234049699648306,     2.135517492938035,     0.000000000000000 ] # b
- [     0.000000000000000,     0.000000000000000,     6.499115713582790 ] # c
points:
- symbol: C  # 1
  coordinates: [  0.999346608899160,  0.000653437440448,  0.250000000000000 ]
  mass: 12.010700
- symbol: C  # 2
  coordinates: [  0.000653437440448,  0.999346608899160,  0.750000000000000 ]
  mass: 12.010700
- symbol: C  # 3
  coordinates: [  0.332584924946424,  0.667415057713967,  0.250000000000000 ]
  mass: 12.010700
- symbol: C  # 4
  coordinates: [  0.667415057713967,  0.332584924946424,  0.750000000000000 ]
  mass: 12.010700
phonon:
- q-position: [    0.0000000,    0.0000000,    0.1250000 ]
  weight: 2    
  band:
  - # 1
    frequency:    -2.5784115743
  - # 2
    frequency:    -0.8450013914
  - # 3
    frequency:    -0.6670638135
  - # 4
    frequency:     0.9122443559
  - # 5
    frequency:     1.2400204476
  - # 6
    frequency:     2.7420383795
  - # 7
    frequency:    22.1069163266
  - # 8
    frequency:    26.2481045378
  - # 9
    frequency:    44.0002422038
  - # 10
    frequency:    44.0717365961
  - # 11
    frequency:    44.2242559956
  - # 12
    frequency:    44.2394245174

- q-position: [    0.1111111,    0.0000000,    0.1250000 ]
  weight: 8    
  band:
  - # 1
    frequency:     3.6101440292
  - # 2
    frequency:     5.5523942778
  - # 3
    frequency:     5.9450680191
  - # 4
    frequency:     6.0720972684
  - # 5
    frequency:    11.3145784980
  - # 6
    frequency:    11.5051887644
  - # 7
    frequency:    21.8411683505
  - # 8
    frequency:    25.6564993627
  - # 9
    frequency:    43.8992847640
  - # 10
    frequency:    43.9409734535
  - # 11
    frequency:    44.3126176224
  - # 12
    frequency:    44.4319790299

- q-position: [    0.2222222,    0.0000000,    0.1250000 ]
  weight: 8    
  band:
  - # 1
    frequency:     7.4120761032
  - # 2
    frequency:     9.2321378028
  - # 3
    frequency:    11.5161930439
  - # 4
    frequency:    11.6160688693
  - # 5
    frequency:    21.0996052473
  - # 6
    frequency:    22.0396155061
  - # 7
    frequency:    22.1627736253
  - # 8
    frequency:    24.0080220951
  - # 9
    frequency:    43.3280398754
  - # 10
    frequency:    43.3716761143
  - # 11
    frequency:    44.6397844089
  - # 12
    frequency:    44.7463078926

- q-position: [    0.3333333,    0.0000000,    0.1250000 ]
  weight: 8    
  band:
  - # 1
    frequency:    10.8859788065
  - # 2
    frequency:    12.3391043641
  - # 3
    frequency:    15.9414732819
  - # 4
    frequency:    16.0064522037
  - # 5
    frequency:    20.0376823964
  - # 6
    frequency:    21.6724466414
  - # 7
    frequency:    31.0450380336
  - # 8
    frequency:    31.1451911907
  - # 9
    frequency:    42.5420346857
  - # 10
    frequency:    42.5733692705
  - # 11
    frequency:    44.2297879649
  - # 12
    frequency:    44.3152832037

- q-position: [    0.4444444,    0.0000000,    0.1250000 ]
  weight: 8    
  band:
  - # 1
    frequency:    13.6392164251
  - # 2
    frequency:    14.3296893306
  - # 3
    frequency:    18.4914374100
  - # 4
    frequency:    18.5140683583
  - # 5
    frequency:    18.9980108860
  - # 6
    frequency:    19.4101332943
  - # 7
    frequency:    37.8176705874
  - # 8
    frequency:    37.8991125270
  - # 9
    frequency:    41.9266675592
  - # 10
    frequency:    41.9462583774
  - # 11
    frequency:    42.1685821428
  - # 12
    frequency:    42.2515699198

- q-position: [    0.1111111,    0.1111111,    0.1250000 ]
  weight: 4    
  band:
  - # 1
    frequency:     7.2559051648
  - # 2
    frequency:     7.9038343497
  - # 3
    frequency:    10.6865599611
  - # 4
    frequency:    10.7041116813
  - # 5
    frequency:    18.9160248928
  - # 6
    frequency:    19.0831196407
  - # 7
    frequency:    21.3260259312
  - # 8
    frequency:    24.4326070073
  - # 9
    frequency:    43.6063017679
  - # 10
    frequency:    43.7015329491
  - # 11
    frequency:    44.4881312778
  - # 12
    frequency:    44.6553426989

- q-position: [    0.2222222,    0.1111111,    0.1250000 ]
  weight: 8    
  band:
  - # 1
    frequency:    10.4013985581
  - # 2
    frequency:    11.1489414097
  - # 3
    frequency:    15.8844040245
  - # 4
    frequency:    15.9570154353
  - # 5
    frequency:    20.3961768726
  - # 6
    frequency:    22.3549441032
  - # 7
    frequency:    27.2586479892
  - # 8
    frequency:    27.3737726303
  - # 9
    frequency:    43.1379760049
  - # 10
    frequency:    43.1745227586
  - # 11
    frequency:    44.3395457909
  - # 12
    frequency:    44.4344457436

- q-position: [    0.3333333,    0.1111111,    0.1250000 ]
  weight: 8    
  band:
  - # 1
    frequency:    13.2259358702
  - # 2
    frequency:    13.7194157022
  - # 3
    frequency:    19.2594752311
  - # 4
    frequency:    19.6995179669
  - # 5
    frequency:    19.7622420090
  - # 6
    frequency:    19.9475852368
  - # 7
    frequency:    34.3573598102
  - # 8
    frequency:    34.4451385143
  - # 9
    frequency:    42.3564956978
  - # 10
    frequency:    42.3887910522
  - # 11
    frequency:    43.2426099271
  - # 12
    frequency:    43.3010193876

- q-position: [   -0.5555556,    0.1111111,    0.1250000 ]
  weight: 8    
  band:
  - # 1
    frequency:    14.3361538142
  - # 2
    frequency:    15.0260977629
  - # 3
    frequency:    18.5903541947
  - # 4
    frequency:    18.6760796203
  - # 5
    frequency:    21.1779567099
  - # 6
    frequency:    21.2028520652
  - # 7
    frequency:    39.4386783790
  - # 8
    frequency:    39.4697626579
  - # 9
    frequency:    39.7047556728
  - # 10
    frequency:    39.7824375723
  - # 11
    frequency:    42.6063553096
  - # 12
    frequency:    42.6321490694

- q-position: [   -0.4444444,    0.1111111,    0.1250000 ]
  weight: 8    
  band:
  - # 1
    frequency:    12.2539139051
  - # 2
    frequency:    13.8939681058
  - # 3
    frequency:    19.3402036522
  - # 4
    frequency:    19.8560651275
  - # 5
    frequency:    19.8917401576
  - # 6
    frequency:    20.3740785501
  - # 7
    frequency:    34.4605461958
  - # 8
    frequency:    34.5289732355
  - # 9
    frequency:    42.2660640024
  - # 10
    frequency:    42.3006135933
  - # 11
    frequency:    43.1636079278
  - # 12
    frequency:    43.2581471205

- q-position: [   -0.3333333,    0.1111111,    0.1250000 ]
  weight: 8    
  band:
  - # 1
    frequency:     9.0665507630
  - # 2
    frequency:    11.4012658102
  - # 3
    frequency:    16.0916381083
  - # 4
    frequency:    16.1696497768
  - # 5
    frequency:    20.4425650039
  - # 6
    frequency:    22.7751002824
  - # 7
    frequency:    27.3870337831
  - # 8
    frequency:    27.4539223234
  - # 9
    frequency:    43.0611983880
  - # 10
    frequency:    43.0870976004
  - # 11
    frequency:    44.2810370070
  - # 12
    frequency:    44.3472875025

- q-position: [   -0.2222222,    0.1111111,    0.1250000 ]
  weight: 8    
  band:
  - # 1
    frequency:     5.3962732755
  - # 2
    frequency:     8.4542146753
  - # 3
    frequency:    10.7491766778
  - # 4
    frequency:    10.8922374281
  - # 5
    frequency:    19.1552726221
  - # 6
    frequency:    19.1709189907
  - # 7
    frequency:    21.3416830020
  - # 8
    frequency:    24.7245870941
  - # 9
    frequency:    43.5311233517
  - # 10
    frequency:    43.6411015109
  - # 11
    frequency:    44.5101780349
  - # 12
    frequency:    44.5437180998

- q-position: [   -0.1111111,    0.1111111,    0.1250000 ]
  weight: 4    
  band:
  - # 1
    frequency:     1.8926519013
  - # 2
    frequency:     5.6017878227
  - # 3
    frequency:     5.9167233126
  - # 4
    frequency:     6.0609301122
  - # 5
    frequency:    11.5864419791
  - # 6
    frequency:    11.6904723337
  - # 7
    frequency:    21.8438746682
  - # 8
    frequency:    25.7605606919
  - # 9
    frequency:    43.7924881734
  - # 10
    frequency:    44.0206818885
  - # 11
    frequency:    44.2728409864
  - # 12
    frequency:    44.4171434120

- q-position: [    0.2222222,    0.2222222,    0.1250000 ]
  weight: 4    
  band:
  - # 1
    frequency:    13.1202501145
  - # 2
    frequency:    13.4537215256
  - # 3
    frequency:    19.3488009189
  - # 4
    frequency:    20.1400189220
  - # 5
    frequency:    21.6337851023
  - # 6
    frequency:    21.7022490608
  - # 7
    frequency:    32.0004306980
  - # 8
    frequency:    32.0782548694
  - # 9
    frequency:    42.8836462432
  - # 10
    frequency:    42.9359451134
  - # 11
    frequency:    43.2804979101
  - # 12
    frequency:    43.2902869835

- q-position: [    0.3333333,    0.2222222,    0.1250000 ]
  weight: 8    
  band:
  - # 1
    frequency:    15.0948292557
  - # 2
    frequency:    15.4388979194
  - # 3
    frequency:    18.0225502154
  - # 4
    frequency:    18.2345996546
  - # 5
    frequency:    25.5301535953
  - # 6
    frequency:    25.5732275217
  - # 7
    frequency:    36.1113271236
  - # 8
    frequency:    36.1605266703
  - # 9
    frequency:    40.0883999970
  - # 10
    frequency:    40.1084969720
  - # 11
    frequency:    43.4686166238
  - # 12
    frequency:    43.5015071898

- q-position: [   -0.5555556,    0.2222222,    0.1250000 ]
  weight: 8    
  band:
  - # 1
    frequency:    14.2073392244
  - # 2
    frequency:    15.4843274842
  - # 3
    frequency:    18.3358022504
  - # 4
    frequency:    18.6031784399
  - # 5
    frequency:    25.6521187820
  - # 6
    frequency:    25.6790357462
  - # 7
    frequency:    36.2209479968
  - # 8
    frequency:    36.2483057599
  - # 9
    frequency:    39.9473165069
  - # 10
    frequency:    39.9816290120
  - # 11
    frequency:    43.4347069664
  - # 12
    frequency:    43.4670351467

- q-position: [   -0.4444444,    0.2222222,    0.1250000 ]
  weight: 8    
  band:
  - # 1
    frequency:    11.6902740695
  - # 2
    frequency:    13.5839854569
  - # 3
    frequency:    19.4240869542
  - # 4
    frequency:    20.8706748950
  - # 5
    frequency:    21.8749127491
  - # 6
    frequency:    21.9219858893
  - # 7
    frequency:    32.1491509592
  - # 8
    frequency:    32.1720925132
  - # 9
    frequency:    42.7519954869
  - # 10
    frequency:    42.7736976218
  - # 11
    frequency:    43.1773181946
  - # 12
    frequency:    43.2300814260

- q-position: [   -0.3333333,    0.2222222,    0.1250000 ]
  weight: 8    
  band:
  - # 1
    frequency:     8.8212826807
  - # 2
    frequency:    11.3218745742
  - # 3
    frequency:    16.0559651770
  - # 4
    frequency:    16.1312151856
  - # 5
    frequency:    20.4054308729
  - # 6
    frequency:    22.9544611610
  - # 7
    frequency:    27.4841201811
  - # 8
    frequency:    27.5224970647
  - # 9
    frequency:    43.0099810334
  - # 10
    frequency:    43.1494110457
  - # 11
    frequency:    44.2175060389
  - # 12
    frequency:    44.3021471355

- q-position: [   -0.2222222,    0.2222222,    0.1250000 ]
  weight: 4    
  band:
  - # 1
    frequency:     6.1776843874
  - # 2
    frequency:     9.3237113557
  - # 3
    frequency:    11.4794465824
  - # 4
    frequency:    11.6449730699
  - # 5
    frequency:    21.0880284605
  - # 6
    frequency:    22.2656922890
  - # 7
    frequency:    22.3415519602
  - # 8
    frequency:    24.3441960310
  - # 9
    frequency:    43.2176207910
  - # 10
    frequency:    43.4121835601
  - # 11
    frequency:    44.5499883188
  - # 12
    frequency:    44.6739345872

- q-position: [   -0.6666667,    0.3333333,    0.1250000 ]
  weight: 4    
  band:
  - # 1
    frequency:    16.1262590342
  - # 2
    frequency:    16.4534063414
  - # 3
    frequency:    16.9757522859
  - # 4
    frequency:    17.3668389971
  - # 5
    frequency:    29.1358107164
  - # 6
    frequency:    29.1479834523
  - # 7
    frequency:    37.1922353924
  - # 8
    frequency:    37.1989964033
  - # 9
    frequency:    37.2392028933
  - # 10
    frequency:    37.2656841777
  - # 11
    frequency:    43.8250997864
  - # 12
    frequency:    43.8550675326

- q-position: [   -0.5555556,    0.3333333,    0.1250000 ]
  weight: 8    
  band:
  - # 1
    frequency:    14.3453104492
  - # 2
    frequency:    15.3226626228
  - # 3
    frequency:    18.2814301822
  - # 4
    frequency:    18.6995169734
  - # 5
    frequency:    25.6839236526
  - # 6
    frequency:    25.7150067929
  - # 7
    frequency:    36.1853703055
  - # 8
    frequency:    36.1988327087
  - # 9
    frequency:    39.9619165674
  - # 10
    frequency:    39.9858479515
  - # 11
    frequency:    43.4365929252
  - # 12
    frequency:    43.4531559593

- q-position: [   -0.4444444,    0.3333333,    0.1250000 ]
  weight: 8    
  band:
  - # 1
    frequency:    12.3283400848
  - # 2
    frequency:    13.7098347270
  - # 3
    frequency:    19.2139764235
  - # 4
    frequency:    19.8373986199
  - # 5
    frequency:    19.8659372458
  - # 6
    frequency:    20.5980295891
  - # 7
    frequency:    34.5010648248
  - # 8
    frequency:    34.5527669212
  - # 9
    frequency:    42.2608324846
  - # 10
    frequency:    42.3353143790
  - # 11
    frequency:    43.1235408849
  - # 12
    frequency:    43.1901771548

- q-position: [   -0.3333333,    0.3333333,    0.1250000 ]
  weight: 4    
  band:
  - # 1
    frequency:    10.2391840424
  - # 2
    frequency:    12.2117069254
  - # 3
    frequency:    15.9651417445
  - # 4
    frequency:    16.0265636864
  - # 5
    frequency:    19.9574306155
  - # 6
    frequency:    22.1573192134
  - # 7
    frequency:    31.2032024082
  - # 8
    frequency:    31.2739247338
  - # 9
    frequency:    42.4597383509
  - # 10
    frequency:    42.5959776683
  - # 11
    frequency:    44.1137045741
  - # 12
    frequency:    44.2148380513

- q-position: [   -0.5555556,    0.4444444,    0.1250000 ]
  weight: 4    
  band:
  - # 1
    frequency:    14.3973563382
  - # 2
    frequency:    14.8642886775
  - # 3
    frequency:    18.6355360625
  - # 4
    frequency:    18.7513899908
  - # 5
    frequency:    21.2197001215
  - # 6
    frequency:    21.2309204212
  - # 7
    frequency:    39.4489965610
  - # 8
    frequency:    39.4699162730
  - # 9
    frequency:    39.6652397428
  - # 10
    frequency:    39.7427273056
  - # 11
    frequency:    42.6008620614
  - # 12
    frequency:    42.6011856174

- q-position: [   -0.4444444,    0.4444444,    0.1250000 ]
  weight: 4    
  band:
  - # 1
    frequency:    13.5674932347
  - # 2
    frequency:    14.2432875074
  - # 3
    frequency:    18.4977574456
  - # 4
    frequency:    18.5117494868
  - # 5
    frequency:    18.8724871553
  - # 6
    frequency:    19.6861692279
  - # 7
    frequency:    37.8654557153
  - # 8
    frequency:    37.9349532697
  - # 9
    frequency:    41.8976831754
  - # 10
    frequency:    41.9523957576
  - # 11
    frequency:    42.1019860608
  - # 12
    frequency:    42.1883211128

- q-position: [    0.0000000,    0.0000000,    0.3750000 ]
  weight: 2    
  band:
  - # 1
    frequency:    -2.6702024153
  - # 2
    frequency:    -2.1619443614
  - # 3
    frequency:    -1.5412720944
  - # 4
    frequency:    -1.2458349164
  - # 5
    frequency:     2.5730911926
  - # 6
    frequency:     3.7121631647
  - # 7
    frequency:    24.8496061901
  - # 8
    frequency:    26.5487807312
  - # 9
    frequency:    43.4502752042
  - # 10
    frequency:    43.5507348385
  - # 11
    frequency:    43.6690200850
  - # 12
    frequency:    43.7328672358

- q-position: [    0.1111111,    0.0000000,    0.3750000 ]
  weight: 8    
  band:
  - # 1
    frequency:     4.6570058283
  - # 2
    frequency:     5.5836934614
  - # 3
    frequency:     5.8236541102
  - # 4
    frequency:     5.8775896778
  - # 5
    frequency:    11.2782155873
  - # 6
    frequency:    11.3580705275
  - # 7
    frequency:    24.3527021598
  - # 8
    frequency:    25.9178503147
  - # 9
    frequency:    43.4734423253
  - # 10
    frequency:    43.4835499651
  - # 11
    frequency:    43.8571208595
  - # 12
    frequency:    43.8844802216

- q-position: [    0.2222222,    0.0000000,    0.3750000 ]
  weight: 8    
  band:
  - # 1
    frequency:     8.0309968988
  - # 2
    frequency:     8.8062831860
  - # 3
    frequency:    11.5129065224
  - # 4
    frequency:    11.5544040323
  - # 5
    frequency:    22.0509339687
  - # 6
    frequency:    22.1024247416
  - # 7
    frequency:    22.9783078628
  - # 8
    frequency:    24.1704265112
  - # 9
    frequency:    43.0417657672
  - # 10
    frequency:    43.0575877049
  - # 11
    frequency:    44.3343169647
  - # 12
    frequency:    44.3759863991

- q-position: [    0.3333333,    0.0000000,    0.3750000 ]
  weight: 8    
  band:
  - # 1
    frequency:    11.2487360821
  - # 2
    frequency:    11.8444863347
  - # 3
    frequency:    15.9619957032
  - # 4
    frequency:    15.9889271501
  - # 5
    frequency:    21.0527536377
  - # 6
    frequency:    21.7247494409
  - # 7
    frequency:    31.0856660944
  - # 8
    frequency:    31.1270301509
  - # 9
    frequency:    42.4169180784
  - # 10
    frequency:    42.4295832050
  - # 11
    frequency:    44.0946301711
  - # 12
    frequency:    44.1298407689

- q-position: [    0.4444444,    0.0000000,    0.3750000 ]
  weight: 8    
  band:
  - # 1
    frequency:    13.8205829168
  - # 2
    frequency:    14.1055903244
  - # 3
    frequency:    18.4992672339
  - # 4
    frequency:    18.5086391667
  - # 5
    frequency:    19.2129706649
  - # 6
    frequency:    19.3853216771
  - # 7
    frequency:    37.8569399629
  - # 8
    frequency:    37.8905911715
  - # 9
    frequency:    41.9153758438
  - # 10
    frequency:    41.9234869418
  - # 11
    frequency:    42.1560035217
  - # 12
    frequency:    42.1904729182

- q-position: [    0.1111111,    0.1111111,    0.3750000 ]
  weight: 4    
  band:
  - # 1
    frequency:     7.5938741985
  - # 2
    frequency:     7.9997481546
  - # 3
    frequency:    10.5931291762
  - # 4
    frequency:    10.6006459612
  - # 5
    frequency:    18.9125962970
  - # 6
    frequency:    18.9819155142
  - # 7
    frequency:    23.3500493491
  - # 8
    frequency:    24.6245111606
  - # 9
    frequency:    43.3335666310
  - # 10
    frequency:    43.3731724785
  - # 11
    frequency:    44.1269560113
  - # 12
    frequency:    44.1968879777

- q-position: [    0.2222222,    0.1111111,    0.3750000 ]
  weight: 8    
  band:
  - # 1
    frequency:    10.6598881290
  - # 2
    frequency:    10.9856038274
  - # 3
    frequency:    15.8646198845
  - # 4
    frequency:    15.8948375145
  - # 5
    frequency:    21.6293070661
  - # 6
    frequency:    22.4327220477
  - # 7
    frequency:    27.2678518978
  - # 8
    frequency:    27.3154572099
  - # 9
    frequency:    42.9846950492
  - # 10
    frequency:    42.9994566263
  - # 11
    frequency:    44.1549411114
  - # 12
    frequency:    44.1940693021

- q-position: [    0.3333333,    0.1111111,    0.3750000 ]
  weight: 8    
  band:
  - # 1
    frequency:    13.3750600306
  - # 2
    frequency:    13.5774960622
  - # 3
    frequency:    19.6390335867
  - # 4
    frequency:    19.7054387975
  - # 5
    frequency:    19.7315547765
  - # 6
    frequency:    19.9223577265
  - # 7
    frequency:    34.3802401777
  - # 8
    frequency:    34.4165341204
  - # 9
    frequency:    42.3216058848
  - # 10
    frequency:    42.3349539295
  - # 11
    frequency:    43.2145223352
  - # 12
    frequency:    43.2385257007

- q-position: [   -0.5555556,    0.1111111,    0.3750000 ]
  weight: 8    
  band:
  - # 1
    frequency:    14.5102752313
  - # 2
    frequency:    14.8012363150
  - # 3
    frequency:    18.5921000588
  - # 4
    frequency:    18.6326225887
  - # 5
    frequency:    21.2005151456
  - # 6
    frequency:    21.2108232799
  - # 7
    frequency:    39.4468591592
  - # 8
    frequency:    39.4606185506
  - # 9
    frequency:    39.7461392714
  - # 10
    frequency:    39.7772999599
  - # 11
    frequency:    42.6180547448
  - # 12
    frequency:    42.6286575098

- q-position: [   -0.4444444,    0.1111111,    0.3750000 ]
  weight: 8    
  band:
  - # 1
    frequency:    12.5368150564
  - # 2
    frequency:    13.2158892265
  - # 3
    frequency:    19.9214758959
  - # 4
    frequency:    19.9363232997
  - # 5
    frequency:    19.9641395794
  - # 6
    frequency:    20.3918835259
  - # 7
    frequency:    34.5196464415
  - # 8
    frequency:    34.5477979399
  - # 9
    frequency:    42.2145418526
  - # 10
    frequency:    42.2287989626
  - # 11
    frequency:    43.0981341437
  - # 12
    frequency:    43.1374281998

- q-position: [   -0.3333333,    0.1111111,    0.3750000 ]
  weight: 8    
  band:
  - # 1
    frequency:     9.5860052719
  - # 2
    frequency:    10.5657718409
  - # 3
    frequency:    16.1861626329
  - # 4
    frequency:    16.2182348577
  - # 5
    frequency:    21.9046316890
  - # 6
    frequency:    22.8600977152
  - # 7
    frequency:    27.4212519993
  - # 8
    frequency:    27.4489157716
  - # 9
    frequency:    42.8491252452
  - # 10
    frequency:    42.8596672560
  - # 11
    frequency:    44.0770114181
  - # 12
    frequency:    44.1027055211

- q-position: [   -0.2222222,    0.1111111,    0.3750000 ]
  weight: 8    
  band:
  - # 1
    frequency:     6.3963027569
  - # 2
    frequency:     7.6896308949
  - # 3
    frequency:    10.8122421351
  - # 4
    frequency:    10.8709383665
  - # 5
    frequency:    19.1496399125
  - # 6
    frequency:    19.1559169594
  - # 7
    frequency:    23.5222919415
  - # 8
    frequency:    24.9082283945
  - # 9
    frequency:    43.1500189558
  - # 10
    frequency:    43.2014368558
  - # 11
    frequency:    44.1672910789
  - # 12
    frequency:    44.1864756748

- q-position: [   -0.1111111,    0.1111111,    0.3750000 ]
  weight: 4    
  band:
  - # 1
    frequency:     3.9188125040
  - # 2
    frequency:     5.4542973425
  - # 3
    frequency:     5.6260802770
  - # 4
    frequency:     5.8193935631
  - # 5
    frequency:    11.5656199159
  - # 6
    frequency:    11.6090163528
  - # 7
    frequency:    24.4108409219
  - # 8
    frequency:    26.0167696405
  - # 9
    frequency:    43.3018733694
  - # 10
    frequency:    43.3976349210
  - # 11
    frequency:    43.9099907870
  - # 12
    frequency:    43.9703408054

- q-position: [    0.2222222,    0.2222222,    0.3750000 ]
  weight: 4    
  band:
  - # 1
    frequency:    13.2343855701
  - # 2
    frequency:    13.3724383517
  - # 3
    frequency:    19.7893128959
  - # 4
    frequency:    20.1137054347
  - # 5
    frequency:    21.6409854105
  - # 6
    frequency:    21.6693604744
  - # 7
    frequency:    32.0090093405
  - # 8
    frequency:    32.0411757408
  - # 9
    frequency:    42.8373517200
  - # 10
    frequency:    42.8588808500
  - # 11
    frequency:    43.2419171440
  - # 12
    frequency:    43.2458751299

- q-position: [    0.3333333,    0.2222222,    0.3750000 ]
  weight: 8    
  band:
  - # 1
    frequency:    15.2080838960
  - # 2
    frequency:    15.3616342662
  - # 3
    frequency:    17.9460639813
  - # 4
    frequency:    18.0283070912
  - # 5
    frequency:    25.5565434192
  - # 6
    frequency:    25.5743923651
  - # 7
    frequency:    36.1339382646
  - # 8
    frequency:    36.1543960711
  - # 9
    frequency:    40.1336760755
  - # 10
    frequency:    40.1419439887
  - # 11
    frequency:    43.4976078380
  - # 12
    frequency:    43.5111507262

- q-position: [   -0.5555556,    0.2222222,    0.3750000 ]
  weight: 8    
  band:
  - # 1
    frequency:    14.3379598641
  - # 2
    frequency:    14.8809965001
  - # 3
    frequency:    18.4847075575
  - # 4
    frequency:    18.6013626849
  - # 5
    frequency:    25.7285758131
  - # 6
    frequency:    25.7396466303
  - # 7
    frequency:    36.2801386457
  - # 8
    frequency:    36.2913139125
  - # 9
    frequency:    39.9436354665
  - # 10
    frequency:    39.9580651943
  - # 11
    frequency:    43.4442792627
  - # 12
    frequency:    43.4575101757

- q-position: [   -0.4444444,    0.2222222,    0.3750000 ]
  weight: 8    
  band:
  - # 1
    frequency:    11.9299015222
  - # 2
    frequency:    12.7338225437
  - # 3
    frequency:    20.2771240093
  - # 4
    frequency:    20.8673885374
  - # 5
    frequency:    21.9958476570
  - # 6
    frequency:    22.0151546917
  - # 7
    frequency:    32.1857687295
  - # 8
    frequency:    32.1951943259
  - # 9
    frequency:    42.6616428367
  - # 10
    frequency:    42.6706987628
  - # 11
    frequency:    43.0922583922
  - # 12
    frequency:    43.1134589151

- q-position: [   -0.3333333,    0.2222222,    0.3750000 ]
  weight: 8    
  band:
  - # 1
    frequency:     9.3011975358
  - # 2
    frequency:    10.3842265375
  - # 3
    frequency:    16.1497986495
  - # 4
    frequency:    16.1804163981
  - # 5
    frequency:    21.9685118955
  - # 6
    frequency:    23.0100678262
  - # 7
    frequency:    27.5354318037
  - # 8
    frequency:    27.5513209692
  - # 9
    frequency:    42.7984133184
  - # 10
    frequency:    42.8568670924
  - # 11
    frequency:    44.0331575685
  - # 12
    frequency:    44.0686863337

- q-position: [   -0.2222222,    0.2222222,    0.3750000 ]
  weight: 4    
  band:
  - # 1
    frequency:     7.0254610607
  - # 2
    frequency:     8.3852911873
  - # 3
    frequency:    11.5478415097
  - # 4
    frequency:    11.6158469761
  - # 5
    frequency:    22.3262197747
  - # 6
    frequency:    22.3575011991
  - # 7
    frequency:    23.1507596561
  - # 8
    frequency:    24.4822277071
  - # 9
    frequency:    42.8843542528
  - # 10
    frequency:    42.9657763736
  - # 11
    frequency:    44.2891374631
  - # 12
    frequency:    44.3408492670

- q-position: [   -0.6666667,    0.3333333,    0.3750000 ]
  weight: 4    
  band:
  - # 1
    frequency:    16.0531134749
  - # 2
    frequency:    16.3142300085
  - # 3
    frequency:    16.9838116160
  - # 4
    frequency:    17.0286873043
  - # 5
    frequency:    29.1970394761
  - # 6
    frequency:    29.2019396497
  - # 7
    frequency:    37.2261697480
  - # 8
    frequency:    37.2290787319
  - # 9
    frequency:    37.2955382246
  - # 10
    frequency:    37.3063059892
  - # 11
    frequency:    43.8626001467
  - # 12
    frequency:    43.8748385246

- q-position: [   -0.5555556,    0.3333333,    0.3750000 ]
  weight: 8    
  band:
  - # 1
    frequency:    14.3824668861
  - # 2
    frequency:    14.8056387516
  - # 3
    frequency:    18.4806777784
  - # 4
    frequency:    18.6463623510
  - # 5
    frequency:    25.7830694705
  - # 6
    frequency:    25.7958944867
  - # 7
    frequency:    36.2170284904
  - # 8
    frequency:    36.2224344281
  - # 9
    frequency:    39.9606981684
  - # 10
    frequency:    39.9706156708
  - # 11
    frequency:    43.4434139069
  - # 12
    frequency:    43.4502066328

- q-position: [   -0.4444444,    0.3333333,    0.3750000 ]
  weight: 8    
  band:
  - # 1
    frequency:    12.4824034104
  - # 2
    frequency:    13.0850394766
  - # 3
    frequency:    19.9000449101
  - # 4
    frequency:    19.9121981933
  - # 5
    frequency:    19.9697181070
  - # 6
    frequency:    20.5303176157
  - # 7
    frequency:    34.5607228434
  - # 8
    frequency:    34.5820461950
  - # 9
    frequency:    42.2084842064
  - # 10
    frequency:    42.2392012225
  - # 11
    frequency:    43.0580409658
  - # 12
    frequency:    43.0855953168

- q-position: [   -0.3333333,    0.3333333,    0.3750000 ]
  weight: 4    
  band:
  - # 1
    frequency:    10.5441134145
  - # 2
    frequency:    11.4139361427
  - # 3
    frequency:    16.0156054972
  - # 4
    frequency:    16.0407754048
  - # 5
    frequency:    21.2469639844
  - # 6
    frequency:    22.1446210926
  - # 7
    frequency:    31.2857269672
  - # 8
    frequency:    31.3149690123
  - # 9
    frequency:    42.3204162287
  - # 10
    frequency:    42.3771547208
  - # 11
    frequency:    43.9783898713
  - # 12
    frequency:    44.0204576164

- q-position: [   -0.5555556,    0.4444444,    0.3750000 ]
  weight: 4    
  band:
  - # 1
    frequency:    14.4754922361
  - # 2
    frequency:    14.6722210529
  - # 3
    frequency:    18.6711361162
  - # 4
    frequency:    18.7211191088
  - # 5
    frequency:    21.2584254035
  - # 6
    frequency:    21.2630645063
  - # 7
    frequency:    39.4548576529
  - # 8
    frequency:    39.4635485566
  - # 9
    frequency:    39.6965901543
  - # 10
    frequency:    39.7286289467
  - # 11
    frequency:    42.6037469490
  - # 12
    frequency:    42.6039530871

- q-position: [   -0.4444444,    0.4444444,    0.3750000 ]
  weight: 4    
  band:
  - # 1
    frequency:    13.6856510713
  - # 2
    frequency:    13.9821812734
  - # 3
    frequency:    18.5075327454
  - # 4
    frequency:    18.5133039415
  - # 5
    frequency:    19.2477964800
  - # 6
    frequency:    19.5772657996
  - # 7
    frequency:    37.9176742828
  - # 8
    frequency:    37.9464031141
  - # 9
    frequency:    41.8902145120
  - # 10
    frequency:    41.9128883357
  - # 11
    frequency:    42.0801127628
  - # 12
    frequency:    42.1159379064

