 vasp.5.3.5 31Mar14 (build Nov 02 2014 15:17:37) complex                        
  
 executed on        ion-Intel-MKL date 2016.10.18  07:21:41
 running on    6 total cores
 distrk:  each k-point on    6 cores,    1 groups
 distr:  one band on NCORES_PER_BAND=   3 cores,    2 groups


--------------------------------------------------------------------------------------------------------


 INCAR:
 POTCAR:   PAW_PBE C 08Apr2002                    
 POTCAR:   PAW_PBE C 08Apr2002                    
   VRHFIN =C: s2p2                                                              
   LEXCH  = PE                                                                  
   EATOM  =   147.1560 eV,   10.8157 Ry                                         
                                                                                
   TITEL  = PAW_PBE C 08Apr2002                                                 
   LULTRA =        F    use ultrasoft PP ?                                      
   IUNSCR =        0    unscreen: 0-lin 1-nonlin 2-no                           
   RPACOR =     .000    partial core radius                                     
   POMASS =   12.011; ZVAL   =    4.000    mass and valenz                      
   RCORE  =    1.500    outmost cutoff radius                                   
   RWIGS  =    1.630; RWIGS  =     .863    wigner-seitz radius (au A)           
   ENMAX  =  400.000; ENMIN  =  300.000 eV                                      
   ICORE  =        2    local potential                                         
   LCOR   =        T    correct aug charges                                     
   LPAW   =        T    paw PP                                                  
   EAUG   =  644.873                                                            
   DEXC   =     .000                                                            
   RMAX   =    2.266    core radius for proj-oper                               
   RAUG   =    1.300    factor for augmentation sphere                          
   RDEP   =    1.501    radius for radial grids                                 
   RDEPT  =    1.300    core radius for aug-charge                              
   QCUT   =   -5.516; QGAM   =   11.032    optimization parameters              
                                                                                
   Description                                                                  
     l     E      TYP  RCUT    TYP  RCUT                                        
     0   .000     23  1.200                                                     
     0   .000     23  1.200                                                     
     1   .000     23  1.500                                                     
     1  2.500     23  1.500                                                     
     2   .000      7  1.500                                                     
  local pseudopotential read in
  atomic valenz-charges read in
  non local Contribution for L=           0  read in
    real space projection operators read in
  non local Contribution for L=           0  read in
    real space projection operators read in
  non local Contribution for L=           1  read in
    real space projection operators read in
  non local Contribution for L=           1  read in
    real space projection operators read in
    PAW grid and wavefunctions read in
 
   number of l-projection  operators is LMAX  =           4
   number of lm-projection operators is LMMAX =           8
 
 PAW_PBE C 08Apr2002                    :
 energy of atom  1       EATOM= -147.1560
 kinetic energy error for atom=    0.0016 (will be added to EATOM!!)
 
 
 POSCAR: CIF file                                
  positions in direct lattice
  velocities in cartesian coordinates
 exchange correlation table for  LEXCH =        8
   RHO(1)=    0.500       N(1)  =     2000
   RHO(2)=  100.500       N(2)  =     4000
 


--------------------------------------------------------------------------------------------------------


 ion  position               nearest neighbor table
   1  0.999  0.001  0.250-   3 1.42   3 1.42   3 1.42
   2  0.001  0.999  0.750-   4 1.42   4 1.42   4 1.42
   3  0.333  0.667  0.250-   1 1.42   1 1.42   1 1.42
   4  0.667  0.333  0.750-   2 1.42   2 1.42   2 1.42
 
  LATTYP: Found a base centered orthorhombic cell.
 ALAT       =     2.4647750986
 B/A-ratio  =     1.7336081796
 C/A-ratio  =     2.6367986748
  
  Lattice vectors:
  
 A1 = (   2.4664372490,  -0.0009596430,   0.0000000000)
 A2 = (  -1.2340496996,   2.1355174929,   0.0000000000)
 A3 = (   0.0000000000,   0.0000000000,   6.4991157136)


Analysis of symmetry for initial positions (statically):
=====================================================================
 Subroutine PRICEL returns:
 Original cell was already a primitive cell.
 

 Routine SETGRP: Setting up the symmetry group for a 
 base centered orthorhombic supercell.


 Subroutine GETGRP returns: Found  8 space group operations
 (whereof  4 operations were pure point group operations)
 out of a pool of  8 trial point group operations.


The static configuration has the point symmetry C_2h.
 The point group associated with its full space group is D_2h.


Analysis of symmetry for dynamics (positions and initial velocities):
=====================================================================
 Subroutine PRICEL returns:
 Original cell was already a primitive cell.
 

 Routine SETGRP: Setting up the symmetry group for a 
 base centered orthorhombic supercell.


 Subroutine GETGRP returns: Found  8 space group operations
 (whereof  4 operations were pure point group operations)
 out of a pool of  8 trial point group operations.


The dynamic configuration has the point symmetry C_2h.
 The point group associated with its full space group is D_2h.
 
 
 KPOINTS: B4C B11C-CBC                            

Automatic generation of k-mesh.
Space group operators:
 irot       det(A)        alpha          n_x          n_y          n_z        tau_x        tau_y        tau_z
    1     1.000000     0.000000     1.000000     0.000000     0.000000     0.000000     0.000000     0.000000
    2    -1.000000     0.000000     1.000000     0.000000     0.000000     0.000000     0.000000     0.000000
    3     1.000000   179.999999    -0.500000    -0.866025     0.000000     0.000000     0.000000     0.000000
    4    -1.000000   179.999999    -0.500000    -0.866025     0.000000     0.000000     0.000000     0.000000
    5     1.000000   180.000000     0.000000     0.000000     1.000000     0.000000     0.000000     0.500000
    6    -1.000000   180.000000     0.000000     0.000000     1.000000     0.000000     0.000000     0.500000
    7     1.000000   180.000000     0.866025    -0.500000     0.000000     0.000000     0.000000     0.500000
    8    -1.000000   180.000000     0.866025    -0.500000     0.000000     0.000000     0.000000     0.500000
 
 Subroutine IBZKPT returns following result:
 ===========================================
 
 Found    215 irreducible k-points:
 
 Following reciprocal coordinates:
            Coordinates               Weight
  0.000000  0.000000  0.000000      1.000000
  0.083333  0.000000  0.000000      4.000000
  0.166667  0.000000  0.000000      4.000000
  0.250000  0.000000  0.000000      4.000000
  0.333333  0.000000  0.000000      4.000000
  0.416667  0.000000  0.000000      4.000000
  0.500000  0.000000  0.000000      2.000000
  0.083333  0.083333  0.000000      2.000000
  0.166667  0.083333  0.000000      4.000000
  0.250000  0.083333  0.000000      4.000000
  0.333333  0.083333  0.000000      4.000000
  0.416667  0.083333  0.000000      4.000000
  0.500000  0.083333  0.000000      4.000000
 -0.416667  0.083333  0.000000      4.000000
 -0.333333  0.083333  0.000000      4.000000
 -0.250000  0.083333  0.000000      4.000000
 -0.166667  0.083333  0.000000      4.000000
 -0.083333  0.083333  0.000000      2.000000
  0.166667  0.166667  0.000000      2.000000
  0.250000  0.166667  0.000000      4.000000
  0.333333  0.166667  0.000000      4.000000
  0.416667  0.166667  0.000000      4.000000
  0.500000  0.166667  0.000000      4.000000
 -0.416667  0.166667  0.000000      4.000000
 -0.333333  0.166667  0.000000      4.000000
 -0.250000  0.166667  0.000000      4.000000
 -0.166667  0.166667  0.000000      2.000000
  0.250000  0.250000  0.000000      2.000000
  0.333333  0.250000  0.000000      4.000000
  0.416667  0.250000  0.000000      4.000000
  0.500000  0.250000  0.000000      4.000000
 -0.416667  0.250000  0.000000      4.000000
 -0.333333  0.250000  0.000000      4.000000
 -0.250000  0.250000  0.000000      2.000000
  0.333333  0.333333  0.000000      2.000000
  0.416667  0.333333  0.000000      4.000000
  0.500000  0.333333  0.000000      4.000000
 -0.416667  0.333333  0.000000      4.000000
 -0.333333  0.333333  0.000000      2.000000
  0.416667  0.416667  0.000000      2.000000
  0.500000  0.416667  0.000000      4.000000
 -0.416667  0.416667  0.000000      2.000000
  0.500000  0.500000  0.000000      1.000000
  0.000000  0.000000  0.125000      2.000000
  0.083333  0.000000  0.125000      8.000000
  0.166667  0.000000  0.125000      8.000000
  0.250000  0.000000  0.125000      8.000000
  0.333333  0.000000  0.125000      8.000000
  0.416667  0.000000  0.125000      8.000000
  0.500000  0.000000  0.125000      4.000000
  0.083333  0.083333  0.125000      4.000000
  0.166667  0.083333  0.125000      8.000000
  0.250000  0.083333  0.125000      8.000000
  0.333333  0.083333  0.125000      8.000000
  0.416667  0.083333  0.125000      8.000000
  0.500000  0.083333  0.125000      8.000000
 -0.416667  0.083333  0.125000      8.000000
 -0.333333  0.083333  0.125000      8.000000
 -0.250000  0.083333  0.125000      8.000000
 -0.166667  0.083333  0.125000      8.000000
 -0.083333  0.083333  0.125000      4.000000
  0.166667  0.166667  0.125000      4.000000
  0.250000  0.166667  0.125000      8.000000
  0.333333  0.166667  0.125000      8.000000
  0.416667  0.166667  0.125000      8.000000
  0.500000  0.166667  0.125000      8.000000
 -0.416667  0.166667  0.125000      8.000000
 -0.333333  0.166667  0.125000      8.000000
 -0.250000  0.166667  0.125000      8.000000
 -0.166667  0.166667  0.125000      4.000000
  0.250000  0.250000  0.125000      4.000000
  0.333333  0.250000  0.125000      8.000000
  0.416667  0.250000  0.125000      8.000000
  0.500000  0.250000  0.125000      8.000000
 -0.416667  0.250000  0.125000      8.000000
 -0.333333  0.250000  0.125000      8.000000
 -0.250000  0.250000  0.125000      4.000000
  0.333333  0.333333  0.125000      4.000000
  0.416667  0.333333  0.125000      8.000000
  0.500000  0.333333  0.125000      8.000000
 -0.416667  0.333333  0.125000      8.000000
 -0.333333  0.333333  0.125000      4.000000
  0.416667  0.416667  0.125000      4.000000
  0.500000  0.416667  0.125000      8.000000
 -0.416667  0.416667  0.125000      4.000000
  0.500000  0.500000  0.125000      2.000000
  0.000000  0.000000  0.250000      2.000000
  0.083333  0.000000  0.250000      8.000000
  0.166667  0.000000  0.250000      8.000000
  0.250000  0.000000  0.250000      8.000000
  0.333333  0.000000  0.250000      8.000000
  0.416667  0.000000  0.250000      8.000000
  0.500000  0.000000  0.250000      4.000000
  0.083333  0.083333  0.250000      4.000000
  0.166667  0.083333  0.250000      8.000000
  0.250000  0.083333  0.250000      8.000000
  0.333333  0.083333  0.250000      8.000000
  0.416667  0.083333  0.250000      8.000000
  0.500000  0.083333  0.250000      8.000000
 -0.416667  0.083333  0.250000      8.000000
 -0.333333  0.083333  0.250000      8.000000
 -0.250000  0.083333  0.250000      8.000000
 -0.166667  0.083333  0.250000      8.000000
 -0.083333  0.083333  0.250000      4.000000
  0.166667  0.166667  0.250000      4.000000
  0.250000  0.166667  0.250000      8.000000
  0.333333  0.166667  0.250000      8.000000
  0.416667  0.166667  0.250000      8.000000
  0.500000  0.166667  0.250000      8.000000
 -0.416667  0.166667  0.250000      8.000000
 -0.333333  0.166667  0.250000      8.000000
 -0.250000  0.166667  0.250000      8.000000
 -0.166667  0.166667  0.250000      4.000000
  0.250000  0.250000  0.250000      4.000000
  0.333333  0.250000  0.250000      8.000000
  0.416667  0.250000  0.250000      8.000000
  0.500000  0.250000  0.250000      8.000000
 -0.416667  0.250000  0.250000      8.000000
 -0.333333  0.250000  0.250000      8.000000
 -0.250000  0.250000  0.250000      4.000000
  0.333333  0.333333  0.250000      4.000000
  0.416667  0.333333  0.250000      8.000000
  0.500000  0.333333  0.250000      8.000000
 -0.416667  0.333333  0.250000      8.000000
 -0.333333  0.333333  0.250000      4.000000
  0.416667  0.416667  0.250000      4.000000
  0.500000  0.416667  0.250000      8.000000
 -0.416667  0.416667  0.250000      4.000000
  0.500000  0.500000  0.250000      2.000000
  0.000000  0.000000  0.375000      2.000000
  0.083333  0.000000  0.375000      8.000000
  0.166667  0.000000  0.375000      8.000000
  0.250000  0.000000  0.375000      8.000000
  0.333333  0.000000  0.375000      8.000000
  0.416667  0.000000  0.375000      8.000000
  0.500000  0.000000  0.375000      4.000000
  0.083333  0.083333  0.375000      4.000000
  0.166667  0.083333  0.375000      8.000000
  0.250000  0.083333  0.375000      8.000000
  0.333333  0.083333  0.375000      8.000000
  0.416667  0.083333  0.375000      8.000000
  0.500000  0.083333  0.375000      8.000000
 -0.416667  0.083333  0.375000      8.000000
 -0.333333  0.083333  0.375000      8.000000
 -0.250000  0.083333  0.375000      8.000000
 -0.166667  0.083333  0.375000      8.000000
 -0.083333  0.083333  0.375000      4.000000
  0.166667  0.166667  0.375000      4.000000
  0.250000  0.166667  0.375000      8.000000
  0.333333  0.166667  0.375000      8.000000
  0.416667  0.166667  0.375000      8.000000
  0.500000  0.166667  0.375000      8.000000
 -0.416667  0.166667  0.375000      8.000000
 -0.333333  0.166667  0.375000      8.000000
 -0.250000  0.166667  0.375000      8.000000
 -0.166667  0.166667  0.375000      4.000000
  0.250000  0.250000  0.375000      4.000000
  0.333333  0.250000  0.375000      8.000000
  0.416667  0.250000  0.375000      8.000000
  0.500000  0.250000  0.375000      8.000000
 -0.416667  0.250000  0.375000      8.000000
 -0.333333  0.250000  0.375000      8.000000
 -0.250000  0.250000  0.375000      4.000000
  0.333333  0.333333  0.375000      4.000000
  0.416667  0.333333  0.375000      8.000000
  0.500000  0.333333  0.375000      8.000000
 -0.416667  0.333333  0.375000      8.000000
 -0.333333  0.333333  0.375000      4.000000
  0.416667  0.416667  0.375000      4.000000
  0.500000  0.416667  0.375000      8.000000
 -0.416667  0.416667  0.375000      4.000000
  0.500000  0.500000  0.375000      2.000000
  0.000000  0.000000  0.500000      1.000000
  0.083333  0.000000  0.500000      4.000000
  0.166667  0.000000  0.500000      4.000000
  0.250000  0.000000  0.500000      4.000000
  0.333333  0.000000  0.500000      4.000000
  0.416667  0.000000  0.500000      4.000000
  0.500000  0.000000  0.500000      2.000000
  0.083333  0.083333  0.500000      2.000000
  0.166667  0.083333  0.500000      4.000000
  0.250000  0.083333  0.500000      4.000000
  0.333333  0.083333  0.500000      4.000000
  0.416667  0.083333  0.500000      4.000000
  0.500000  0.083333  0.500000      4.000000
 -0.416667  0.083333  0.500000      4.000000
 -0.333333  0.083333  0.500000      4.000000
 -0.250000  0.083333  0.500000      4.000000
 -0.166667  0.083333  0.500000      4.000000
 -0.083333  0.083333  0.500000      2.000000
  0.166667  0.166667  0.500000      2.000000
  0.250000  0.166667  0.500000      4.000000
  0.333333  0.166667  0.500000      4.000000
  0.416667  0.166667  0.500000      4.000000
  0.500000  0.166667  0.500000      4.000000
 -0.416667  0.166667  0.500000      4.000000
 -0.333333  0.166667  0.500000      4.000000
 -0.250000  0.166667  0.500000      4.000000
 -0.166667  0.166667  0.500000      2.000000
  0.250000  0.250000  0.500000      2.000000
  0.333333  0.250000  0.500000      4.000000
  0.416667  0.250000  0.500000      4.000000
  0.500000  0.250000  0.500000      4.000000
 -0.416667  0.250000  0.500000      4.000000
 -0.333333  0.250000  0.500000      4.000000
 -0.250000  0.250000  0.500000      2.000000
  0.333333  0.333333  0.500000      2.000000
  0.416667  0.333333  0.500000      4.000000
  0.500000  0.333333  0.500000      4.000000
 -0.416667  0.333333  0.500000      4.000000
 -0.333333  0.333333  0.500000      2.000000
  0.416667  0.416667  0.500000      2.000000
  0.500000  0.416667  0.500000      4.000000
 -0.416667  0.416667  0.500000      2.000000
  0.500000  0.500000  0.500000      1.000000
 
 Following cartesian coordinates:
            Coordinates               Weight
  0.000000  0.000000  0.000000      1.000000
  0.033795  0.019529  0.000000      4.000000
  0.067589  0.039058  0.000000      4.000000
  0.101384  0.058586  0.000000      4.000000
  0.135178  0.078115  0.000000      4.000000
  0.168973  0.097644  0.000000      4.000000
  0.202767  0.117173  0.000000      2.000000
  0.033810  0.058560  0.000000      2.000000
  0.067604  0.078089  0.000000      4.000000
  0.101399  0.097618  0.000000      4.000000
  0.135193  0.117147  0.000000      4.000000
  0.168988  0.136675  0.000000      4.000000
  0.202782  0.156204  0.000000      4.000000
 -0.168957 -0.058613  0.000000      4.000000
 -0.135163 -0.039084  0.000000      4.000000
 -0.101368 -0.019555  0.000000      4.000000
 -0.067574 -0.000026  0.000000      4.000000
 -0.033779  0.019503  0.000000      2.000000
  0.067619  0.117120  0.000000      2.000000
  0.101414  0.136649  0.000000      4.000000
  0.135208  0.156178  0.000000      4.000000
  0.169003  0.175707  0.000000      4.000000
  0.202798  0.195236  0.000000      4.000000
 -0.168942 -0.019581  0.000000      4.000000
 -0.135148 -0.000053  0.000000      4.000000
 -0.101353  0.019476  0.000000      4.000000
 -0.067559  0.039005  0.000000      2.000000
  0.101429  0.175680  0.000000      2.000000
  0.135224  0.195209  0.000000      4.000000
  0.169018  0.214738  0.000000      4.000000
  0.202813  0.234267  0.000000      4.000000
 -0.168927  0.019450  0.000000      4.000000
 -0.135133  0.038979  0.000000      4.000000
 -0.101338  0.058508  0.000000      2.000000
  0.135239  0.234241  0.000000      2.000000
  0.169033  0.253769  0.000000      4.000000
  0.202828  0.273298  0.000000      4.000000
 -0.168912  0.058481  0.000000      4.000000
 -0.135117  0.078010  0.000000      2.000000
  0.169049  0.292801  0.000000      2.000000
  0.202843  0.312329  0.000000      4.000000
 -0.168897  0.097513  0.000000      2.000000
  0.202858  0.351361  0.000000      1.000000
  0.000000  0.000000  0.019233      2.000000
  0.033795  0.019529  0.019233      8.000000
  0.067589  0.039058  0.019233      8.000000
  0.101384  0.058586  0.019233      8.000000
  0.135178  0.078115  0.019233      8.000000
  0.168973  0.097644  0.019233      8.000000
  0.202767  0.117173  0.019233      4.000000
  0.033810  0.058560  0.019233      4.000000
  0.067604  0.078089  0.019233      8.000000
  0.101399  0.097618  0.019233      8.000000
  0.135193  0.117147  0.019233      8.000000
  0.168988  0.136675  0.019233      8.000000
  0.202782  0.156204  0.019233      8.000000
 -0.168957 -0.058613  0.019233      8.000000
 -0.135163 -0.039084  0.019233      8.000000
 -0.101368 -0.019555  0.019233      8.000000
 -0.067574 -0.000026  0.019233      8.000000
 -0.033779  0.019503  0.019233      4.000000
  0.067619  0.117120  0.019233      4.000000
  0.101414  0.136649  0.019233      8.000000
  0.135208  0.156178  0.019233      8.000000
  0.169003  0.175707  0.019233      8.000000
  0.202798  0.195236  0.019233      8.000000
 -0.168942 -0.019581  0.019233      8.000000
 -0.135148 -0.000053  0.019233      8.000000
 -0.101353  0.019476  0.019233      8.000000
 -0.067559  0.039005  0.019233      4.000000
  0.101429  0.175680  0.019233      4.000000
  0.135224  0.195209  0.019233      8.000000
  0.169018  0.214738  0.019233      8.000000
  0.202813  0.234267  0.019233      8.000000
 -0.168927  0.019450  0.019233      8.000000
 -0.135133  0.038979  0.019233      8.000000
 -0.101338  0.058508  0.019233      4.000000
  0.135239  0.234241  0.019233      4.000000
  0.169033  0.253769  0.019233      8.000000
  0.202828  0.273298  0.019233      8.000000
 -0.168912  0.058481  0.019233      8.000000
 -0.135117  0.078010  0.019233      4.000000
  0.169049  0.292801  0.019233      4.000000
  0.202843  0.312329  0.019233      8.000000
 -0.168897  0.097513  0.019233      4.000000
  0.202858  0.351361  0.019233      2.000000
  0.000000  0.000000  0.038467      2.000000
  0.033795  0.019529  0.038467      8.000000
  0.067589  0.039058  0.038467      8.000000
  0.101384  0.058586  0.038467      8.000000
  0.135178  0.078115  0.038467      8.000000
  0.168973  0.097644  0.038467      8.000000
  0.202767  0.117173  0.038467      4.000000
  0.033810  0.058560  0.038467      4.000000
  0.067604  0.078089  0.038467      8.000000
  0.101399  0.097618  0.038467      8.000000
  0.135193  0.117147  0.038467      8.000000
  0.168988  0.136675  0.038467      8.000000
  0.202782  0.156204  0.038467      8.000000
 -0.168957 -0.058613  0.038467      8.000000
 -0.135163 -0.039084  0.038467      8.000000
 -0.101368 -0.019555  0.038467      8.000000
 -0.067574 -0.000026  0.038467      8.000000
 -0.033779  0.019503  0.038467      4.000000
  0.067619  0.117120  0.038467      4.000000
  0.101414  0.136649  0.038467      8.000000
  0.135208  0.156178  0.038467      8.000000
  0.169003  0.175707  0.038467      8.000000
  0.202798  0.195236  0.038467      8.000000
 -0.168942 -0.019581  0.038467      8.000000
 -0.135148 -0.000053  0.038467      8.000000
 -0.101353  0.019476  0.038467      8.000000
 -0.067559  0.039005  0.038467      4.000000
  0.101429  0.175680  0.038467      4.000000
  0.135224  0.195209  0.038467      8.000000
  0.169018  0.214738  0.038467      8.000000
  0.202813  0.234267  0.038467      8.000000
 -0.168927  0.019450  0.038467      8.000000
 -0.135133  0.038979  0.038467      8.000000
 -0.101338  0.058508  0.038467      4.000000
  0.135239  0.234241  0.038467      4.000000
  0.169033  0.253769  0.038467      8.000000
  0.202828  0.273298  0.038467      8.000000
 -0.168912  0.058481  0.038467      8.000000
 -0.135117  0.078010  0.038467      4.000000
  0.169049  0.292801  0.038467      4.000000
  0.202843  0.312329  0.038467      8.000000
 -0.168897  0.097513  0.038467      4.000000
  0.202858  0.351361  0.038467      2.000000
  0.000000  0.000000  0.057700      2.000000
  0.033795  0.019529  0.057700      8.000000
  0.067589  0.039058  0.057700      8.000000
  0.101384  0.058586  0.057700      8.000000
  0.135178  0.078115  0.057700      8.000000
  0.168973  0.097644  0.057700      8.000000
  0.202767  0.117173  0.057700      4.000000
  0.033810  0.058560  0.057700      4.000000
  0.067604  0.078089  0.057700      8.000000
  0.101399  0.097618  0.057700      8.000000
  0.135193  0.117147  0.057700      8.000000
  0.168988  0.136675  0.057700      8.000000
  0.202782  0.156204  0.057700      8.000000
 -0.168957 -0.058613  0.057700      8.000000
 -0.135163 -0.039084  0.057700      8.000000
 -0.101368 -0.019555  0.057700      8.000000
 -0.067574 -0.000026  0.057700      8.000000
 -0.033779  0.019503  0.057700      4.000000
  0.067619  0.117120  0.057700      4.000000
  0.101414  0.136649  0.057700      8.000000
  0.135208  0.156178  0.057700      8.000000
  0.169003  0.175707  0.057700      8.000000
  0.202798  0.195236  0.057700      8.000000
 -0.168942 -0.019581  0.057700      8.000000
 -0.135148 -0.000053  0.057700      8.000000
 -0.101353  0.019476  0.057700      8.000000
 -0.067559  0.039005  0.057700      4.000000
  0.101429  0.175680  0.057700      4.000000
  0.135224  0.195209  0.057700      8.000000
  0.169018  0.214738  0.057700      8.000000
  0.202813  0.234267  0.057700      8.000000
 -0.168927  0.019450  0.057700      8.000000
 -0.135133  0.038979  0.057700      8.000000
 -0.101338  0.058508  0.057700      4.000000
  0.135239  0.234241  0.057700      4.000000
  0.169033  0.253769  0.057700      8.000000
  0.202828  0.273298  0.057700      8.000000
 -0.168912  0.058481  0.057700      8.000000
 -0.135117  0.078010  0.057700      4.000000
  0.169049  0.292801  0.057700      4.000000
  0.202843  0.312329  0.057700      8.000000
 -0.168897  0.097513  0.057700      4.000000
  0.202858  0.351361  0.057700      2.000000
  0.000000  0.000000  0.076934      1.000000
  0.033795  0.019529  0.076934      4.000000
  0.067589  0.039058  0.076934      4.000000
  0.101384  0.058586  0.076934      4.000000
  0.135178  0.078115  0.076934      4.000000
  0.168973  0.097644  0.076934      4.000000
  0.202767  0.117173  0.076934      2.000000
  0.033810  0.058560  0.076934      2.000000
  0.067604  0.078089  0.076934      4.000000
  0.101399  0.097618  0.076934      4.000000
  0.135193  0.117147  0.076934      4.000000
  0.168988  0.136675  0.076934      4.000000
  0.202782  0.156204  0.076934      4.000000
 -0.168957 -0.058613  0.076934      4.000000
 -0.135163 -0.039084  0.076934      4.000000
 -0.101368 -0.019555  0.076934      4.000000
 -0.067574 -0.000026  0.076934      4.000000
 -0.033779  0.019503  0.076934      2.000000
  0.067619  0.117120  0.076934      2.000000
  0.101414  0.136649  0.076934      4.000000
  0.135208  0.156178  0.076934      4.000000
  0.169003  0.175707  0.076934      4.000000
  0.202798  0.195236  0.076934      4.000000
 -0.168942 -0.019581  0.076934      4.000000
 -0.135148 -0.000053  0.076934      4.000000
 -0.101353  0.019476  0.076934      4.000000
 -0.067559  0.039005  0.076934      2.000000
  0.101429  0.175680  0.076934      2.000000
  0.135224  0.195209  0.076934      4.000000
  0.169018  0.214738  0.076934      4.000000
  0.202813  0.234267  0.076934      4.000000
 -0.168927  0.019450  0.076934      4.000000
 -0.135133  0.038979  0.076934      4.000000
 -0.101338  0.058508  0.076934      2.000000
  0.135239  0.234241  0.076934      2.000000
  0.169033  0.253769  0.076934      4.000000
  0.202828  0.273298  0.076934      4.000000
 -0.168912  0.058481  0.076934      4.000000
 -0.135117  0.078010  0.076934      2.000000
  0.169049  0.292801  0.076934      2.000000
  0.202843  0.312329  0.076934      4.000000
 -0.168897  0.097513  0.076934      2.000000
  0.202858  0.351361  0.076934      1.000000
 
 TETIRR: Found   1728 inequivalent tetrahedra from     6912


--------------------------------------------------------------------------------------------------------




 Dimension of arrays:
   k-points           NKPTS =    215   k-points in BZ     NKDIM =    215   number of bands    NBANDS=     12
   number of dos      NEDOS =    301   number of ions     NIONS =      4
   non local maximal  LDIM  =      4   non local SUM 2l+1 LMDIM =      8
   total plane-waves  NPLWV =  34560
   max r-space proj   IRMAX =      1   max aug-charges    IRDMAX=  12115
   dimension x,y,z NGX =    24 NGY =   24 NGZ =   60
   dimension x,y,z NGXF=    48 NGYF=   48 NGZF=  120
   support grid    NGXF=    48 NGYF=   48 NGZF=  120
   ions per type =               4
 NGX,Y,Z   is equivalent  to a cutoff of  16.18, 16.18, 15.35 a.u.
 NGXF,Y,Z  is equivalent  to a cutoff of  32.35, 32.35, 30.70 a.u.


 I would recommend the setting:
   dimension x,y,z NGX =    23 NGY =   23 NGZ =   60
 SYSTEM =  graphite                                
 POSCAR =  CIF file                                

 Startparameter for this run:
   NWRITE =      2    write-flag & timer
   PREC   = accura    normal or accurate (medium, high low for compatibility)
   ISTART =      0    job   : 0-new  1-cont  2-samecut
   ICHARG =      2    charge: 1-file 2-atom 10-const
   ISPIN  =      1    spin polarized calculation?
   LNONCOLLINEAR =      F non collinear calculations
   LSORBIT =      F    spin-orbit coupling
   INIWAV =      1    electr: 0-lowe 1-rand  2-diag
   LASPH  =      F    aspherical Exc in radial PAW
   METAGGA=      F    non-selfconsistent MetaGGA calc.

 Electronic Relaxation 1
   ENCUT  =  800.0 eV  58.80 Ry    7.67 a.u.   5.69  5.69 14.99*2*pi/ulx,y,z
   ENINI  =  800.0     initial cutoff
   ENAUG  =  644.9 eV  augmentation charge cutoff
   NELM   =    200;   NELMIN=  2; NELMDL=  0     # of ELM steps 
   EDIFF  = 0.1E-07   stopping-criterion for ELM
   LREAL  =      F    real-space projection
   NLSPLINE    = F    spline interpolate recip. space projectors
   LCOMPAT=      F    compatible to vasp.4.4
   GGA_COMPAT  = T    GGA compatible to vasp.4.4-vasp.4.6
   LMAXPAW     = -100 max onsite density
   LMAXMIX     =    2 max onsite mixed and CHGCAR
   VOSKOWN=      0    Vosko Wilk Nusair interpolation
   ROPT   =    0.00000
 Ionic relaxation
   EDIFFG = 0.1E-02   stopping-criterion for IOM
   NSW    =    200    number of steps for IOM
   NBLOCK =      1;   KBLOCK =    200    inner block; outer block 
   IBRION =      2    ionic relax: 0-MD 1-quasi-New 2-CG
   NFREE  =      1    steps in history (QN), initial steepest desc. (CG)
   ISIF   =      2    stress and relaxation
   IWAVPR =     11    prediction:  0-non 1-charg 2-wave 3-comb
   ISYM   =      2    0-nonsym 1-usesym 2-fastsym
   LCORR  =      T    Harris-Foulkes like correction to forces

   POTIM  = 0.5000    time-step for ionic-motion
   TEIN   =    0.0    initial temperature
   TEBEG  =    0.0;   TEEND  =   0.0 temperature during run
   SMASS  =  -3.00    Nose mass-parameter (am)
   estimated Nose-frequenzy (Omega)   =  0.10E-29 period in steps =****** mass=  -0.139E-27a.u.
   SCALEE = 1.0000    scale energy and forces
   NPACO  =    256;   APACO  = 16.0  distance and # of slots for P.C.
   PSTRESS=    0.0 pullay stress

  Mass of Ions in am
   POMASS =  12.01
  Ionic Valenz
   ZVAL   =   4.00
  Atomic Wigner-Seitz radii
   RWIGS  =  -1.00
  virtual crystal weights 
   VCA    =   1.00
   NELECT =      16.0000    total number of electrons
   NUPDOWN=      -1.0000    fix difference up-down

 DOS related values:
   EMIN   =  10.00;   EMAX   =-10.00  energy-range for DOS
   EFERMI =   0.00
   ISMEAR =    -5;   SIGMA  =   0.20  broadening in eV -4-tet -1-fermi 0-gaus

 Electronic relaxation 2 (details)
   IALGO  =     38    algorithm
   LDIAG  =      T    sub-space diagonalisation (order eigenvalues)
   LSUBROT=      F    optimize rotation matrix (better conditioning)
   TURBO    =      0    0=normal 1=particle mesh
   IRESTART =      0    0=no restart 2=restart with 2 vectors
   NREBOOT  =      0    no. of reboots
   NMIN     =      0    reboot dimension
   EREF     =   0.00    reference energy to select bands
   IMIX   =      4    mixing-type and parameters
     AMIX     =   0.40;   BMIX     =  1.00
     AMIX_MAG =   1.60;   BMIX_MAG =  1.00
     AMIN     =   0.10
     WC   =   100.;   INIMIX=   1;  MIXPRE=   1;  MAXMIX= -45

 Intra band minimization:
   WEIMIN = 0.0010     energy-eigenvalue tresh-hold
   EBREAK =  0.21E-09  absolut break condition
   DEPER  =   0.30     relativ break condition  

   TIME   =   0.40     timestep for ELM

  volume/ion in A,a.u.               =       8.56        57.74
  Fermi-wavevector in a.u.,A,eV,Ry     =   1.270588  2.401064 21.965176  1.614395
  Thomas-Fermi vector in A             =   2.403568
 
 Write flags
   LWAVE  =      F    write WAVECAR
   LCHARG =      F    write CHGCAR
   LVTOT  =      F    write LOCPOT, total local potential
   LVHAR  =      F    write LOCPOT, Hartree potential only
   LELF   =      F    write electronic localiz. function (ELF)
   LORBIT =      0    0 simple, 1 ext, 2 COOP (PROOUT)


 Dipole corrections
   LMONO  =      F    monopole corrections only (constant potential shift)
   LDIPOL =      F    correct potential (dipole corrections)
   IDIPOL =      0    1-x, 2-y, 3-z, 4-all directions 
   EPSILON=  1.0000000 bulk dielectric constant

 Exchange correlation treatment:
   GGA     =    PE    GGA type
   LEXCH   =     8    internal setting for exchange type
   VOSKOWN=      0    Vosko Wilk Nusair interpolation
   LHFCALC =     F    Hartree Fock is set to
   LHFONE  =     F    Hartree Fock one center treatment
   AEXX    =    0.0000 exact exchange contribution

 Linear response parameters
   LEPSILON=     F    determine dielectric tensor
   LRPA    =     F    only Hartree local field effects (RPA)
   LNABLA  =     F    use nabla operator in PAW spheres
   LVEL    =     F    velocity operator in full k-point grid
   LINTERFAST=   F  fast interpolation
   KINTER  =     0    interpolate to denser k-point grid
   CSHIFT  =0.1000    complex shift for real part using Kramers Kronig
   OMEGAMAX=  -1.0    maximum frequency
   DEG_THRESHOLD= 0.2000000E-02 threshold for treating states as degnerate
   RTIME   =    0.100 relaxation time in fs

 Orbital magnetization related:
   ORBITALMAG=     F  switch on orbital magnetization
   LCHIMAG   =     F  perturbation theory with respect to B field
   DQ        =  0.001000  dq finite difference perturbation B field



--------------------------------------------------------------------------------------------------------


 conjugate gradient relaxation of ions
 charge density and potential will be updated during run
 non-spin polarized calculation
 Variant of blocked Davidson
 Davidson routine will perform the subspace rotation
 perform sub-space diagonalisation
    after iterative eigenvector-optimisation
 modified Broyden-mixing scheme, WC =      100.0
 initial mixing is a Kerker type mixing with AMIX =  0.4000 and BMIX =      1.0000
 Hartree-type preconditioning will be used
 using additional bands            4
 reciprocal scheme for non local part
 calculate Harris-corrections to forces 
   (improved forces if not selfconsistent)
 use gradient corrections 
 use of overlap-Matrix (Vanderbilt PP)
 Fermi weights with tetrahedron method with Bloechl corrections


--------------------------------------------------------------------------------------------------------


  energy-cutoff  :      800.00
  volume of cell :       34.22
      direct lattice vectors                 reciprocal lattice vectors
     2.466437249 -0.000959643  0.000000000     0.405534294  0.234345762  0.000000000
    -1.234049700  2.135517493  0.000000000     0.000182236  0.468375882  0.000000000
     0.000000000  0.000000000  6.499115714     0.000000000  0.000000000  0.153867087

  length of vectors
     2.466437436  2.466437436  6.499115714     0.468375917  0.468375917  0.153867087


 
 k-points in units of 2pi/SCALE and weight: B4C B11C-CBC                            
   0.00000000  0.00000000  0.00000000       0.001
   0.03379452  0.01952881  0.00000000       0.003
   0.06758905  0.03905763  0.00000000       0.003
   0.10138357  0.05858644  0.00000000       0.003
   0.13517810  0.07811525  0.00000000       0.003
   0.16897262  0.09764407  0.00000000       0.003
   0.20276715  0.11717288  0.00000000       0.002
   0.03380971  0.05856014  0.00000000       0.002
   0.06760424  0.07808895  0.00000000       0.003
   0.10139876  0.09761776  0.00000000       0.003
   0.13519328  0.11714658  0.00000000       0.003
   0.16898781  0.13667539  0.00000000       0.003
   0.20278233  0.15620420  0.00000000       0.003
  -0.16895744 -0.05861274  0.00000000       0.003
  -0.13516291 -0.03908393  0.00000000       0.003
  -0.10136839 -0.01955512  0.00000000       0.003
  -0.06757386 -0.00002630  0.00000000       0.003
  -0.03377934  0.01950251  0.00000000       0.002
   0.06761942  0.11712027  0.00000000       0.002
   0.10141395  0.13664909  0.00000000       0.003
   0.13520847  0.15617790  0.00000000       0.003
   0.16900300  0.17570671  0.00000000       0.003
   0.20279752  0.19523553  0.00000000       0.003
  -0.16894225 -0.01958142  0.00000000       0.003
  -0.13514773 -0.00005261  0.00000000       0.003
  -0.10135320  0.01947621  0.00000000       0.003
  -0.06755868  0.03900502  0.00000000       0.002
   0.10142913  0.17568041  0.00000000       0.002
   0.13522366  0.19520922  0.00000000       0.003
   0.16901818  0.21473804  0.00000000       0.003
   0.20281271  0.23426685  0.00000000       0.003
  -0.16892706  0.01944990  0.00000000       0.003
  -0.13513254  0.03897872  0.00000000       0.003
  -0.10133801  0.05850753  0.00000000       0.002
   0.13523884  0.23424055  0.00000000       0.002
   0.16903337  0.25376936  0.00000000       0.003
   0.20282789  0.27329817  0.00000000       0.003
  -0.16891188  0.05848123  0.00000000       0.003
  -0.13511735  0.07801004  0.00000000       0.002
   0.16904855  0.29280068  0.00000000       0.002
   0.20284308  0.31232950  0.00000000       0.003
  -0.16889669  0.09751255  0.00000000       0.002
   0.20285826  0.35136082  0.00000000       0.001
   0.00000000  0.00000000  0.01923339       0.002
   0.03379452  0.01952881  0.01923339       0.007
   0.06758905  0.03905763  0.01923339       0.007
   0.10138357  0.05858644  0.01923339       0.007
   0.13517810  0.07811525  0.01923339       0.007
   0.16897262  0.09764407  0.01923339       0.007
   0.20276715  0.11717288  0.01923339       0.003
   0.03380971  0.05856014  0.01923339       0.003
   0.06760424  0.07808895  0.01923339       0.007
   0.10139876  0.09761776  0.01923339       0.007
   0.13519328  0.11714658  0.01923339       0.007
   0.16898781  0.13667539  0.01923339       0.007
   0.20278233  0.15620420  0.01923339       0.007
  -0.16895744 -0.05861274  0.01923339       0.007
  -0.13516291 -0.03908393  0.01923339       0.007
  -0.10136839 -0.01955512  0.01923339       0.007
  -0.06757386 -0.00002630  0.01923339       0.007
  -0.03377934  0.01950251  0.01923339       0.003
   0.06761942  0.11712027  0.01923339       0.003
   0.10141395  0.13664909  0.01923339       0.007
   0.13520847  0.15617790  0.01923339       0.007
   0.16900300  0.17570671  0.01923339       0.007
   0.20279752  0.19523553  0.01923339       0.007
  -0.16894225 -0.01958142  0.01923339       0.007
  -0.13514773 -0.00005261  0.01923339       0.007
  -0.10135320  0.01947621  0.01923339       0.007
  -0.06755868  0.03900502  0.01923339       0.003
   0.10142913  0.17568041  0.01923339       0.003
   0.13522366  0.19520922  0.01923339       0.007
   0.16901818  0.21473804  0.01923339       0.007
   0.20281271  0.23426685  0.01923339       0.007
  -0.16892706  0.01944990  0.01923339       0.007
  -0.13513254  0.03897872  0.01923339       0.007
  -0.10133801  0.05850753  0.01923339       0.003
   0.13523884  0.23424055  0.01923339       0.003
   0.16903337  0.25376936  0.01923339       0.007
   0.20282789  0.27329817  0.01923339       0.007
  -0.16891188  0.05848123  0.01923339       0.007
  -0.13511735  0.07801004  0.01923339       0.003
   0.16904855  0.29280068  0.01923339       0.003
   0.20284308  0.31232950  0.01923339       0.007
  -0.16889669  0.09751255  0.01923339       0.003
   0.20285826  0.35136082  0.01923339       0.002
   0.00000000  0.00000000  0.03846677       0.002
   0.03379452  0.01952881  0.03846677       0.007
   0.06758905  0.03905763  0.03846677       0.007
   0.10138357  0.05858644  0.03846677       0.007
   0.13517810  0.07811525  0.03846677       0.007
   0.16897262  0.09764407  0.03846677       0.007
   0.20276715  0.11717288  0.03846677       0.003
   0.03380971  0.05856014  0.03846677       0.003
   0.06760424  0.07808895  0.03846677       0.007
   0.10139876  0.09761776  0.03846677       0.007
   0.13519328  0.11714658  0.03846677       0.007
   0.16898781  0.13667539  0.03846677       0.007
   0.20278233  0.15620420  0.03846677       0.007
  -0.16895744 -0.05861274  0.03846677       0.007
  -0.13516291 -0.03908393  0.03846677       0.007
  -0.10136839 -0.01955512  0.03846677       0.007
  -0.06757386 -0.00002630  0.03846677       0.007
  -0.03377934  0.01950251  0.03846677       0.003
   0.06761942  0.11712027  0.03846677       0.003
   0.10141395  0.13664909  0.03846677       0.007
   0.13520847  0.15617790  0.03846677       0.007
   0.16900300  0.17570671  0.03846677       0.007
   0.20279752  0.19523553  0.03846677       0.007
  -0.16894225 -0.01958142  0.03846677       0.007
  -0.13514773 -0.00005261  0.03846677       0.007
  -0.10135320  0.01947621  0.03846677       0.007
  -0.06755868  0.03900502  0.03846677       0.003
   0.10142913  0.17568041  0.03846677       0.003
   0.13522366  0.19520922  0.03846677       0.007
   0.16901818  0.21473804  0.03846677       0.007
   0.20281271  0.23426685  0.03846677       0.007
  -0.16892706  0.01944990  0.03846677       0.007
  -0.13513254  0.03897872  0.03846677       0.007
  -0.10133801  0.05850753  0.03846677       0.003
   0.13523884  0.23424055  0.03846677       0.003
   0.16903337  0.25376936  0.03846677       0.007
   0.20282789  0.27329817  0.03846677       0.007
  -0.16891188  0.05848123  0.03846677       0.007
  -0.13511735  0.07801004  0.03846677       0.003
   0.16904855  0.29280068  0.03846677       0.003
   0.20284308  0.31232950  0.03846677       0.007
  -0.16889669  0.09751255  0.03846677       0.003
   0.20285826  0.35136082  0.03846677       0.002
   0.00000000  0.00000000  0.05770016       0.002
   0.03379452  0.01952881  0.05770016       0.007
   0.06758905  0.03905763  0.05770016       0.007
   0.10138357  0.05858644  0.05770016       0.007
   0.13517810  0.07811525  0.05770016       0.007
   0.16897262  0.09764407  0.05770016       0.007
   0.20276715  0.11717288  0.05770016       0.003
   0.03380971  0.05856014  0.05770016       0.003
   0.06760424  0.07808895  0.05770016       0.007
   0.10139876  0.09761776  0.05770016       0.007
   0.13519328  0.11714658  0.05770016       0.007
   0.16898781  0.13667539  0.05770016       0.007
   0.20278233  0.15620420  0.05770016       0.007
  -0.16895744 -0.05861274  0.05770016       0.007
  -0.13516291 -0.03908393  0.05770016       0.007
  -0.10136839 -0.01955512  0.05770016       0.007
  -0.06757386 -0.00002630  0.05770016       0.007
  -0.03377934  0.01950251  0.05770016       0.003
   0.06761942  0.11712027  0.05770016       0.003
   0.10141395  0.13664909  0.05770016       0.007
   0.13520847  0.15617790  0.05770016       0.007
   0.16900300  0.17570671  0.05770016       0.007
   0.20279752  0.19523553  0.05770016       0.007
  -0.16894225 -0.01958142  0.05770016       0.007
  -0.13514773 -0.00005261  0.05770016       0.007
  -0.10135320  0.01947621  0.05770016       0.007
  -0.06755868  0.03900502  0.05770016       0.003
   0.10142913  0.17568041  0.05770016       0.003
   0.13522366  0.19520922  0.05770016       0.007
   0.16901818  0.21473804  0.05770016       0.007
   0.20281271  0.23426685  0.05770016       0.007
  -0.16892706  0.01944990  0.05770016       0.007
  -0.13513254  0.03897872  0.05770016       0.007
  -0.10133801  0.05850753  0.05770016       0.003
   0.13523884  0.23424055  0.05770016       0.003
   0.16903337  0.25376936  0.05770016       0.007
   0.20282789  0.27329817  0.05770016       0.007
  -0.16891188  0.05848123  0.05770016       0.007
  -0.13511735  0.07801004  0.05770016       0.003
   0.16904855  0.29280068  0.05770016       0.003
   0.20284308  0.31232950  0.05770016       0.007
  -0.16889669  0.09751255  0.05770016       0.003
   0.20285826  0.35136082  0.05770016       0.002
   0.00000000  0.00000000  0.07693354       0.001
   0.03379452  0.01952881  0.07693354       0.003
   0.06758905  0.03905763  0.07693354       0.003
   0.10138357  0.05858644  0.07693354       0.003
   0.13517810  0.07811525  0.07693354       0.003
   0.16897262  0.09764407  0.07693354       0.003
   0.20276715  0.11717288  0.07693354       0.002
   0.03380971  0.05856014  0.07693354       0.002
   0.06760424  0.07808895  0.07693354       0.003
   0.10139876  0.09761776  0.07693354       0.003
   0.13519328  0.11714658  0.07693354       0.003
   0.16898781  0.13667539  0.07693354       0.003
   0.20278233  0.15620420  0.07693354       0.003
  -0.16895744 -0.05861274  0.07693354       0.003
  -0.13516291 -0.03908393  0.07693354       0.003
  -0.10136839 -0.01955512  0.07693354       0.003
  -0.06757386 -0.00002630  0.07693354       0.003
  -0.03377934  0.01950251  0.07693354       0.002
   0.06761942  0.11712027  0.07693354       0.002
   0.10141395  0.13664909  0.07693354       0.003
   0.13520847  0.15617790  0.07693354       0.003
   0.16900300  0.17570671  0.07693354       0.003
   0.20279752  0.19523553  0.07693354       0.003
  -0.16894225 -0.01958142  0.07693354       0.003
  -0.13514773 -0.00005261  0.07693354       0.003
  -0.10135320  0.01947621  0.07693354       0.003
  -0.06755868  0.03900502  0.07693354       0.002
   0.10142913  0.17568041  0.07693354       0.002
   0.13522366  0.19520922  0.07693354       0.003
   0.16901818  0.21473804  0.07693354       0.003
   0.20281271  0.23426685  0.07693354       0.003
  -0.16892706  0.01944990  0.07693354       0.003
  -0.13513254  0.03897872  0.07693354       0.003
  -0.10133801  0.05850753  0.07693354       0.002
   0.13523884  0.23424055  0.07693354       0.002
   0.16903337  0.25376936  0.07693354       0.003
   0.20282789  0.27329817  0.07693354       0.003
  -0.16891188  0.05848123  0.07693354       0.003
  -0.13511735  0.07801004  0.07693354       0.002
   0.16904855  0.29280068  0.07693354       0.002
   0.20284308  0.31232950  0.07693354       0.003
  -0.16889669  0.09751255  0.07693354       0.002
   0.20285826  0.35136082  0.07693354       0.001
 
 k-points in reciprocal lattice and weights: B4C B11C-CBC                            
   0.00000000  0.00000000  0.00000000       0.001
   0.08333333  0.00000000  0.00000000       0.003
   0.16666667  0.00000000  0.00000000       0.003
   0.25000000  0.00000000  0.00000000       0.003
   0.33333333  0.00000000  0.00000000       0.003
   0.41666667  0.00000000  0.00000000       0.003
   0.50000000  0.00000000  0.00000000       0.002
   0.08333333  0.08333333  0.00000000       0.002
   0.16666667  0.08333333  0.00000000       0.003
   0.25000000  0.08333333  0.00000000       0.003
   0.33333333  0.08333333  0.00000000       0.003
   0.41666667  0.08333333  0.00000000       0.003
   0.50000000  0.08333333  0.00000000       0.003
  -0.41666667  0.08333333  0.00000000       0.003
  -0.33333333  0.08333333  0.00000000       0.003
  -0.25000000  0.08333333  0.00000000       0.003
  -0.16666667  0.08333333  0.00000000       0.003
  -0.08333333  0.08333333  0.00000000       0.002
   0.16666667  0.16666667  0.00000000       0.002
   0.25000000  0.16666667  0.00000000       0.003
   0.33333333  0.16666667  0.00000000       0.003
   0.41666667  0.16666667  0.00000000       0.003
   0.50000000  0.16666667  0.00000000       0.003
  -0.41666667  0.16666667  0.00000000       0.003
  -0.33333333  0.16666667  0.00000000       0.003
  -0.25000000  0.16666667  0.00000000       0.003
  -0.16666667  0.16666667  0.00000000       0.002
   0.25000000  0.25000000  0.00000000       0.002
   0.33333333  0.25000000  0.00000000       0.003
   0.41666667  0.25000000  0.00000000       0.003
   0.50000000  0.25000000  0.00000000       0.003
  -0.41666667  0.25000000  0.00000000       0.003
  -0.33333333  0.25000000  0.00000000       0.003
  -0.25000000  0.25000000  0.00000000       0.002
   0.33333333  0.33333333  0.00000000       0.002
   0.41666667  0.33333333  0.00000000       0.003
   0.50000000  0.33333333  0.00000000       0.003
  -0.41666667  0.33333333  0.00000000       0.003
  -0.33333333  0.33333333  0.00000000       0.002
   0.41666667  0.41666667  0.00000000       0.002
   0.50000000  0.41666667  0.00000000       0.003
  -0.41666667  0.41666667  0.00000000       0.002
   0.50000000  0.50000000  0.00000000       0.001
   0.00000000  0.00000000  0.12500000       0.002
   0.08333333  0.00000000  0.12500000       0.007
   0.16666667  0.00000000  0.12500000       0.007
   0.25000000  0.00000000  0.12500000       0.007
   0.33333333  0.00000000  0.12500000       0.007
   0.41666667  0.00000000  0.12500000       0.007
   0.50000000  0.00000000  0.12500000       0.003
   0.08333333  0.08333333  0.12500000       0.003
   0.16666667  0.08333333  0.12500000       0.007
   0.25000000  0.08333333  0.12500000       0.007
   0.33333333  0.08333333  0.12500000       0.007
   0.41666667  0.08333333  0.12500000       0.007
   0.50000000  0.08333333  0.12500000       0.007
  -0.41666667  0.08333333  0.12500000       0.007
  -0.33333333  0.08333333  0.12500000       0.007
  -0.25000000  0.08333333  0.12500000       0.007
  -0.16666667  0.08333333  0.12500000       0.007
  -0.08333333  0.08333333  0.12500000       0.003
   0.16666667  0.16666667  0.12500000       0.003
   0.25000000  0.16666667  0.12500000       0.007
   0.33333333  0.16666667  0.12500000       0.007
   0.41666667  0.16666667  0.12500000       0.007
   0.50000000  0.16666667  0.12500000       0.007
  -0.41666667  0.16666667  0.12500000       0.007
  -0.33333333  0.16666667  0.12500000       0.007
  -0.25000000  0.16666667  0.12500000       0.007
  -0.16666667  0.16666667  0.12500000       0.003
   0.25000000  0.25000000  0.12500000       0.003
   0.33333333  0.25000000  0.12500000       0.007
   0.41666667  0.25000000  0.12500000       0.007
   0.50000000  0.25000000  0.12500000       0.007
  -0.41666667  0.25000000  0.12500000       0.007
  -0.33333333  0.25000000  0.12500000       0.007
  -0.25000000  0.25000000  0.12500000       0.003
   0.33333333  0.33333333  0.12500000       0.003
   0.41666667  0.33333333  0.12500000       0.007
   0.50000000  0.33333333  0.12500000       0.007
  -0.41666667  0.33333333  0.12500000       0.007
  -0.33333333  0.33333333  0.12500000       0.003
   0.41666667  0.41666667  0.12500000       0.003
   0.50000000  0.41666667  0.12500000       0.007
  -0.41666667  0.41666667  0.12500000       0.003
   0.50000000  0.50000000  0.12500000       0.002
   0.00000000  0.00000000  0.25000000       0.002
   0.08333333  0.00000000  0.25000000       0.007
   0.16666667  0.00000000  0.25000000       0.007
   0.25000000  0.00000000  0.25000000       0.007
   0.33333333  0.00000000  0.25000000       0.007
   0.41666667  0.00000000  0.25000000       0.007
   0.50000000  0.00000000  0.25000000       0.003
   0.08333333  0.08333333  0.25000000       0.003
   0.16666667  0.08333333  0.25000000       0.007
   0.25000000  0.08333333  0.25000000       0.007
   0.33333333  0.08333333  0.25000000       0.007
   0.41666667  0.08333333  0.25000000       0.007
   0.50000000  0.08333333  0.25000000       0.007
  -0.41666667  0.08333333  0.25000000       0.007
  -0.33333333  0.08333333  0.25000000       0.007
  -0.25000000  0.08333333  0.25000000       0.007
  -0.16666667  0.08333333  0.25000000       0.007
  -0.08333333  0.08333333  0.25000000       0.003
   0.16666667  0.16666667  0.25000000       0.003
   0.25000000  0.16666667  0.25000000       0.007
   0.33333333  0.16666667  0.25000000       0.007
   0.41666667  0.16666667  0.25000000       0.007
   0.50000000  0.16666667  0.25000000       0.007
  -0.41666667  0.16666667  0.25000000       0.007
  -0.33333333  0.16666667  0.25000000       0.007
  -0.25000000  0.16666667  0.25000000       0.007
  -0.16666667  0.16666667  0.25000000       0.003
   0.25000000  0.25000000  0.25000000       0.003
   0.33333333  0.25000000  0.25000000       0.007
   0.41666667  0.25000000  0.25000000       0.007
   0.50000000  0.25000000  0.25000000       0.007
  -0.41666667  0.25000000  0.25000000       0.007
  -0.33333333  0.25000000  0.25000000       0.007
  -0.25000000  0.25000000  0.25000000       0.003
   0.33333333  0.33333333  0.25000000       0.003
   0.41666667  0.33333333  0.25000000       0.007
   0.50000000  0.33333333  0.25000000       0.007
  -0.41666667  0.33333333  0.25000000       0.007
  -0.33333333  0.33333333  0.25000000       0.003
   0.41666667  0.41666667  0.25000000       0.003
   0.50000000  0.41666667  0.25000000       0.007
  -0.41666667  0.41666667  0.25000000       0.003
   0.50000000  0.50000000  0.25000000       0.002
   0.00000000  0.00000000  0.37500000       0.002
   0.08333333  0.00000000  0.37500000       0.007
   0.16666667  0.00000000  0.37500000       0.007
   0.25000000  0.00000000  0.37500000       0.007
   0.33333333  0.00000000  0.37500000       0.007
   0.41666667  0.00000000  0.37500000       0.007
   0.50000000  0.00000000  0.37500000       0.003
   0.08333333  0.08333333  0.37500000       0.003
   0.16666667  0.08333333  0.37500000       0.007
   0.25000000  0.08333333  0.37500000       0.007
   0.33333333  0.08333333  0.37500000       0.007
   0.41666667  0.08333333  0.37500000       0.007
   0.50000000  0.08333333  0.37500000       0.007
  -0.41666667  0.08333333  0.37500000       0.007
  -0.33333333  0.08333333  0.37500000       0.007
  -0.25000000  0.08333333  0.37500000       0.007
  -0.16666667  0.08333333  0.37500000       0.007
  -0.08333333  0.08333333  0.37500000       0.003
   0.16666667  0.16666667  0.37500000       0.003
   0.25000000  0.16666667  0.37500000       0.007
   0.33333333  0.16666667  0.37500000       0.007
   0.41666667  0.16666667  0.37500000       0.007
   0.50000000  0.16666667  0.37500000       0.007
  -0.41666667  0.16666667  0.37500000       0.007
  -0.33333333  0.16666667  0.37500000       0.007
  -0.25000000  0.16666667  0.37500000       0.007
  -0.16666667  0.16666667  0.37500000       0.003
   0.25000000  0.25000000  0.37500000       0.003
   0.33333333  0.25000000  0.37500000       0.007
   0.41666667  0.25000000  0.37500000       0.007
   0.50000000  0.25000000  0.37500000       0.007
  -0.41666667  0.25000000  0.37500000       0.007
  -0.33333333  0.25000000  0.37500000       0.007
  -0.25000000  0.25000000  0.37500000       0.003
   0.33333333  0.33333333  0.37500000       0.003
   0.41666667  0.33333333  0.37500000       0.007
   0.50000000  0.33333333  0.37500000       0.007
  -0.41666667  0.33333333  0.37500000       0.007
  -0.33333333  0.33333333  0.37500000       0.003
   0.41666667  0.41666667  0.37500000       0.003
   0.50000000  0.41666667  0.37500000       0.007
  -0.41666667  0.41666667  0.37500000       0.003
   0.50000000  0.50000000  0.37500000       0.002
   0.00000000  0.00000000  0.50000000       0.001
   0.08333333  0.00000000  0.50000000       0.003
   0.16666667  0.00000000  0.50000000       0.003
   0.25000000  0.00000000  0.50000000       0.003
   0.33333333  0.00000000  0.50000000       0.003
   0.41666667  0.00000000  0.50000000       0.003
   0.50000000  0.00000000  0.50000000       0.002
   0.08333333  0.08333333  0.50000000       0.002
   0.16666667  0.08333333  0.50000000       0.003
   0.25000000  0.08333333  0.50000000       0.003
   0.33333333  0.08333333  0.50000000       0.003
   0.41666667  0.08333333  0.50000000       0.003
   0.50000000  0.08333333  0.50000000       0.003
  -0.41666667  0.08333333  0.50000000       0.003
  -0.33333333  0.08333333  0.50000000       0.003
  -0.25000000  0.08333333  0.50000000       0.003
  -0.16666667  0.08333333  0.50000000       0.003
  -0.08333333  0.08333333  0.50000000       0.002
   0.16666667  0.16666667  0.50000000       0.002
   0.25000000  0.16666667  0.50000000       0.003
   0.33333333  0.16666667  0.50000000       0.003
   0.41666667  0.16666667  0.50000000       0.003
   0.50000000  0.16666667  0.50000000       0.003
  -0.41666667  0.16666667  0.50000000       0.003
  -0.33333333  0.16666667  0.50000000       0.003
  -0.25000000  0.16666667  0.50000000       0.003
  -0.16666667  0.16666667  0.50000000       0.002
   0.25000000  0.25000000  0.50000000       0.002
   0.33333333  0.25000000  0.50000000       0.003
   0.41666667  0.25000000  0.50000000       0.003
   0.50000000  0.25000000  0.50000000       0.003
  -0.41666667  0.25000000  0.50000000       0.003
  -0.33333333  0.25000000  0.50000000       0.003
  -0.25000000  0.25000000  0.50000000       0.002
   0.33333333  0.33333333  0.50000000       0.002
   0.41666667  0.33333333  0.50000000       0.003
   0.50000000  0.33333333  0.50000000       0.003
  -0.41666667  0.33333333  0.50000000       0.003
  -0.33333333  0.33333333  0.50000000       0.002
   0.41666667  0.41666667  0.50000000       0.002
   0.50000000  0.41666667  0.50000000       0.003
  -0.41666667  0.41666667  0.50000000       0.002
   0.50000000  0.50000000  0.50000000       0.001
 
 position of ions in fractional coordinates (direct lattice) 
   0.99934661  0.00065344  0.25000000
   0.00065344  0.99934661  0.75000000
   0.33258492  0.66741506  0.25000000
   0.66741506  0.33258492  0.75000000
 
 position of ions in cartesian coordinates  (Angst):
   2.46401933  0.00043641  1.62477893
  -1.23163172  2.13412154  4.87433679
  -0.00332350  1.42495737  1.62477893
   1.23571103  0.70960044  4.87433679
 


--------------------------------------------------------------------------------------------------------


 k-point  1 :   0.0000 0.0000 0.0000  plane waves:    1745
 k-point  2 :   0.0833 0.0000 0.0000  plane waves:    1754
 k-point  3 :   0.1667 0.0000 0.0000  plane waves:    1760
 k-point  4 :   0.2500 0.0000 0.0000  plane waves:    1766
 k-point  5 :   0.3333 0.0000 0.0000  plane waves:    1764
 k-point  6 :   0.4167 0.0000 0.0000  plane waves:    1762
 k-point  7 :   0.5000 0.0000 0.0000  plane waves:    1758
 k-point  8 :   0.0833 0.0833 0.0000  plane waves:    1763
 k-point  9 :   0.1667 0.0833 0.0000  plane waves:    1755
 k-point 10 :   0.2500 0.0833 0.0000  plane waves:    1767
 k-point 11 :   0.3333 0.0833 0.0000  plane waves:    1753
 k-point 12 :   0.4167 0.0833 0.0000  plane waves:    1756
 k-point 13 :   0.5000 0.0833 0.0000  plane waves:    1754
 k-point 14 :  -0.4167 0.0833 0.0000  plane waves:    1753
 k-point 15 :  -0.3333 0.0833 0.0000  plane waves:    1766
 k-point 16 :  -0.2500 0.0833 0.0000  plane waves:    1755
 k-point 17 :  -0.1667 0.0833 0.0000  plane waves:    1763
 k-point 18 :  -0.0833 0.0833 0.0000  plane waves:    1754
 k-point 19 :   0.1667 0.1667 0.0000  plane waves:    1756
 k-point 20 :   0.2500 0.1667 0.0000  plane waves:    1751
 k-point 21 :   0.3333 0.1667 0.0000  plane waves:    1752
 k-point 22 :   0.4167 0.1667 0.0000  plane waves:    1766
 k-point 23 :   0.5000 0.1667 0.0000  plane waves:    1752
 k-point 24 :  -0.4167 0.1667 0.0000  plane waves:    1751
 k-point 25 :  -0.3333 0.1667 0.0000  plane waves:    1756
 k-point 26 :  -0.2500 0.1667 0.0000  plane waves:    1755
 k-point 27 :  -0.1667 0.1667 0.0000  plane waves:    1766
 k-point 28 :   0.2500 0.2500 0.0000  plane waves:    1752
 k-point 29 :   0.3333 0.2500 0.0000  plane waves:    1745
 k-point 30 :   0.4167 0.2500 0.0000  plane waves:    1744
 k-point 31 :   0.5000 0.2500 0.0000  plane waves:    1752
 k-point 32 :  -0.4167 0.2500 0.0000  plane waves:    1753
 k-point 33 :  -0.3333 0.2500 0.0000  plane waves:    1768
 k-point 34 :  -0.2500 0.2500 0.0000  plane waves:    1762
 k-point 35 :   0.3333 0.3333 0.0000  plane waves:    1748
 k-point 36 :   0.4167 0.3333 0.0000  plane waves:    1745
 k-point 37 :   0.5000 0.3333 0.0000  plane waves:    1750
 k-point 38 :  -0.4167 0.3333 0.0000  plane waves:    1755
 k-point 39 :  -0.3333 0.3333 0.0000  plane waves:    1764
 k-point 40 :   0.4167 0.4167 0.0000  plane waves:    1768
 k-point 41 :   0.5000 0.4167 0.0000  plane waves:    1754
 k-point 42 :  -0.4167 0.4167 0.0000  plane waves:    1762
 k-point 43 :   0.5000 0.5000 0.0000  plane waves:    1760
 k-point 44 :   0.0000 0.0000 0.1250  plane waves:    1758
 k-point 45 :   0.0833 0.0000 0.1250  plane waves:    1753
 k-point 46 :   0.1667 0.0000 0.1250  plane waves:    1755
 k-point 47 :   0.2500 0.0000 0.1250  plane waves:    1765
 k-point 48 :   0.3333 0.0000 0.1250  plane waves:    1763
 k-point 49 :   0.4167 0.0000 0.1250  plane waves:    1765
 k-point 50 :   0.5000 0.0000 0.1250  plane waves:    1762
 k-point 51 :   0.0833 0.0833 0.1250  plane waves:    1761
 k-point 52 :   0.1667 0.0833 0.1250  plane waves:    1761
 k-point 53 :   0.2500 0.0833 0.1250  plane waves:    1763
 k-point 54 :   0.3333 0.0833 0.1250  plane waves:    1753
 k-point 55 :   0.4167 0.0833 0.1250  plane waves:    1760
 k-point 56 :   0.5000 0.0833 0.1250  plane waves:    1760
 k-point 57 :  -0.4167 0.0833 0.1250  plane waves:    1754
 k-point 58 :  -0.3333 0.0833 0.1250  plane waves:    1764
 k-point 59 :  -0.2500 0.0833 0.1250  plane waves:    1763
 k-point 60 :  -0.1667 0.0833 0.1250  plane waves:    1762
 k-point 61 :  -0.0833 0.0833 0.1250  plane waves:    1754
 k-point 62 :   0.1667 0.1667 0.1250  plane waves:    1761
 k-point 63 :   0.2500 0.1667 0.1250  plane waves:    1754
 k-point 64 :   0.3333 0.1667 0.1250  plane waves:    1754
 k-point 65 :   0.4167 0.1667 0.1250  plane waves:    1758
 k-point 66 :   0.5000 0.1667 0.1250  plane waves:    1755
 k-point 67 :  -0.4167 0.1667 0.1250  plane waves:    1755
 k-point 68 :  -0.3333 0.1667 0.1250  plane waves:    1761
 k-point 69 :  -0.2500 0.1667 0.1250  plane waves:    1762
 k-point 70 :  -0.1667 0.1667 0.1250  plane waves:    1754
 k-point 71 :   0.2500 0.2500 0.1250  plane waves:    1743
 k-point 72 :   0.3333 0.2500 0.1250  plane waves:    1751
 k-point 73 :   0.4167 0.2500 0.1250  plane waves:    1751
 k-point 74 :   0.5000 0.2500 0.1250  plane waves:    1746
 k-point 75 :  -0.4167 0.2500 0.1250  plane waves:    1754
 k-point 76 :  -0.3333 0.2500 0.1250  plane waves:    1764
 k-point 77 :  -0.2500 0.2500 0.1250  plane waves:    1765
 k-point 78 :   0.3333 0.3333 0.1250  plane waves:    1749
 k-point 79 :   0.4167 0.3333 0.1250  plane waves:    1752
 k-point 80 :   0.5000 0.3333 0.1250  plane waves:    1755
 k-point 81 :  -0.4167 0.3333 0.1250  plane waves:    1753
 k-point 82 :  -0.3333 0.3333 0.1250  plane waves:    1764
 k-point 83 :   0.4167 0.4167 0.1250  plane waves:    1758
 k-point 84 :   0.5000 0.4167 0.1250  plane waves:    1761
 k-point 85 :  -0.4167 0.4167 0.1250  plane waves:    1765
 k-point 86 :   0.5000 0.5000 0.1250  plane waves:    1766
 k-point 87 :   0.0000 0.0000 0.2500  plane waves:    1748
 k-point 88 :   0.0833 0.0000 0.2500  plane waves:    1765
 k-point 89 :   0.1667 0.0000 0.2500  plane waves:    1763
 k-point 90 :   0.2500 0.0000 0.2500  plane waves:    1762
 k-point 91 :   0.3333 0.0000 0.2500  plane waves:    1756
 k-point 92 :   0.4167 0.0000 0.2500  plane waves:    1765
 k-point 93 :   0.5000 0.0000 0.2500  plane waves:    1762
 k-point 94 :   0.0833 0.0833 0.2500  plane waves:    1762
 k-point 95 :   0.1667 0.0833 0.2500  plane waves:    1770
 k-point 96 :   0.2500 0.0833 0.2500  plane waves:    1761
 k-point 97 :   0.3333 0.0833 0.2500  plane waves:    1756
 k-point 98 :   0.4167 0.0833 0.2500  plane waves:    1766
 k-point 99 :   0.5000 0.0833 0.2500  plane waves:    1767
 k-point ** :  -0.4167 0.0833 0.2500  plane waves:    1755
 k-point ** :  -0.3333 0.0833 0.2500  plane waves:    1758
 k-point ** :  -0.2500 0.0833 0.2500  plane waves:    1770
 k-point ** :  -0.1667 0.0833 0.2500  plane waves:    1764
 k-point ** :  -0.0833 0.0833 0.2500  plane waves:    1765
 k-point ** :   0.1667 0.1667 0.2500  plane waves:    1762
 k-point ** :   0.2500 0.1667 0.2500  plane waves:    1748
 k-point ** :   0.3333 0.1667 0.2500  plane waves:    1754
 k-point ** :   0.4167 0.1667 0.2500  plane waves:    1762
 k-point ** :   0.5000 0.1667 0.2500  plane waves:    1754
 k-point ** :  -0.4167 0.1667 0.2500  plane waves:    1751
 k-point ** :  -0.3333 0.1667 0.2500  plane waves:    1764
 k-point ** :  -0.2500 0.1667 0.2500  plane waves:    1769
 k-point ** :  -0.1667 0.1667 0.2500  plane waves:    1763
 k-point ** :   0.2500 0.2500 0.2500  plane waves:    1752
 k-point ** :   0.3333 0.2500 0.2500  plane waves:    1752
 k-point ** :   0.4167 0.2500 0.2500  plane waves:    1751
 k-point ** :   0.5000 0.2500 0.2500  plane waves:    1750
 k-point ** :  -0.4167 0.2500 0.2500  plane waves:    1751
 k-point ** :  -0.3333 0.2500 0.2500  plane waves:    1762
 k-point ** :  -0.2500 0.2500 0.2500  plane waves:    1760
 k-point ** :   0.3333 0.3333 0.2500  plane waves:    1734
 k-point ** :   0.4167 0.3333 0.2500  plane waves:    1750
 k-point ** :   0.5000 0.3333 0.2500  plane waves:    1752
 k-point ** :  -0.4167 0.3333 0.2500  plane waves:    1756
 k-point ** :  -0.3333 0.3333 0.2500  plane waves:    1756
 k-point ** :   0.4167 0.4167 0.2500  plane waves:    1760
 k-point ** :   0.5000 0.4167 0.2500  plane waves:    1765
 k-point ** :  -0.4167 0.4167 0.2500  plane waves:    1766
 k-point ** :   0.5000 0.5000 0.2500  plane waves:    1758
 k-point ** :   0.0000 0.0000 0.3750  plane waves:    1782
 k-point ** :   0.0833 0.0000 0.3750  plane waves:    1773
 k-point ** :   0.1667 0.0000 0.3750  plane waves:    1771
 k-point ** :   0.2500 0.0000 0.3750  plane waves:    1765
 k-point ** :   0.3333 0.0000 0.3750  plane waves:    1759
 k-point ** :   0.4167 0.0000 0.3750  plane waves:    1759
 k-point ** :   0.5000 0.0000 0.3750  plane waves:    1758
 k-point ** :   0.0833 0.0833 0.3750  plane waves:    1770
 k-point ** :   0.1667 0.0833 0.3750  plane waves:    1770
 k-point ** :   0.2500 0.0833 0.3750  plane waves:    1759
 k-point ** :   0.3333 0.0833 0.3750  plane waves:    1760
 k-point ** :   0.4167 0.0833 0.3750  plane waves:    1765
 k-point ** :   0.5000 0.0833 0.3750  plane waves:    1765
 k-point ** :  -0.4167 0.0833 0.3750  plane waves:    1761
 k-point ** :  -0.3333 0.0833 0.3750  plane waves:    1758
 k-point ** :  -0.2500 0.0833 0.3750  plane waves:    1768
 k-point ** :  -0.1667 0.0833 0.3750  plane waves:    1769
 k-point ** :  -0.0833 0.0833 0.3750  plane waves:    1773
 k-point ** :   0.1667 0.1667 0.3750  plane waves:    1765
 k-point ** :   0.2500 0.1667 0.3750  plane waves:    1751
 k-point ** :   0.3333 0.1667 0.3750  plane waves:    1752
 k-point ** :   0.4167 0.1667 0.3750  plane waves:    1758
 k-point ** :   0.5000 0.1667 0.3750  plane waves:    1752
 k-point ** :  -0.4167 0.1667 0.3750  plane waves:    1750
 k-point ** :  -0.3333 0.1667 0.3750  plane waves:    1765
 k-point ** :  -0.2500 0.1667 0.3750  plane waves:    1769
 k-point ** :  -0.1667 0.1667 0.3750  plane waves:    1772
 k-point ** :   0.2500 0.2500 0.3750  plane waves:    1760
 k-point ** :   0.3333 0.2500 0.3750  plane waves:    1744
 k-point ** :   0.4167 0.2500 0.3750  plane waves:    1743
 k-point ** :   0.5000 0.2500 0.3750  plane waves:    1761
 k-point ** :  -0.4167 0.2500 0.3750  plane waves:    1751
 k-point ** :  -0.3333 0.2500 0.3750  plane waves:    1758
 k-point ** :  -0.2500 0.2500 0.3750  plane waves:    1763
 k-point ** :   0.3333 0.3333 0.3750  plane waves:    1728
 k-point ** :   0.4167 0.3333 0.3750  plane waves:    1745
 k-point ** :   0.5000 0.3333 0.3750  plane waves:    1755
 k-point ** :  -0.4167 0.3333 0.3750  plane waves:    1760
 k-point ** :  -0.3333 0.3333 0.3750  plane waves:    1758
 k-point ** :   0.4167 0.4167 0.3750  plane waves:    1759
 k-point ** :   0.5000 0.4167 0.3750  plane waves:    1766
 k-point ** :  -0.4167 0.4167 0.3750  plane waves:    1759
 k-point ** :   0.5000 0.5000 0.3750  plane waves:    1754
 k-point ** :   0.0000 0.0000 0.5000  plane waves:    1778
 k-point ** :   0.0833 0.0000 0.5000  plane waves:    1774
 k-point ** :   0.1667 0.0000 0.5000  plane waves:    1778
 k-point ** :   0.2500 0.0000 0.5000  plane waves:    1772
 k-point ** :   0.3333 0.0000 0.5000  plane waves:    1752
 k-point ** :   0.4167 0.0000 0.5000  plane waves:    1760
 k-point ** :   0.5000 0.0000 0.5000  plane waves:    1752
 k-point ** :   0.0833 0.0833 0.5000  plane waves:    1772
 k-point ** :   0.1667 0.0833 0.5000  plane waves:    1766
 k-point ** :   0.2500 0.0833 0.5000  plane waves:    1756
 k-point ** :   0.3333 0.0833 0.5000  plane waves:    1762
 k-point ** :   0.4167 0.0833 0.5000  plane waves:    1764
 k-point ** :   0.5000 0.0833 0.5000  plane waves:    1764
 k-point ** :  -0.4167 0.0833 0.5000  plane waves:    1762
 k-point ** :  -0.3333 0.0833 0.5000  plane waves:    1756
 k-point ** :  -0.2500 0.0833 0.5000  plane waves:    1766
 k-point ** :  -0.1667 0.0833 0.5000  plane waves:    1772
 k-point ** :  -0.0833 0.0833 0.5000  plane waves:    1774
 k-point ** :   0.1667 0.1667 0.5000  plane waves:    1754
 k-point ** :   0.2500 0.1667 0.5000  plane waves:    1752
 k-point ** :   0.3333 0.1667 0.5000  plane waves:    1754
 k-point ** :   0.4167 0.1667 0.5000  plane waves:    1756
 k-point ** :   0.5000 0.1667 0.5000  plane waves:    1752
 k-point ** :  -0.4167 0.1667 0.5000  plane waves:    1750
 k-point ** :  -0.3333 0.1667 0.5000  plane waves:    1756
 k-point ** :  -0.2500 0.1667 0.5000  plane waves:    1766
 k-point ** :  -0.1667 0.1667 0.5000  plane waves:    1778
 k-point ** :   0.2500 0.2500 0.5000  plane waves:    1750
 k-point ** :   0.3333 0.2500 0.5000  plane waves:    1750
 k-point ** :   0.4167 0.2500 0.5000  plane waves:    1754
 k-point ** :   0.5000 0.2500 0.5000  plane waves:    1756
 k-point ** :  -0.4167 0.2500 0.5000  plane waves:    1748
 k-point ** :  -0.3333 0.2500 0.5000  plane waves:    1756
 k-point ** :  -0.2500 0.2500 0.5000  plane waves:    1772
 k-point ** :   0.3333 0.3333 0.5000  plane waves:    1758
 k-point ** :   0.4167 0.3333 0.5000  plane waves:    1752
 k-point ** :   0.5000 0.3333 0.5000  plane waves:    1752
 k-point ** :  -0.4167 0.3333 0.5000  plane waves:    1762
 k-point ** :  -0.3333 0.3333 0.5000  plane waves:    1754
 k-point ** :   0.4167 0.4167 0.5000  plane waves:    1754
 k-point ** :   0.5000 0.4167 0.5000  plane waves:    1764
 k-point ** :  -0.4167 0.4167 0.5000  plane waves:    1760
 k-point ** :   0.5000 0.5000 0.5000  plane waves:    1752

 maximum and minimum number of plane-waves per node :       600      572

 maximum number of plane-waves:      1782
 maximum index in each direction: 
   IXMAX=    6   IYMAX=    5   IZMAX=   14
   IXMIN=   -6   IYMIN=   -6   IZMIN=  -15

 WARNING: aliasing errors must be expected set NGX to  26 to avoid them
 NGY is ok and might be reduce to  24
 NGZ is ok and might be reduce to  60
 aliasing errors are usually negligible using standard VASP settings
 and one can safely disregard these warnings

 parallel 3D FFT for wavefunctions:
    minimum data exchange during FFTs selected (reduces bandwidth)
 parallel 3D FFT for charge:
    minimum data exchange during FFTs selected (reduces bandwidth)


 total amount of memory used by VASP on root node    55413. kBytes
========================================================================

   base      :      30000. kBytes
   nonl-proj :       8211. kBytes
   fftplans  :       1906. kBytes
   grid      :       2700. kBytes
   one-center:          6. kBytes
   wavefun   :      12590. kBytes
 
     INWAV:  cpu time    0.00: real time    0.00
 Broyden mixing: mesh for mixing (old mesh)
   NGX = 11   NGY = 11   NGZ = 29
  (NGX  = 48   NGY  = 48   NGZ  =120)
  gives a total of   3509 points

 initial charge density was supplied:
 charge density of overlapping atoms calculated
 number of electron      16.0000000 magnetization 
 keeping initial charge density in first step


--------------------------------------------------------------------------------------------------------


 Maximum index for augmentation-charges         1943 (set IRDMAX)


--------------------------------------------------------------------------------------------------------


 First call to EWALD:  gamma=   0.546
 Maximum number of real-space cells 4x 4x 2
 Maximum number of reciprocal cells 2x 2x 5

 FEWALD executed in parallel
    FEWALD:  cpu time    0.00: real time    0.00


----------------------------------------- Iteration    1(   1)  ---------------------------------------


    POTLOK:  cpu time    0.11: real time    0.12
    SETDIJ:  cpu time    0.00: real time    0.00
     EDDAV:  cpu time   12.14: real time   12.15
 BZINTS: Fermi energy: 15.798813; 16.000000 electrons
         Band energy:   8.966623;  BLOECHL correction: -0.602405
       DOS:  cpu time    0.05: real time    0.05
    --------------------------------------------
      LOOP:  cpu time   12.31: real time   12.34

 eigenvalue-minimisations  :  5168
 total energy-change (2. order) : 0.7026356E+02  (-0.1059539E+04)
 number of electron      16.0000000 magnetization 
 augmentation part       16.0000000 magnetization 

 Free energy of the ion-electron system (eV)
  ---------------------------------------------------
  alpha Z        PSCENC =        38.09272667
  Ewald energy   TEWEN  =      -480.03808093
  -Hartree energ DENC   =      -136.22105582
  -exchange      EXHF   =         0.00000000
  -V(xc)+E(xc)   XCENC  =        55.44757713
  PAW double counting   =       151.32577238     -155.92769107
  entropy T*S    EENTRO =         0.00000000
  eigenvalues    EBANDS =         8.96662282
  atomic energy  EATOM  =       588.61769381
  ---------------------------------------------------
  free energy    TOTEN  =        70.26356499 eV

  energy without entropy =       70.26356499  energy(sigma->0) =       70.26356499


--------------------------------------------------------------------------------------------------------




----------------------------------------- Iteration    1(   2)  ---------------------------------------


     EDDAV:  cpu time   15.38: real time   15.39
 BZINTS: Fermi energy:  3.874850; 16.000000 electrons
         Band energy: -95.564662;  BLOECHL correction: -0.000004
       DOS:  cpu time    0.03: real time    0.04
    --------------------------------------------
      LOOP:  cpu time   15.42: real time   15.44

 eigenvalue-minimisations  :  7364
 total energy-change (2. order) :-0.1045313E+03  (-0.9560768E+02)
 number of electron      16.0000000 magnetization 
 augmentation part       16.0000000 magnetization 

 Free energy of the ion-electron system (eV)
  ---------------------------------------------------
  alpha Z        PSCENC =        38.09272667
  Ewald energy   TEWEN  =      -480.03808093
  -Hartree energ DENC   =      -136.22105582
  -exchange      EXHF   =         0.00000000
  -V(xc)+E(xc)   XCENC  =        55.44757713
  PAW double counting   =       151.32577238     -155.92769107
  entropy T*S    EENTRO =         0.00000000
  eigenvalues    EBANDS =       -95.56466179
  atomic energy  EATOM  =       588.61769381
  ---------------------------------------------------
  free energy    TOTEN  =       -34.26771962 eV

  energy without entropy =      -34.26771962  energy(sigma->0) =      -34.26771962


--------------------------------------------------------------------------------------------------------




----------------------------------------- Iteration    1(   3)  ---------------------------------------


     EDDAV:  cpu time   14.44: real time   14.45
 BZINTS: Fermi energy:  3.534435; 16.000000 electrons
         Band energy:-100.399910;  BLOECHL correction: -0.000065
       DOS:  cpu time    0.03: real time    0.03
    --------------------------------------------
      LOOP:  cpu time   14.48: real time   14.49

 eigenvalue-minimisations  :  6648
 total energy-change (2. order) :-0.4835248E+01  (-0.4791524E+01)
 number of electron      16.0000000 magnetization 
 augmentation part       16.0000000 magnetization 

 Free energy of the ion-electron system (eV)
  ---------------------------------------------------
  alpha Z        PSCENC =        38.09272667
  Ewald energy   TEWEN  =      -480.03808093
  -Hartree energ DENC   =      -136.22105582
  -exchange      EXHF   =         0.00000000
  -V(xc)+E(xc)   XCENC  =        55.44757713
  PAW double counting   =       151.32577238     -155.92769107
  entropy T*S    EENTRO =         0.00000000
  eigenvalues    EBANDS =      -100.39990958
  atomic energy  EATOM  =       588.61769381
  ---------------------------------------------------
  free energy    TOTEN  =       -39.10296741 eV

  energy without entropy =      -39.10296741  energy(sigma->0) =      -39.10296741


--------------------------------------------------------------------------------------------------------




----------------------------------------- Iteration    1(   4)  ---------------------------------------


     EDDAV:  cpu time   14.16: real time   14.17
 BZINTS: Fermi energy:  3.531436; 16.000000 electrons
         Band energy:-100.460587;  BLOECHL correction: -0.000071
       DOS:  cpu time    0.03: real time    0.03
    --------------------------------------------
      LOOP:  cpu time   14.20: real time   14.21

 eigenvalue-minimisations  :  6380
 total energy-change (2. order) :-0.6067762E-01  (-0.6058967E-01)
 number of electron      16.0000000 magnetization 
 augmentation part       16.0000000 magnetization 

 Free energy of the ion-electron system (eV)
  ---------------------------------------------------
  alpha Z        PSCENC =        38.09272667
  Ewald energy   TEWEN  =      -480.03808093
  -Hartree energ DENC   =      -136.22105582
  -exchange      EXHF   =         0.00000000
  -V(xc)+E(xc)   XCENC  =        55.44757713
  PAW double counting   =       151.32577238     -155.92769107
  entropy T*S    EENTRO =         0.00000000
  eigenvalues    EBANDS =      -100.46058720
  atomic energy  EATOM  =       588.61769381
  ---------------------------------------------------
  free energy    TOTEN  =       -39.16364503 eV

  energy without entropy =      -39.16364503  energy(sigma->0) =      -39.16364503


--------------------------------------------------------------------------------------------------------




----------------------------------------- Iteration    1(   5)  ---------------------------------------


     EDDAV:  cpu time   14.29: real time   14.30
 BZINTS: Fermi energy:  3.531389; 16.000000 electrons
         Band energy:-100.461824;  BLOECHL correction: -0.000070
       DOS:  cpu time    0.03: real time    0.03
    CHARGE:  cpu time    0.28: real time    0.28
    MIXING:  cpu time    0.00: real time    0.00
    --------------------------------------------
      LOOP:  cpu time   14.62: real time   14.63

 eigenvalue-minimisations  :  6384
 total energy-change (2. order) :-0.1236609E-02  (-0.1236768E-02)
 number of electron      15.9999999 magnetization 
 augmentation part        0.4237768 magnetization 

 Broyden mixing:
  rms(total) = 0.78055E+00    rms(broyden)= 0.78054E+00
  rms(prec ) = 0.12756E+01
  weight for this iteration     100.00

 Free energy of the ion-electron system (eV)
  ---------------------------------------------------
  alpha Z        PSCENC =        38.09272667
  Ewald energy   TEWEN  =      -480.03808093
  -Hartree energ DENC   =      -136.22105582
  -exchange      EXHF   =         0.00000000
  -V(xc)+E(xc)   XCENC  =        55.44757713
  PAW double counting   =       151.32577238     -155.92769107
  entropy T*S    EENTRO =         0.00000000
  eigenvalues    EBANDS =      -100.46182381
  atomic energy  EATOM  =       588.61769381
  ---------------------------------------------------
  free energy    TOTEN  =       -39.16488164 eV

  energy without entropy =      -39.16488164  energy(sigma->0) =      -39.16488164


--------------------------------------------------------------------------------------------------------




----------------------------------------- Iteration    1(   6)  ---------------------------------------


    POTLOK:  cpu time    0.11: real time    0.11
    SETDIJ:  cpu time    0.01: real time    0.01
     EDDAV:  cpu time   13.39: real time   13.40
 BZINTS: Fermi energy:  4.256330; 16.000000 electrons
         Band energy: -83.472646;  BLOECHL correction: -0.000101
       DOS:  cpu time    0.04: real time    0.04
    CHARGE:  cpu time    0.28: real time    0.28
    MIXING:  cpu time    0.00: real time    0.00
    --------------------------------------------
      LOOP:  cpu time   13.83: real time   13.84

 eigenvalue-minimisations  :  5920
 total energy-change (2. order) : 0.1784962E+01  (-0.1767628E+00)
 number of electron      15.9999999 magnetization 
 augmentation part        0.4043863 magnetization 

 Broyden mixing:
  rms(total) = 0.40928E+00    rms(broyden)= 0.40928E+00
  rms(prec ) = 0.65758E+00
  weight for this iteration     100.00

[...]
      1     -11.4614      2.00000
      2     -11.4614      2.00000
      3      -4.4870      2.00000
      4      -4.4870      2.00000
      5      -2.4627      2.00000
      6      -2.4627      2.00000
      7       0.8861      2.00000
      8       0.8861      2.00000
      9       9.3832      0.00000
     10       9.3832      0.00000
     11      14.9898      0.00000
     12      14.9898      0.00000

 k-point   193 :       0.3333    0.1667    0.5000
  band No.  band energies     occupation 
      1     -10.0826      2.00000
      2     -10.0826      2.00000
      3      -6.4003      2.00000
      4      -6.4003      2.00000
      5      -3.0404      2.00000
      6      -3.0404      2.00000
      7       2.3121      2.00000
      8       2.3121      2.00000
      9       7.4697      0.00000
     10       7.4697      0.00000
     11      14.9167      0.00000
     12      14.9167      0.00000

 k-point   194 :       0.4167    0.1667    0.5000
  band No.  band energies     occupation 
      1      -8.8494      2.00000
      2      -8.8494      2.00000
      3      -7.8332      2.00000
      4      -7.8332      2.00000
      5      -3.2268      2.00000
      6      -3.2268      2.00000
      7       3.2055      2.00000
      8       3.2055      2.00000
      9       6.3996      0.00000
     10       6.3996      0.00000
     11      14.8359      0.00000
     12      14.8359      0.00000

 k-point   195 :       0.5000    0.1667    0.5000
  band No.  band energies     occupation 
      1     -10.0873      2.00000
      2     -10.0873      2.00000
      3      -6.3938      2.00000
      4      -6.3938      2.00000
      5      -3.0429      2.00000
      6      -3.0429      2.00000
      7       2.3088      2.00000
      8       2.3088      2.00000
      9       7.4723      0.00000
     10       7.4723      0.00000
     11      14.9181      0.00000
     12      14.9181      0.00000

 k-point   196 :      -0.4167    0.1667    0.5000
  band No.  band energies     occupation 
      1     -11.4653      2.00000
      2     -11.4653      2.00000
      3      -4.4811      2.00000
      4      -4.4811      2.00000
      5      -2.4659      2.00000
      6      -2.4659      2.00000
      7       0.8826      2.00000
      8       0.8826      2.00000
      9       9.3844      0.00000
     10       9.3844      0.00000
     11      14.9895      0.00000
     12      14.9895      0.00000

 k-point   197 :      -0.3333    0.1667    0.5000
  band No.  band energies     occupation 
      1     -12.5749      2.00000
      2     -12.5749      2.00000
      3      -2.7571      2.00000
      4      -2.7571      2.00000
      5      -1.4027      2.00000
      6      -1.4027      2.00000
      7      -0.3677      2.00000
      8      -0.3677      2.00000
      9      11.3245      0.00000
     10      11.3245      0.00000
     11      14.3347      0.00000
     12      14.3347      0.00000

 k-point   198 :      -0.2500    0.1667    0.5000
  band No.  band energies     occupation 
      1     -13.3808      2.00000
      2     -13.3808      2.00000
      3      -1.4342      2.00000
      4      -1.4342      2.00000
      5      -1.2994      2.00000
      6      -1.2994      2.00000
      7      -0.0319      2.00000
      8      -0.0319      2.00000
      9      12.9740      0.00000
     10      12.9740      0.00000
     11      13.5176      0.00000
     12      13.5176      0.00000

 k-point   199 :      -0.1667    0.1667    0.5000
  band No.  band energies     occupation 
      1     -13.8686      2.00000
      2     -13.8686      2.00000
      3      -1.8752      2.00000
      4      -1.8752      2.00000
      5      -0.3258      2.00000
      6      -0.3258      2.00000
      7       0.8542      2.00000
      8       0.8542      2.00000
      9      12.9747      0.00000
     10      12.9747      0.00000
     11      13.5076      0.00000
     12      13.5076      0.00000

 k-point   200 :       0.2500    0.2500    0.5000
  band No.  band energies     occupation 
      1     -10.2302      2.00000
      2     -10.2302      2.00000
      3      -5.5268      2.00000
      4      -5.5268      2.00000
      5      -3.9467      2.00000
      6      -3.9467      2.00000
      7       2.2275      2.00000
      8       2.2275      2.00000
      9       7.7733      0.00000
     10       7.7733      0.00000
     11      15.6230      0.00000
     12      15.6230      0.00000

 k-point   201 :       0.3333    0.2500    0.5000
  band No.  band energies     occupation 
      1      -8.8051      2.00000
      2      -8.8051      2.00000
      3      -6.9498      2.00000
      4      -6.9498      2.00000
      5      -4.6564      2.00000
      6      -4.6564      2.00000
      7       3.6130      2.00000
      8       3.6130      2.00172
      9       6.2541      0.00000
     10       6.2541      0.00000
     11      15.4531      0.00000
     12      15.4531      0.00000

 k-point   202 :       0.4167    0.2500    0.5000
  band No.  band energies     occupation 
      1      -8.8123      2.00000
      2      -8.8123      2.00000
      3      -6.9418      2.00000
      4      -6.9418      2.00000
      5      -4.6573      2.00000
      6      -4.6573      2.00000
      7       3.6090      2.00000
      8       3.6090      2.00151
      9       6.2568      0.00000
     10       6.2568      0.00000
     11      15.4522      0.00000
     12      15.4522      0.00000

 k-point   203 :       0.5000    0.2500    0.5000
  band No.  band energies     occupation 
      1     -10.2367      2.00000
      2     -10.2367      2.00000
      3      -5.5221      2.00000
      4      -5.5221      2.00000
      5      -3.9450      2.00000
      6      -3.9450      2.00000
      7       2.2222      2.00000
      8       2.2222      2.00000
      9       7.7747      0.00000
     10       7.7747      0.00000
     11      15.6204      0.00000
     12      15.6204      0.00000

 k-point   204 :      -0.4167    0.2500    0.5000
  band No.  band energies     occupation 
      1     -11.4665      2.00000
      2     -11.4665      2.00000
      3      -4.4907      2.00000
      4      -4.4907      2.00000
      5      -2.4538      2.00000
      6      -2.4538      2.00000
      7       0.8813      2.00000
      8       0.8813      2.00000
      9       9.3809      0.00000
     10       9.3809      0.00000
     11      15.0088      0.00000
     12      15.0088      0.00000

 k-point   205 :      -0.3333    0.2500    0.5000
  band No.  band energies     occupation 
      1     -12.4154      2.00000
      2     -12.4154      2.00000
      3      -3.5077      2.00000
      4      -3.5077      2.00000
      5      -0.9161      2.00000
      6      -0.9161      2.00000
      7      -0.1903      2.00000
      8      -0.1903      2.00000
      9      10.8715      0.00000
     10      10.8715      0.00000
     11      13.5379      0.00000
     12      13.5379      0.00000

 k-point   206 :      -0.2500    0.2500    0.5000
  band No.  band energies     occupation 
      1     -13.0575      2.00000
      2     -13.0575      2.00000
      3      -2.4273      2.00000
      4      -2.4273      2.00000
      5      -0.9278      2.00000
      6      -0.9278      2.00000
      7      -0.0244      2.00000
      8      -0.0244      2.00000
      9      12.1343      0.00000
     10      12.1343      0.00000
     11      13.0216      0.00000
     12      13.0216      0.00000

 k-point   207 :       0.3333    0.3333    0.5000
  band No.  band energies     occupation 
      1      -7.5992      2.00000
      2      -7.5992      2.00000
      3      -7.5851      2.00000
      4      -7.5851      2.00000
      5      -5.5490      2.00000
      6      -5.5490      2.00000
      7       4.9512      1.99998
      8       4.9512      1.99006
      9       4.9750      0.00000
     10       4.9750      0.00000
     11      15.1191      0.00000
     12      15.1191      0.00000

 k-point   208 :       0.4167    0.3333    0.5000
  band No.  band energies     occupation 
      1      -8.8153      2.00000
      2      -8.8153      2.00000
      3      -6.9473      2.00000
      4      -6.9473      2.00000
      5      -4.6482      2.00000
      6      -4.6482      2.00000
      7       3.6062      2.00000
      8       3.6062      2.00171
      9       6.2561      0.00000
     10       6.2561      0.00000
     11      15.4568      0.00000
     12      15.4568      0.00000

 k-point   209 :       0.5000    0.3333    0.5000
  band No.  band energies     occupation 
      1     -10.0906      2.00000
      2     -10.0906      2.00000
      3      -6.4034      2.00000
      4      -6.4034      2.00000
      5      -3.0279      2.00000
      6      -3.0279      2.00000
      7       2.3055      2.00000
      8       2.3055      2.00000
      9       7.4676      0.00000
     10       7.4676      0.00000
     11      14.9514      0.00000
     12      14.9514      0.00000

 k-point   210 :      -0.4167    0.3333    0.5000
  band No.  band energies     occupation 
      1     -11.1546      2.00000
      2     -11.1546      2.00000
      3      -5.6320      2.00000
      4      -5.6320      2.00000
      5      -1.5497      2.00000
      6      -1.5497      2.00000
      7       1.1855      2.00000
      8       1.1855      2.00000
      9       8.6620      0.00000
     10       8.6620      0.00000
     11      13.2871      0.00000
     12      13.2871      0.00000

 k-point   211 :      -0.3333    0.3333    0.5000
  band No.  band energies     occupation 
      1     -11.9382      2.00000
      2     -11.9382      2.00000
      3      -4.6320      2.00000
      4      -4.6320      2.00000
      5      -0.7566      2.00000
      6      -0.7566      2.00000
      7       0.3361      2.00000
      8       0.3361      2.00000
      9       9.8487      0.00000
     10       9.8487      0.00000
     11      12.7075      0.00000
     12      12.7075      0.00000

 k-point   212 :       0.4167    0.4167    0.5000
  band No.  band energies     occupation 
      1      -8.8603      2.00000
      2      -8.8603      2.00000
      3      -7.8346      2.00000
      4      -7.8346      2.00000
      5      -3.2123      2.00000
      6      -3.2123      2.00000
      7       3.1988      2.00000
      8       3.1988      2.00000
      9       6.3972      0.00000
     10       6.3972      0.00000
     11      14.8715      0.00000
     12      14.8715      0.00000

 k-point   213 :       0.5000    0.4167    0.5000
  band No.  band energies     occupation 
      1      -9.6763      2.00000
      2      -9.6763      2.00000
      3      -7.5725      2.00000
      4      -7.5725      2.00000
      5      -1.8775      2.00000
      6      -1.8775      2.00000
      7       2.4943      2.00000
      8       2.4943      2.00000
      9       6.8902      0.00000
     10       6.8902      0.00000
     11      13.1253      0.00000
     12      13.1253      0.00000

 k-point   214 :      -0.4167    0.4167    0.5000
  band No.  band energies     occupation 
      1     -10.5423      2.00000
      2     -10.5423      2.00000
      3      -6.7326      2.00000
      4      -6.7326      2.00000
      5      -1.2287      2.00000
      6      -1.2287      2.00000
      7       1.7563      2.00000
      8       1.7563      2.00000
      9       7.7096      0.00000
     10       7.7096      0.00000
     11      12.4734      0.00000
     12      12.4734      0.00000

 k-point   215 :       0.5000    0.5000    0.5000
  band No.  band energies     occupation 
      1      -9.2833      2.00000
      2      -9.2833      2.00000
      3      -8.2343      2.00000
      4      -8.2343      2.00000
      5      -1.3907      2.00000
      6      -1.3907      2.00000
      7       2.6020      2.00000
      8       2.6020      2.00000
      9       6.6090      0.00000
     10       6.6090      0.00000
     11      12.3887      0.00000
     12      12.3887      0.00000


--------------------------------------------------------------------------------------------------------


 soft charge-density along one line, spin component           1
         0         1         2         3         4         5         6         7         8         9
 total charge-density along one line
 
 pseudopotential strength for first ion, spin component:           1
  9.755   0.005  -0.000  -0.000   0.000   0.000   0.000  -0.000
  0.005  -0.002   0.000   0.000  -0.000   0.000   0.000  -0.000
 -0.000   0.000  -3.929  -0.000   0.000  -0.015  -0.000  -0.000
 -0.000   0.000  -0.000  -3.923  -0.000  -0.000  -0.012  -0.000
  0.000  -0.000   0.000  -0.000  -3.929  -0.000  -0.000  -0.015
  0.000   0.000  -0.015  -0.000  -0.000  -0.763  -0.000   0.000
  0.000   0.000  -0.000  -0.012  -0.000  -0.000  -0.763  -0.000
 -0.000  -0.000  -0.000  -0.000  -0.015   0.000  -0.000  -0.763
 total augmentation occupancy for first ion, spin component:           1
  1.469  -1.121   0.000  -0.000  -0.000   0.000  -0.000  -0.000
 -1.121   1.059  -0.000   0.000   0.000  -0.000  -0.000   0.000
  0.000  -0.000   1.222   0.000   0.000   0.228   0.000  -0.000
  0.000  -0.000   0.000   0.927   0.000   0.000   0.105   0.000
 -0.000   0.000   0.000   0.000   1.221  -0.000   0.000   0.228
  0.000  -0.000   0.228   0.000  -0.000   0.048   0.000  -0.000
 -0.000  -0.000   0.000   0.105   0.000   0.000   0.013   0.000
 -0.000   0.000  -0.000   0.000   0.228  -0.000   0.000   0.048


------------------------ aborting loop because EDIFF is reached ----------------------------------------


    CHARGE:  cpu time    0.27: real time    0.27
    FORLOC:  cpu time    0.00: real time    0.00
    FORNL :  cpu time    0.52: real time    0.52
    STRESS:  cpu time    1.50: real time    1.50
    FORHAR:  cpu time    0.03: real time    0.03
    MIXING:  cpu time    0.00: real time    0.00
    OFIELD:  cpu time    0.00: real time    0.00

 ---------------------------------------------------------------------------------------------

         DFTD3 V3.0 Rev 1        
 IVDW         = 12
 DF pbe       
 parameters
 VDW_S6       =    1.0000
 VDW_S8       =    0.7875
 VDW_A1       =    0.4289
 VDW_A2       =    4.4407
 k1-k3        =   16.0000    1.3333   -4.0000
 VDW_RADIUS   =   50.2022 A
 VDW_CNRADIUS =   21.1671 A
 Edisp (eV)   -0.64940

 E6    (eV) :    -0.4646
 E8    (eV) :    -0.1848
 % E8        : 28.46
    FORVDW:  cpu time    0.03: real time    0.03

  FORCE on cell =-STRESS in cart. coord.  units (eV):
  Direction    XX          YY          ZZ          XY          YZ          ZX
  --------------------------------------------------------------------------------------
  Alpha Z    38.09273    38.09273    38.09273
  Ewald      57.97013    57.90945  -595.91817    -0.05254    -0.00000     0.00000
  Hartree   147.26974   147.26912  -124.74381    -0.00054    -0.00000    -0.00000
  E(xc)     -58.49083   -58.49174   -60.57679    -0.00079     0.00000    -0.00000
  Local    -409.67123  -409.62207   482.71124     0.04258    -0.00000    -0.00000
  n-local   -14.33600   -13.58884   -12.83227    -0.23222     0.01534    -0.01097
  augment    -1.54604    -1.54593    -1.41717     0.00010    -0.00000    -0.00000
  Kinetic   243.93118   236.81517   275.71556     2.14223    -0.20495     0.13613
  Fock        0.00000     0.00000     0.00000     0.00000     0.00000     0.00000
  vdW        -0.08870    -0.08740    -0.76198     0.00113     0.00000    -0.00000
  -------------------------------------------------------------------------------------
  Total      -0.08441    -0.03412     0.26935     0.04356     0.00000    -0.00000
  in kB      -3.95182    -1.59727    12.60938     2.03910     0.00000    -0.00000
  external pressure =        2.35 kB  Pullay stress =        0.00 kB


 VOLUME and BASIS-vectors are now :
 -----------------------------------------------------------------------------
  energy-cutoff  :      800.00
  volume of cell :       34.22
      direct lattice vectors                 reciprocal lattice vectors
     2.466437249 -0.000959643  0.000000000     0.405534294  0.234345762  0.000000000
    -1.234049700  2.135517493  0.000000000     0.000182236  0.468375882  0.000000000
     0.000000000  0.000000000  6.499115714     0.000000000  0.000000000  0.153867087

  length of vectors
     2.466437436  2.466437436  6.499115714     0.468375917  0.468375917  0.153867087


 FORCES acting on ions
    electron-ion (+dipol)            ewald-force                    non-local-force                 convergence-correction
 -----------------------------------------------------------------------------------------------
   -.116E+00 0.672E-01 0.207E-11   0.107E+00 -.618E-01 -.177E-13   -.612E-02 0.353E-02 -.130E-17   -.130E-05 0.753E-06 0.776E-13
   0.116E+00 -.672E-01 0.168E-13   -.107E+00 0.618E-01 0.177E-13   0.612E-02 -.353E-02 -.130E-17   0.130E-05 -.753E-06 -.836E-13
   0.109E+00 -.631E-01 0.627E-12   -.106E+00 0.614E-01 -.177E-13   0.298E-02 -.172E-02 -.434E-18   0.761E-06 -.439E-06 0.742E-13
   -.109E+00 0.631E-01 -.253E-11   0.106E+00 -.614E-01 0.177E-13   -.298E-02 0.172E-02 0.434E-18   -.761E-06 0.439E-06 -.812E-13
 -----------------------------------------------------------------------------------------------
   -.683E-05 -.118E-04 0.183E-12   -.792E-14 0.832E-14 0.000E+00   0.167E-15 0.000E+00 -.260E-17   0.181E-11 0.314E-11 -.130E-13
 
 
 POSITION                                       TOTAL-FORCE (eV/Angst)
 -----------------------------------------------------------------------------------
      2.46402      0.00044      1.62478        -0.015576      0.008993      0.000000
     -1.23163      2.13412      4.87434         0.015576     -0.008993     -0.000000
     -0.00332      1.42496      1.62478         0.005993     -0.003460     -0.000000
      1.23571      0.70960      4.87434        -0.005993      0.003460      0.000000
 -----------------------------------------------------------------------------------
    total drift:                               -0.000007     -0.000012      0.000000


--------------------------------------------------------------------------------------------------------



  FREE ENERGIE OF THE ION-ELECTRON SYSTEM (eV)
  ---------------------------------------------------
  free  energy   TOTEN  =       -37.47498341 eV

  energy  without entropy=      -37.47498341  energy(sigma->0) =      -37.47498341
 


--------------------------------------------------------------------------------------------------------


    POTLOK:  cpu time    0.13: real time    0.13


--------------------------------------------------------------------------------------------------------




--------------------------------------------------------------------------------------------------------


  
 reached required accuracy - stopping structural energy minimisation
     LOOP+:  cpu time  212.31: real time  212.49
    4ORBIT:  cpu time    0.00: real time    0.00
 BZINTS: Fermi energy:  4.948306; 16.000000 electrons
         Band energy: -66.229450;  BLOECHL correction: -0.000142

 total amount of memory used by VASP on root node    55413. kBytes
========================================================================

   base      :      30000. kBytes
   nonl-proj :       8211. kBytes
   fftplans  :       1906. kBytes
   grid      :       2700. kBytes
   one-center:          6. kBytes
   wavefun   :      12590. kBytes
 
  
  
 General timing and accounting informations for this job:
 ========================================================
  
                  Total CPU time used (sec):      216.695
                            User time (sec):       93.049
                          System time (sec):      123.646
                         Elapsed time (sec):      217.154
  
                   Maximum memory used (kb):       70628.
                   Average memory used (kb):           0.
  
                          Minor page faults:      3129927
                          Major page faults:            0
                 Voluntary context switches:          788
