  32  32   0   0
  0.8555981E+01  0.4932875E-09  0.4932875E-09  0.1299823E-08  0.5000000E-15
  1.000000000000000E-004
  CAR 
 graphite                                
     16.33335222    -16.70663781  301      4.94918274      1.00000000
    -16.707  0.0000E+00  0.0000E+00
    -16.597  0.0000E+00  0.0000E+00
    -16.486  0.0000E+00  0.0000E+00
    -16.376  0.0000E+00  0.0000E+00
    -16.266  0.0000E+00  0.0000E+00
    -16.156  0.0000E+00  0.0000E+00
    -16.046  0.0000E+00  0.0000E+00
    -15.936  0.0000E+00  0.0000E+00
    -15.826  0.0000E+00  0.0000E+00
    -15.715  0.0000E+00  0.0000E+00
    -15.605  0.0000E+00  0.0000E+00
    -15.495  0.0000E+00  0.0000E+00
    -15.385  0.0000E+00  0.0000E+00
    -15.275  0.0000E+00  0.0000E+00
    -15.165  0.0000E+00  0.0000E+00
    -15.055  0.0000E+00  0.0000E+00
    -14.945  0.0000E+00  0.0000E+00
    -14.834  0.0000E+00  0.0000E+00
    -14.724  0.0000E+00  0.0000E+00
    -14.614  0.9657E+00  0.3467E-01
    -14.504  0.2297E+01  0.2390E+00
    -14.394  0.3104E+01  0.5318E+00
    -14.284  0.4558E+01  0.9453E+00
    -14.174  0.5135E+01  0.1503E+01
    -14.063  0.4903E+01  0.2040E+01
    -13.953  0.4949E+01  0.2582E+01
    -13.843  0.4970E+01  0.3129E+01
    -13.733  0.4913E+01  0.3672E+01
    -13.623  0.5131E+01  0.4222E+01
    -13.513  0.6437E+01  0.4830E+01
    -13.403  0.7198E+01  0.5590E+01
    -13.293  0.6858E+01  0.6367E+01
    -13.182  0.6612E+01  0.7128E+01
    -13.072  0.2382E+01  0.7551E+01
    -12.962  0.1840E+01  0.7777E+01
    -12.852  0.1973E+01  0.7980E+01
    -12.742  0.2419E+01  0.8222E+01
    -12.632  0.4434E+01  0.8552E+01
    -12.522  0.6703E+01  0.9448E+01
    -12.411  0.7437E+01  0.1021E+02
    -12.301  0.6750E+01  0.1102E+02
    -12.191  0.4075E+01  0.1157E+02
    -12.081  0.4198E+01  0.1203E+02
    -11.971  0.4364E+01  0.1250E+02
    -11.861  0.4541E+01  0.1299E+02
    -11.751  0.4702E+01  0.1350E+02
    -11.641  0.4839E+01  0.1402E+02
    -11.530  0.5184E+01  0.1458E+02
    -11.420  0.5458E+01  0.1516E+02
    -11.310  0.6111E+01  0.1579E+02
    -11.200  0.5948E+01  0.1646E+02
    -11.090  0.5668E+01  0.1710E+02
    -10.980  0.5605E+01  0.1772E+02
    -10.870  0.5777E+01  0.1835E+02
    -10.759  0.5949E+01  0.1899E+02
    -10.649  0.5885E+01  0.1965E+02
    -10.539  0.5750E+01  0.2029E+02
    -10.429  0.5672E+01  0.2092E+02
    -10.319  0.5356E+01  0.2153E+02
    -10.209  0.4101E+01  0.2206E+02
    -10.099  0.3829E+01  0.2248E+02
     -9.989  0.4669E+01  0.2295E+02
     -9.878  0.4973E+01  0.2349E+02
     -9.768  0.5928E+01  0.2406E+02
     -9.658  0.7274E+01  0.2478E+02
     -9.548  0.1065E+02  0.2574E+02
     -9.438  0.9247E+01  0.2688E+02
     -9.328  0.6858E+01  0.2777E+02
     -9.218  0.4995E+01  0.2841E+02
     -9.107  0.4453E+01  0.2893E+02
     -8.997  0.3939E+01  0.2939E+02
     -8.887  0.5671E+01  0.2998E+02
     -8.777  0.5060E+01  0.3053E+02
     -8.667  0.2001E+01  0.3096E+02
     -8.557  0.1789E+01  0.3117E+02
     -8.447  0.1576E+01  0.3135E+02
     -8.337  0.1363E+01  0.3152E+02
     -8.226  0.1309E+01  0.3166E+02
     -8.116  0.1764E+01  0.3183E+02
     -8.006  0.2267E+01  0.3205E+02
     -7.896  0.2771E+01  0.3232E+02
     -7.786  0.5274E+01  0.3272E+02
     -7.676  0.1128E+02  0.3363E+02
     -7.566  0.5020E+01  0.3446E+02
     -7.455  0.5065E+01  0.3503E+02
     -7.345  0.6281E+01  0.3565E+02
     -7.235  0.7497E+01  0.3641E+02
     -7.125  0.8714E+01  0.3730E+02
     -7.015  0.9127E+01  0.3832E+02
     -6.905  0.7128E+01  0.3921E+02
     -6.795  0.5604E+01  0.3987E+02
     -6.685  0.5549E+01  0.4048E+02
     -6.574  0.5521E+01  0.4109E+02
     -6.464  0.5359E+01  0.4169E+02
     -6.354  0.5167E+01  0.4227E+02
     -6.244  0.5030E+01  0.4283E+02
     -6.134  0.4911E+01  0.4338E+02
     -6.024  0.4793E+01  0.4392E+02
     -5.914  0.4674E+01  0.4444E+02
     -5.803  0.4555E+01  0.4494E+02
     -5.693  0.4436E+01  0.4544E+02
     -5.583  0.4326E+01  0.4592E+02
     -5.473  0.4844E+01  0.4642E+02
     -5.363  0.5453E+01  0.4699E+02
     -5.253  0.6062E+01  0.4762E+02
     -5.143  0.6671E+01  0.4832E+02
     -5.033  0.7280E+01  0.4909E+02
     -4.922  0.7889E+01  0.4992E+02
     -4.812  0.8499E+01  0.5083E+02
     -4.702  0.7901E+01  0.5179E+02
     -4.592  0.4361E+01  0.5247E+02
     -4.482  0.6084E+01  0.5302E+02
     -4.372  0.6741E+01  0.5377E+02
     -4.262  0.5210E+01  0.5442E+02
     -4.151  0.3679E+01  0.5491E+02
     -4.041  0.2147E+01  0.5523E+02
     -3.931  0.1087E+01  0.5539E+02
     -3.821  0.2496E+01  0.5558E+02
     -3.711  0.4092E+01  0.5595E+02
     -3.601  0.5873E+01  0.5649E+02
     -3.491  0.9894E+01  0.5736E+02
     -3.381  0.1290E+02  0.5866E+02
     -3.270  0.1290E+02  0.6008E+02
     -3.160  0.1014E+02  0.6141E+02
     -3.050  0.4704E+01  0.6218E+02
     -2.940  0.5536E+01  0.6274E+02
     -2.830  0.6460E+01  0.6340E+02
     -2.720  0.8053E+01  0.6417E+02
     -2.610  0.1394E+02  0.6538E+02
     -2.499  0.2477E+02  0.6728E+02
     -2.389  0.6959E+01  0.6915E+02
     -2.279  0.7619E+01  0.6996E+02
     -2.169  0.7408E+01  0.7078E+02
     -2.059  0.7697E+01  0.7161E+02
     -1.949  0.8412E+01  0.7249E+02
     -1.839  0.1598E+02  0.7371E+02
     -1.729  0.1301E+02  0.7533E+02
     -1.618  0.1010E+02  0.7661E+02
     -1.508  0.1435E+02  0.7777E+02
     -1.398  0.3605E+02  0.8054E+02
     -1.288  0.2162E+02  0.8273E+02
     -1.178  0.1449E+02  0.8471E+02
     -1.068  0.1588E+02  0.8638E+02
     -0.958  0.1576E+02  0.8813E+02
     -0.847  0.9617E+01  0.8952E+02
     -0.737  0.6680E+01  0.9040E+02
     -0.627  0.7011E+01  0.9114E+02
     -0.517  0.7851E+01  0.9196E+02
     -0.407  0.9047E+01  0.9289E+02
     -0.297  0.1050E+02  0.9397E+02
     -0.187  0.1192E+02  0.9516E+02
     -0.077  0.1276E+02  0.9645E+02
      0.034  0.1214E+02  0.9828E+02
      0.144  0.1258E+02  0.9965E+02
      0.254  0.1134E+02  0.1010E+03
      0.364  0.9209E+01  0.1021E+03
      0.474  0.9069E+01  0.1031E+03
      0.584  0.8962E+01  0.1042E+03
      0.694  0.8906E+01  0.1051E+03
      0.805  0.9998E+01  0.1062E+03
      0.915  0.9668E+01  0.1073E+03
      1.025  0.9649E+01  0.1084E+03
      1.135  0.9534E+01  0.1094E+03
      1.245  0.9477E+01  0.1105E+03
      1.355  0.1015E+02  0.1115E+03
      1.465  0.9922E+01  0.1126E+03
      1.575  0.8994E+01  0.1137E+03
      1.686  0.1024E+02  0.1147E+03
      1.796  0.9750E+01  0.1158E+03
      1.906  0.8960E+01  0.1169E+03
      2.016  0.7120E+01  0.1177E+03
      2.126  0.5750E+01  0.1185E+03
      2.236  0.4412E+01  0.1190E+03
      2.346  0.3117E+01  0.1194E+03
      2.457  0.2896E+01  0.1198E+03
      2.567  0.3733E+01  0.1201E+03
      2.677  0.5188E+01  0.1206E+03
      2.787  0.7377E+01  0.1213E+03
      2.897  0.7877E+01  0.1222E+03
      3.007  0.8367E+01  0.1231E+03
      3.117  0.7956E+01  0.1239E+03
      3.227  0.5980E+01  0.1247E+03
      3.338  0.4616E+01  0.1253E+03
      3.448  0.3734E+01  0.1257E+03
      3.558  0.3237E+01  0.1261E+03
      3.668  0.2827E+01  0.1265E+03
      3.778  0.2434E+01  0.1267E+03
      3.888  0.2102E+01  0.1270E+03
      3.998  0.1812E+01  0.1272E+03
      4.109  0.1555E+01  0.1274E+03
      4.219  0.1309E+01  0.1276E+03
      4.329  0.1074E+01  0.1277E+03
      4.439  0.8574E+00  0.1278E+03
      4.549  0.6527E+00  0.1279E+03
      4.659  0.4581E+00  0.1279E+03
      4.769  0.2727E+00  0.1280E+03
      4.879  0.9565E-01  0.1280E+03
      4.990  0.2763E-01  0.1280E+03
      5.100  0.1517E+00  0.1280E+03
      5.210  0.2851E+00  0.1280E+03
      5.320  0.4283E+00  0.1281E+03
      5.430  0.5839E+00  0.1281E+03
      5.540  0.7524E+00  0.1282E+03
      5.650  0.9379E+00  0.1283E+03
      5.761  0.1148E+01  0.1284E+03
      5.871  0.1407E+01  0.1286E+03
      5.981  0.1679E+01  0.1287E+03
      6.091  0.2576E+01  0.1290E+03
      6.201  0.3148E+01  0.1293E+03
      6.311  0.3618E+01  0.1296E+03
      6.421  0.4512E+01  0.1301E+03
      6.531  0.8483E+01  0.1307E+03
      6.642  0.1273E+02  0.1321E+03
      6.752  0.9016E+01  0.1332E+03
      6.862  0.7432E+01  0.1342E+03
      6.972  0.6112E+01  0.1349E+03
      7.082  0.5339E+01  0.1355E+03
      7.192  0.4956E+01  0.1361E+03
      7.302  0.4594E+01  0.1366E+03
      7.413  0.4082E+01  0.1371E+03
      7.523  0.3544E+01  0.1375E+03
      7.633  0.3620E+01  0.1379E+03
      7.743  0.3907E+01  0.1383E+03
      7.853  0.4338E+01  0.1388E+03
      7.963  0.4665E+01  0.1393E+03
      8.073  0.4902E+01  0.1398E+03
      8.183  0.4775E+01  0.1403E+03
      8.294  0.4571E+01  0.1409E+03
      8.404  0.4449E+01  0.1414E+03
      8.514  0.4328E+01  0.1418E+03
      8.624  0.4223E+01  0.1423E+03
      8.734  0.4138E+01  0.1428E+03
      8.844  0.4059E+01  0.1432E+03
      8.954  0.3988E+01  0.1437E+03
      9.065  0.3700E+01  0.1441E+03
      9.175  0.3455E+01  0.1445E+03
      9.285  0.3334E+01  0.1449E+03
      9.395  0.3274E+01  0.1452E+03
      9.505  0.3177E+01  0.1456E+03
      9.615  0.3145E+01  0.1459E+03
      9.725  0.3346E+01  0.1463E+03
      9.835  0.3505E+01  0.1467E+03
      9.946  0.3501E+01  0.1470E+03
     10.056  0.3521E+01  0.1474E+03
     10.166  0.3572E+01  0.1478E+03
     10.276  0.3601E+01  0.1482E+03
     10.386  0.3592E+01  0.1486E+03
     10.496  0.3556E+01  0.1490E+03
     10.606  0.4554E+01  0.1495E+03
     10.717  0.4866E+01  0.1500E+03
     10.827  0.4980E+01  0.1505E+03
     10.937  0.4880E+01  0.1511E+03
     11.047  0.5097E+01  0.1516E+03
     11.157  0.5527E+01  0.1522E+03
     11.267  0.4882E+01  0.1528E+03
     11.377  0.4610E+01  0.1534E+03
     11.487  0.2979E+01  0.1538E+03
     11.598  0.2776E+01  0.1541E+03
     11.708  0.2383E+01  0.1544E+03
     11.818  0.2368E+01  0.1547E+03
     11.928  0.2480E+01  0.1550E+03
     12.038  0.3220E+01  0.1553E+03
     12.148  0.4125E+01  0.1557E+03
     12.258  0.5217E+01  0.1562E+03
     12.369  0.5729E+01  0.1568E+03
     12.479  0.8193E+01  0.1575E+03
     12.589  0.1048E+02  0.1586E+03
     12.699  0.1368E+02  0.1599E+03
     12.809  0.1506E+02  0.1615E+03
     12.919  0.1418E+02  0.1631E+03
     13.029  0.1079E+02  0.1646E+03
     13.139  0.9018E+01  0.1656E+03
     13.250  0.1033E+02  0.1666E+03
     13.360  0.4976E+01  0.1676E+03
     13.470  0.4011E+00  0.1679E+03
     13.580  0.2474E+00  0.1679E+03
     13.690  0.1803E+00  0.1680E+03
     13.800  0.1239E+00  0.1680E+03
     13.910  0.7798E-01  0.1680E+03
     14.021  0.4265E-01  0.1680E+03
     14.131  0.1791E-01  0.1680E+03
     14.241  0.3733E-02  0.1680E+03
     14.351  0.0000E+00  0.1680E+03
     14.461  0.0000E+00  0.1680E+03
     14.571  0.0000E+00  0.1680E+03
     14.681  0.0000E+00  0.1680E+03
     14.791  0.0000E+00  0.1680E+03
     14.902  0.0000E+00  0.1680E+03
     15.012  0.0000E+00  0.1680E+03
     15.122  0.0000E+00  0.1680E+03
     15.232  0.0000E+00  0.1680E+03
     15.342  0.0000E+00  0.1680E+03
     15.452  0.0000E+00  0.1680E+03
     15.562  0.0000E+00  0.1680E+03
     15.673  0.0000E+00  0.1680E+03
     15.783  0.0000E+00  0.1680E+03
     15.893  0.0000E+00  0.1680E+03
     16.003  0.0000E+00  0.1680E+03
     16.113  0.0000E+00  0.1680E+03
     16.223  0.0000E+00  0.1680E+03
     16.333  0.0000E+00  0.1680E+03
