 running on    6 total cores
 distrk:  each k-point on    6 cores,    1 groups
 distr:  one band on    1 cores,    6 groups
 using from now: INCAR     
 vasp.5.3.5 31Mar14 (build Nov 02 2014 15:17:37) complex                        
  
 POSCAR found :  1 types and      32 ions
 scaLAPACK will be used

 ----------------------------------------------------------------------------- 
|                                                                             |
|           W    W    AA    RRRRR   N    N  II  N    N   GGGG   !!!           |
|           W    W   A  A   R    R  NN   N  II  NN   N  G    G  !!!           |
|           W    W  A    A  R    R  N N  N  II  N N  N  G       !!!           |
|           W WW W  AAAAAA  RRRRR   N  N N  II  N  N N  G  GGG   !            |
|           WW  WW  A    A  R   R   N   NN  II  N   NN  G    G                |
|           W    W  A    A  R    R  N    N  II  N    N   GGGG   !!!           |
|                                                                             |
|      For optimal performance we recommend to set                            |
|        NCORE= 4 - approx SQRT( number of cores)                             |
|      NCORE specifies how many cores store one orbital (NPAR=cpu/NCORE).     |
|      This setting can  greatly improve the performance of VASP for DFT.     |
|      The default, NPAR=number of cores might be grossly inefficient         |
|      on modern multi-core architectures or massively parallel machines.     |
|      Do your own testing !!!!                                               |
|      Unfortunately you need to use the default for GW and RPA calculations. |
|      (for HF NCORE is supported but not extensively tested yet)             |
|                                                                             |
 ----------------------------------------------------------------------------- 


 ----------------------------------------------------------------------------- 
|                                                                             |
|  ADVICE TO THIS USER RUNNING 'VASP/VAMP'   (HEAR YOUR MASTER'S VOICE ...):  |
|                                                                             |
|      You have a (more or less) 'large supercell' and for larger cells       |
|      it might be more efficient to use real space projection operators      |
|      So try LREAL= Auto  in the INCAR   file.                               |
|      Mind: If you want to do a very accurate calculations keep the          |
|      reciprocal projection scheme          (i.e. LREAL=.FALSE.)             |
|                                                                             |
 ----------------------------------------------------------------------------- 

 LDA part: xc-table for Pade appr. of Perdew
 POSCAR, INCAR and KPOINTS ok, starting setup
 FFT: planning ...
 WAVECAR not read
 WARNING: random wavefunctions but no delay for mixing, default for NELMDL
 entering main loop
       N       E                     dE             d eps       ncg     rms          rms(c)
DAV:   1     0.692494614500E+03    0.69249E+03   -0.84602E+04 12768   0.201E+03
DAV:   2    -0.256032535035E+03   -0.94853E+03   -0.91300E+03 15840   0.341E+02
DAV:   3    -0.312196883746E+03   -0.56164E+02   -0.55543E+02 15468   0.812E+01
DAV:   4    -0.313285426000E+03   -0.10885E+01   -0.10862E+01 15876   0.121E+01
DAV:   5    -0.313317718013E+03   -0.32292E-01   -0.32280E-01 16320   0.197E+00    0.221E+01
DAV:   6    -0.299041244586E+03    0.14276E+02   -0.14725E+01 14592   0.107E+01    0.116E+01
DAV:   7    -0.294547641144E+03    0.44936E+01   -0.15313E+01 14484   0.109E+01    0.192E+00
DAV:   8    -0.294607577405E+03   -0.59936E-01   -0.49721E-01 14736   0.200E+00    0.553E-01
DAV:   9    -0.294606719684E+03    0.85772E-03   -0.78666E-02 15156   0.784E-01    0.353E-01
DAV:  10    -0.294604434609E+03    0.22851E-02   -0.23625E-02 15216   0.361E-01    0.201E-01
DAV:  11    -0.294604220868E+03    0.21374E-03   -0.61254E-03 15072   0.168E-01    0.135E-01
DAV:  12    -0.294604896251E+03   -0.67538E-03   -0.10246E-02 17112   0.215E-01    0.124E-01
DAV:  13    -0.294604763104E+03    0.13315E-03   -0.41539E-03 14904   0.161E-01    0.597E-02
DAV:  14    -0.294604926007E+03   -0.16290E-03   -0.14060E-03 14568   0.830E-02    0.573E-02
DAV:  15    -0.294605092192E+03   -0.16618E-03   -0.24239E-03 19428   0.861E-02    0.876E-02
DAV:  16    -0.294604900026E+03    0.19217E-03   -0.11032E-03 17532   0.685E-02    0.200E-02
DAV:  17    -0.294604898155E+03    0.18712E-05   -0.52432E-05 14640   0.189E-02    0.120E-02
DAV:  18    -0.294604897248E+03    0.90743E-06   -0.47168E-05 16152   0.123E-02    0.898E-03
DAV:  19    -0.294604896859E+03    0.38909E-06   -0.17058E-05 14664   0.765E-03    0.781E-03
DAV:  20    -0.294604896236E+03    0.62317E-06   -0.17172E-05 15744   0.605E-03    0.509E-03
DAV:  21    -0.294604896425E+03   -0.18947E-06   -0.12767E-05 17064   0.530E-03    0.575E-03
DAV:  22    -0.294604895902E+03    0.52307E-06   -0.36024E-06 16212   0.288E-03    0.945E-04
DAV:  23    -0.294604895906E+03   -0.38344E-08   -0.87947E-08 14580   0.920E-04
   1 F= -.29980007E+03 E0= -.29980007E+03  d E =0.000000E+00
