 vasp.5.3.5 31Mar14 (build Nov 02 2014 15:17:37) complex                        
  
 executed on        ion-Intel-MKL date 2016.10.18  07:25:21
 running on    6 total cores
 distrk:  each k-point on    6 cores,    1 groups
 distr:  one band on NCORES_PER_BAND=   1 cores,    6 groups


--------------------------------------------------------------------------------------------------------


 INCAR:
 POTCAR:   PAW_PBE C 08Apr2002                    

 ----------------------------------------------------------------------------- 
|                                                                             |
|           W    W    AA    RRRRR   N    N  II  N    N   GGGG   !!!           |
|           W    W   A  A   R    R  NN   N  II  NN   N  G    G  !!!           |
|           W    W  A    A  R    R  N N  N  II  N N  N  G       !!!           |
|           W WW W  AAAAAA  RRRRR   N  N N  II  N  N N  G  GGG   !            |
|           WW  WW  A    A  R   R   N   NN  II  N   NN  G    G                |
|           W    W  A    A  R    R  N    N  II  N    N   GGGG   !!!           |
|                                                                             |
|      For optimal performance we recommend to set                            |
|        NCORE= 4 - approx SQRT( number of cores)                             |
|      NCORE specifies how many cores store one orbital (NPAR=cpu/NCORE).     |
|      This setting can  greatly improve the performance of VASP for DFT.     |
|      The default, NPAR=number of cores might be grossly inefficient         |
|      on modern multi-core architectures or massively parallel machines.     |
|      Do your own testing !!!!                                               |
|      Unfortunately you need to use the default for GW and RPA calculations. |
|      (for HF NCORE is supported but not extensively tested yet)             |
|                                                                             |
 ----------------------------------------------------------------------------- 

 POTCAR:   PAW_PBE C 08Apr2002                    
   VRHFIN =C: s2p2                                                              
   LEXCH  = PE                                                                  
   EATOM  =   147.1560 eV,   10.8157 Ry                                         
                                                                                
   TITEL  = PAW_PBE C 08Apr2002                                                 
   LULTRA =        F    use ultrasoft PP ?                                      
   IUNSCR =        0    unscreen: 0-lin 1-nonlin 2-no                           
   RPACOR =     .000    partial core radius                                     
   POMASS =   12.011; ZVAL   =    4.000    mass and valenz                      
   RCORE  =    1.500    outmost cutoff radius                                   
   RWIGS  =    1.630; RWIGS  =     .863    wigner-seitz radius (au A)           
   ENMAX  =  400.000; ENMIN  =  300.000 eV                                      
   ICORE  =        2    local potential                                         
   LCOR   =        T    correct aug charges                                     
   LPAW   =        T    paw PP                                                  
   EAUG   =  644.873                                                            
   DEXC   =     .000                                                            
   RMAX   =    2.266    core radius for proj-oper                               
   RAUG   =    1.300    factor for augmentation sphere                          
   RDEP   =    1.501    radius for radial grids                                 
   RDEPT  =    1.300    core radius for aug-charge                              
   QCUT   =   -5.516; QGAM   =   11.032    optimization parameters              
                                                                                
   Description                                                                  
     l     E      TYP  RCUT    TYP  RCUT                                        
     0   .000     23  1.200                                                     
     0   .000     23  1.200                                                     
     1   .000     23  1.500                                                     
     1  2.500     23  1.500                                                     
     2   .000      7  1.500                                                     
  local pseudopotential read in
  atomic valenz-charges read in
  non local Contribution for L=           0  read in
    real space projection operators read in
  non local Contribution for L=           0  read in
    real space projection operators read in
  non local Contribution for L=           1  read in
    real space projection operators read in
  non local Contribution for L=           1  read in
    real space projection operators read in
    PAW grid and wavefunctions read in
 
   number of l-projection  operators is LMAX  =           4
   number of lm-projection operators is LMMAX =           8
 

 ----------------------------------------------------------------------------- 
|                                                                             |
|  ADVICE TO THIS USER RUNNING 'VASP/VAMP'   (HEAR YOUR MASTER'S VOICE ...):  |
|                                                                             |
|      You have a (more or less) 'large supercell' and for larger cells       |
|      it might be more efficient to use real space projection operators      |
|      So try LREAL= Auto  in the INCAR   file.                               |
|      Mind: If you want to do a very accurate calculations keep the          |
|      reciprocal projection scheme          (i.e. LREAL=.FALSE.)             |
|                                                                             |
 ----------------------------------------------------------------------------- 

 PAW_PBE C 08Apr2002                    :
 energy of atom  1       EATOM= -147.1560
 kinetic energy error for atom=    0.0016 (will be added to EATOM!!)
 
 
 POSCAR: C                                       
  positions in direct lattice
  No initial velocities read in
 exchange correlation table for  LEXCH =        8
   RHO(1)=    0.500       N(1)  =     2000
   RHO(2)=  100.500       N(2)  =     4000
 


--------------------------------------------------------------------------------------------------------


 ion  position               nearest neighbor table
   1  0.500  0.000  0.126-  20 1.42  18 1.42  19 1.43
   2  1.000  0.000  0.125-  17 1.42  20 1.42  19 1.42
   3  0.500  0.500  0.125-  20 1.42  17 1.42  18 1.42
   4  1.000  0.500  0.125-  19 1.42  18 1.42  17 1.42
   5  0.500  0.000  0.625-  22 1.42  23 1.42  24 1.42
   6  1.000  0.000  0.625-  21 1.42  24 1.42  23 1.42
   7  0.500  0.500  0.625-  24 1.42  21 1.42  22 1.42
   8  1.000  0.500  0.625-  23 1.42  22 1.42  21 1.42
   9  0.000  0.500  0.375-  27 1.42  26 1.42  28 1.42
  10  0.500  0.500  0.375-  28 1.42  25 1.42  27 1.42
  11  0.000  1.000  0.375-  25 1.42  28 1.42  26 1.42
  12  0.500  1.000  0.375-  26 1.42  27 1.42  25 1.42
  13  0.000  0.500  0.875-  31 1.42  30 1.42  32 1.42
  14  0.500  0.500  0.875-  32 1.42  29 1.42  31 1.42
  15  0.000  1.000  0.875-  29 1.42  32 1.42  30 1.42
  16  0.500  1.000  0.875-  30 1.42  31 1.42  29 1.42
  17  0.166  0.334  0.125-   2 1.42   3 1.42   4 1.42
  18  0.666  0.334  0.125-   4 1.42   1 1.42   3 1.42
  19  0.166  0.834  0.125-   4 1.42   2 1.42   1 1.43
  20  0.666  0.834  0.125-   1 1.42   3 1.42   2 1.42
  21  0.166  0.334  0.625-   6 1.42   7 1.42   8 1.42
  22  0.666  0.334  0.625-   5 1.42   8 1.42   7 1.42
  23  0.166  0.834  0.625-   8 1.42   5 1.42   6 1.42
  24  0.666  0.834  0.625-   7 1.42   6 1.42   5 1.42
  25  0.334  0.166  0.375-  11 1.42  10 1.42  12 1.42
  26  0.834  0.166  0.375-  12 1.42   9 1.42  11 1.42
  27  0.334  0.666  0.375-   9 1.42  12 1.42  10 1.42
  28  0.834  0.666  0.375-  10 1.42  11 1.42   9 1.42
  29  0.334  0.166  0.875-  15 1.42  14 1.42  16 1.42
  30  0.834  0.166  0.875-  16 1.42  13 1.42  15 1.42
  31  0.334  0.666  0.875-  13 1.42  16 1.42  14 1.42
  32  0.834  0.666  0.875-  14 1.42  15 1.42  13 1.42
 
  LATTYP: Found a base centered orthorhombic cell.
 ALAT       =     4.9295501972
 B/A-ratio  =     1.7336081796
 C/A-ratio  =     2.6367986748
  
  Lattice vectors:
  
 A1 = (   4.9328744980,  -0.0019192860,   0.0000000000)
 A2 = (  -2.4680993993,   4.2710349859,   0.0000000000)
 A3 = (   0.0000000000,   0.0000000000,  12.9982314272)


Analysis of symmetry for initial positions (statically):
=====================================================================
 Subroutine PRICEL returns:
 Original cell was already a primitive cell.
 

 Routine SETGRP: Setting up the symmetry group for a 
 base centered orthorhombic supercell.


 Subroutine GETGRP returns: Found  1 space group operations
 (whereof  1 operations were pure point group operations)
 out of a pool of  8 trial point group operations.


The static configuration has the point symmetry C_1 .


Analysis of symmetry for dynamics (positions and initial velocities):
=====================================================================
 Subroutine PRICEL returns:
 Original cell was already a primitive cell.
 

 Routine SETGRP: Setting up the symmetry group for a 
 base centered orthorhombic supercell.


 Subroutine GETGRP returns: Found  1 space group operations
 (whereof  1 operations were pure point group operations)
 out of a pool of  8 trial point group operations.


The dynamic configuration has the point symmetry C_1 .
 
 
 KPOINTS: B4C B11C-CBC                            

Automatic generation of k-mesh.
Space group operators:
 irot       det(A)        alpha          n_x          n_y          n_z        tau_x        tau_y        tau_z
    1     1.000000     0.000000     1.000000     0.000000     0.000000     0.000000     0.000000     0.000000
 
 Subroutine IBZKPT returns following result:
 ===========================================
 
 Found     76 irreducible k-points:
 
 Following reciprocal coordinates:
            Coordinates               Weight
  0.000000  0.000000  0.000000      1.000000
  0.166667  0.000000  0.000000      2.000000
  0.333333  0.000000  0.000000      2.000000
  0.500000  0.000000  0.000000      1.000000
 -0.000000  0.166667  0.000000      2.000000
  0.166667  0.166667  0.000000      2.000000
  0.333333  0.166667  0.000000      2.000000
  0.500000  0.166667  0.000000      2.000000
 -0.333333  0.166667  0.000000      2.000000
 -0.166667  0.166667  0.000000      2.000000
  0.000000  0.333333  0.000000      2.000000
  0.166667  0.333333  0.000000      2.000000
  0.333333  0.333333  0.000000      2.000000
  0.500000  0.333333  0.000000      2.000000
 -0.333333  0.333333  0.000000      2.000000
 -0.166667  0.333333  0.000000      2.000000
 -0.000000  0.500000  0.000000      1.000000
  0.166667  0.500000  0.000000      2.000000
  0.333333  0.500000  0.000000      2.000000
  0.500000  0.500000  0.000000      1.000000
  0.000000  0.000000  0.250000      2.000000
  0.166667  0.000000  0.250000      2.000000
  0.333333  0.000000  0.250000      2.000000
  0.500000  0.000000  0.250000      2.000000
 -0.333333  0.000000  0.250000      2.000000
 -0.166667  0.000000  0.250000      2.000000
 -0.000000  0.166667  0.250000      2.000000
  0.166667  0.166667  0.250000      2.000000
  0.333333  0.166667  0.250000      2.000000
  0.500000  0.166667  0.250000      2.000000
 -0.333333  0.166667  0.250000      2.000000
 -0.166667  0.166667  0.250000      2.000000
  0.000000  0.333333  0.250000      2.000000
  0.166667  0.333333  0.250000      2.000000
  0.333333  0.333333  0.250000      2.000000
  0.500000  0.333333  0.250000      2.000000
 -0.333333  0.333333  0.250000      2.000000
 -0.166667  0.333333  0.250000      2.000000
 -0.000000  0.500000  0.250000      2.000000
  0.166667  0.500000  0.250000      2.000000
  0.333333  0.500000  0.250000      2.000000
  0.500000  0.500000  0.250000      2.000000
 -0.333333  0.500000  0.250000      2.000000
 -0.166667  0.500000  0.250000      2.000000
  0.000000 -0.333333  0.250000      2.000000
  0.166667 -0.333333  0.250000      2.000000
  0.333333 -0.333333  0.250000      2.000000
  0.500000 -0.333333  0.250000      2.000000
 -0.333333 -0.333333  0.250000      2.000000
 -0.166667 -0.333333  0.250000      2.000000
  0.000000 -0.166667  0.250000      2.000000
  0.166667 -0.166667  0.250000      2.000000
  0.333333 -0.166667  0.250000      2.000000
  0.500000 -0.166667  0.250000      2.000000
 -0.333333 -0.166667  0.250000      2.000000
 -0.166667 -0.166667  0.250000      2.000000
  0.000000  0.000000  0.500000      1.000000
  0.166667  0.000000  0.500000      2.000000
  0.333333  0.000000  0.500000      2.000000
  0.500000  0.000000  0.500000      1.000000
 -0.000000  0.166667  0.500000      2.000000
  0.166667  0.166667  0.500000      2.000000
  0.333333  0.166667  0.500000      2.000000
  0.500000  0.166667  0.500000      2.000000
 -0.333333  0.166667  0.500000      2.000000
 -0.166667  0.166667  0.500000      2.000000
  0.000000  0.333333  0.500000      2.000000
  0.166667  0.333333  0.500000      2.000000
  0.333333  0.333333  0.500000      2.000000
  0.500000  0.333333  0.500000      2.000000
 -0.333333  0.333333  0.500000      2.000000
 -0.166667  0.333333  0.500000      2.000000
 -0.000000  0.500000  0.500000      1.000000
  0.166667  0.500000  0.500000      2.000000
  0.333333  0.500000  0.500000      2.000000
  0.500000  0.500000  0.500000      1.000000
 
 Following cartesian coordinates:
            Coordinates               Weight
  0.000000  0.000000  0.000000      1.000000
  0.033795  0.019529  0.000000      2.000000
  0.067589  0.039058  0.000000      2.000000
  0.101384  0.058586  0.000000      1.000000
  0.000015  0.039031  0.000000      2.000000
  0.033810  0.058560  0.000000      2.000000
  0.067604  0.078089  0.000000      2.000000
  0.101399  0.097618  0.000000      2.000000
 -0.067574 -0.000026  0.000000      2.000000
 -0.033779  0.019503  0.000000      2.000000
  0.000030  0.078063  0.000000      2.000000
  0.033825  0.097591  0.000000      2.000000
  0.067619  0.117120  0.000000      2.000000
  0.101414  0.136649  0.000000      2.000000
 -0.067559  0.039005  0.000000      2.000000
 -0.033764  0.058534  0.000000      2.000000
  0.000046  0.117094  0.000000      1.000000
  0.033840  0.136623  0.000000      2.000000
  0.067635  0.156152  0.000000      2.000000
  0.101429  0.175680  0.000000      1.000000
  0.000000  0.000000  0.019233      2.000000
  0.033795  0.019529  0.019233      2.000000
  0.067589  0.039058  0.019233      2.000000
  0.101384  0.058586  0.019233      2.000000
 -0.067589 -0.039058  0.019233      2.000000
 -0.033795 -0.019529  0.019233      2.000000
  0.000015  0.039031  0.019233      2.000000
  0.033810  0.058560  0.019233      2.000000
  0.067604  0.078089  0.019233      2.000000
  0.101399  0.097618  0.019233      2.000000
 -0.067574 -0.000026  0.019233      2.000000
 -0.033779  0.019503  0.019233      2.000000
  0.000030  0.078063  0.019233      2.000000
  0.033825  0.097591  0.019233      2.000000
  0.067619  0.117120  0.019233      2.000000
  0.101414  0.136649  0.019233      2.000000
 -0.067559  0.039005  0.019233      2.000000
 -0.033764  0.058534  0.019233      2.000000
  0.000046  0.117094  0.019233      2.000000
  0.033840  0.136623  0.019233      2.000000
  0.067635  0.156152  0.019233      2.000000
  0.101429  0.175680  0.019233      2.000000
 -0.067543  0.078036  0.019233      2.000000
 -0.033749  0.097565  0.019233      2.000000
 -0.000030 -0.078063  0.019233      2.000000
  0.033764 -0.058534  0.019233      2.000000
  0.067559 -0.039005  0.019233      2.000000
  0.101353 -0.019476  0.019233      2.000000
 -0.067619 -0.117120  0.019233      2.000000
 -0.033825 -0.097591  0.019233      2.000000
 -0.000015 -0.039031  0.019233      2.000000
  0.033779 -0.019503  0.019233      2.000000
  0.067574  0.000026  0.019233      2.000000
  0.101368  0.019555  0.019233      2.000000
 -0.067604 -0.078089  0.019233      2.000000
 -0.033810 -0.058560  0.019233      2.000000
  0.000000  0.000000  0.038467      1.000000
  0.033795  0.019529  0.038467      2.000000
  0.067589  0.039058  0.038467      2.000000
  0.101384  0.058586  0.038467      1.000000
  0.000015  0.039031  0.038467      2.000000
  0.033810  0.058560  0.038467      2.000000
  0.067604  0.078089  0.038467      2.000000
  0.101399  0.097618  0.038467      2.000000
 -0.067574 -0.000026  0.038467      2.000000
 -0.033779  0.019503  0.038467      2.000000
  0.000030  0.078063  0.038467      2.000000
  0.033825  0.097591  0.038467      2.000000
  0.067619  0.117120  0.038467      2.000000
  0.101414  0.136649  0.038467      2.000000
 -0.067559  0.039005  0.038467      2.000000
 -0.033764  0.058534  0.038467      2.000000
  0.000046  0.117094  0.038467      1.000000
  0.033840  0.136623  0.038467      2.000000
  0.067635  0.156152  0.038467      2.000000
  0.101429  0.175680  0.038467      1.000000
 
 TETIRR: Found    432 inequivalent tetrahedra from      864


--------------------------------------------------------------------------------------------------------




 Dimension of arrays:
   k-points           NKPTS =     76   k-points in BZ     NKDIM =     76   number of bands    NBANDS=     84
   number of dos      NEDOS =    301   number of ions     NIONS =     32
   non local maximal  LDIM  =      4   non local SUM 2l+1 LMDIM =      8
   total plane-waves  NPLWV = 276480
   max r-space proj   IRMAX =      1   max aug-charges    IRDMAX=  12115
   dimension x,y,z NGX =    48 NGY =   48 NGZ =  120
   dimension x,y,z NGXF=    96 NGYF=   96 NGZF=  240
   support grid    NGXF=    96 NGYF=   96 NGZF=  240
   ions per type =              32
 NGX,Y,Z   is equivalent  to a cutoff of  16.18, 16.18, 15.35 a.u.
 NGXF,Y,Z  is equivalent  to a cutoff of  32.35, 32.35, 30.70 a.u.


 I would recommend the setting:
   dimension x,y,z NGX =    46 NGY =   46 NGZ =  120
 SYSTEM =  graphite                                
 POSCAR =  C                                       

 Startparameter for this run:
   NWRITE =      2    write-flag & timer
   PREC   = accura    normal or accurate (medium, high low for compatibility)
   ISTART =      0    job   : 0-new  1-cont  2-samecut
   ICHARG =      2    charge: 1-file 2-atom 10-const
   ISPIN  =      1    spin polarized calculation?
   LNONCOLLINEAR =      F non collinear calculations
   LSORBIT =      F    spin-orbit coupling
   INIWAV =      1    electr: 0-lowe 1-rand  2-diag
   LASPH  =      F    aspherical Exc in radial PAW
   METAGGA=      F    non-selfconsistent MetaGGA calc.

 Electronic Relaxation 1
   ENCUT  =  800.0 eV  58.80 Ry    7.67 a.u.  11.38 11.38 29.98*2*pi/ulx,y,z
   ENINI  =  800.0     initial cutoff
   ENAUG  =  644.9 eV  augmentation charge cutoff
   NELM   =    200;   NELMIN=  2; NELMDL=  0     # of ELM steps 
   EDIFF  = 0.1E-07   stopping-criterion for ELM
   LREAL  =      F    real-space projection
   NLSPLINE    = F    spline interpolate recip. space projectors
   LCOMPAT=      F    compatible to vasp.4.4
   GGA_COMPAT  = T    GGA compatible to vasp.4.4-vasp.4.6
   LMAXPAW     = -100 max onsite density
   LMAXMIX     =    2 max onsite mixed and CHGCAR
   VOSKOWN=      0    Vosko Wilk Nusair interpolation
   ROPT   =    0.00000
 Ionic relaxation
   EDIFFG = 0.1E-02   stopping-criterion for IOM
   NSW    =      0    number of steps for IOM
   NBLOCK =      1;   KBLOCK =      1    inner block; outer block 
   IBRION =     -1    ionic relax: 0-MD 1-quasi-New 2-CG
   NFREE  =      0    steps in history (QN), initial steepest desc. (CG)
   ISIF   =      2    stress and relaxation
   IWAVPR =     10    prediction:  0-non 1-charg 2-wave 3-comb
   ISYM   =      2    0-nonsym 1-usesym 2-fastsym
   LCORR  =      T    Harris-Foulkes like correction to forces

   POTIM  = 0.5000    time-step for ionic-motion
   TEIN   =    0.0    initial temperature
   TEBEG  =    0.0;   TEEND  =   0.0 temperature during run
   SMASS  =  -3.00    Nose mass-parameter (am)
   estimated Nose-frequenzy (Omega)   =  0.10E-29 period in steps =****** mass=  -0.556E-27a.u.
   SCALEE = 1.0000    scale energy and forces
   NPACO  =    256;   APACO  = 16.0  distance and # of slots for P.C.
   PSTRESS=    0.0 pullay stress

  Mass of Ions in am
   POMASS =  12.01
  Ionic Valenz
   ZVAL   =   4.00
  Atomic Wigner-Seitz radii
   RWIGS  =  -1.00
  virtual crystal weights 
   VCA    =   1.00
   NELECT =     128.0000    total number of electrons
   NUPDOWN=      -1.0000    fix difference up-down

 DOS related values:
   EMIN   =  10.00;   EMAX   =-10.00  energy-range for DOS
   EFERMI =   0.00
   ISMEAR =    -5;   SIGMA  =   0.20  broadening in eV -4-tet -1-fermi 0-gaus

 Electronic relaxation 2 (details)
   IALGO  =     38    algorithm
   LDIAG  =      T    sub-space diagonalisation (order eigenvalues)
   LSUBROT=      F    optimize rotation matrix (better conditioning)
   TURBO    =      0    0=normal 1=particle mesh
   IRESTART =      0    0=no restart 2=restart with 2 vectors
   NREBOOT  =      0    no. of reboots
   NMIN     =      0    reboot dimension
   EREF     =   0.00    reference energy to select bands
   IMIX   =      4    mixing-type and parameters
     AMIX     =   0.40;   BMIX     =  1.00
     AMIX_MAG =   1.60;   BMIX_MAG =  1.00
     AMIN     =   0.10
     WC   =   100.;   INIMIX=   1;  MIXPRE=   1;  MAXMIX= -45

 Intra band minimization:
   WEIMIN = 0.0000     energy-eigenvalue tresh-hold
   EBREAK =  0.30E-10  absolut break condition
   DEPER  =   0.30     relativ break condition  

   TIME   =   0.40     timestep for ELM

  volume/ion in A,a.u.               =       8.56        57.74
  Fermi-wavevector in a.u.,A,eV,Ry     =   1.270588  2.401064 21.965176  1.614395
  Thomas-Fermi vector in A             =   2.403568
 
 Write flags
   LWAVE  =      F    write WAVECAR
   LCHARG =      F    write CHGCAR
   LVTOT  =      F    write LOCPOT, total local potential
   LVHAR  =      F    write LOCPOT, Hartree potential only
   LELF   =      F    write electronic localiz. function (ELF)
   LORBIT =      0    0 simple, 1 ext, 2 COOP (PROOUT)


 Dipole corrections
   LMONO  =      F    monopole corrections only (constant potential shift)
   LDIPOL =      F    correct potential (dipole corrections)
   IDIPOL =      0    1-x, 2-y, 3-z, 4-all directions 
   EPSILON=  1.0000000 bulk dielectric constant

 Exchange correlation treatment:
   GGA     =    PE    GGA type
   LEXCH   =     8    internal setting for exchange type
   VOSKOWN=      0    Vosko Wilk Nusair interpolation
   LHFCALC =     F    Hartree Fock is set to
   LHFONE  =     F    Hartree Fock one center treatment
   AEXX    =    0.0000 exact exchange contribution

 Linear response parameters
   LEPSILON=     F    determine dielectric tensor
   LRPA    =     F    only Hartree local field effects (RPA)
   LNABLA  =     F    use nabla operator in PAW spheres
   LVEL    =     F    velocity operator in full k-point grid
   LINTERFAST=   F  fast interpolation
   KINTER  =     0    interpolate to denser k-point grid
   CSHIFT  =0.1000    complex shift for real part using Kramers Kronig
   OMEGAMAX=  -1.0    maximum frequency
   DEG_THRESHOLD= 0.2000000E-02 threshold for treating states as degnerate
   RTIME   =    0.100 relaxation time in fs

 Orbital magnetization related:
   ORBITALMAG=     F  switch on orbital magnetization
   LCHIMAG   =     F  perturbation theory with respect to B field
   DQ        =  0.001000  dq finite difference perturbation B field



--------------------------------------------------------------------------------------------------------


 Static calculation
 charge density and potential will be updated during run
 non-spin polarized calculation
 Variant of blocked Davidson
 Davidson routine will perform the subspace rotation
 perform sub-space diagonalisation
    after iterative eigenvector-optimisation
 modified Broyden-mixing scheme, WC =      100.0
 initial mixing is a Kerker type mixing with AMIX =  0.4000 and BMIX =      1.0000
 Hartree-type preconditioning will be used
 using additional bands           20
 reciprocal scheme for non local part
 calculate Harris-corrections to forces 
   (improved forces if not selfconsistent)
 use gradient corrections 
 use of overlap-Matrix (Vanderbilt PP)
 Fermi weights with tetrahedron method with Bloechl corrections


--------------------------------------------------------------------------------------------------------


  energy-cutoff  :      800.00
  volume of cell :      273.79
      direct lattice vectors                 reciprocal lattice vectors
     4.932874498 -0.001919286  0.000000000     0.202767147  0.117172881  0.000000000
    -2.468099399  4.271034986  0.000000000     0.000091118  0.234187941  0.000000000
     0.000000000  0.000000000 12.998231427     0.000000000  0.000000000  0.076933543

  length of vectors
     4.932874871  4.932874871 12.998231427     0.234187958  0.234187958  0.076933543


 
 k-points in units of 2pi/SCALE and weight: B4C B11C-CBC                            
   0.00000000  0.00000000  0.00000000       0.007
   0.03379452  0.01952881  0.00000000       0.014
   0.06758905  0.03905763  0.00000000       0.014
   0.10138357  0.05858644  0.00000000       0.007
   0.00001519  0.03903132  0.00000000       0.014
   0.03380971  0.05856014  0.00000000       0.014
   0.06760424  0.07808895  0.00000000       0.014
   0.10139876  0.09761776  0.00000000       0.014
  -0.06757386 -0.00002630  0.00000000       0.014
  -0.03377934  0.01950251  0.00000000       0.014
   0.00003037  0.07806265  0.00000000       0.014
   0.03382490  0.09759146  0.00000000       0.014
   0.06761942  0.11712027  0.00000000       0.014
   0.10141395  0.13664909  0.00000000       0.014
  -0.06755868  0.03900502  0.00000000       0.014
  -0.03376415  0.05853383  0.00000000       0.014
   0.00004556  0.11709397  0.00000000       0.007
   0.03384008  0.13662278  0.00000000       0.014
   0.06763461  0.15615160  0.00000000       0.014
   0.10142913  0.17568041  0.00000000       0.007
   0.00000000  0.00000000  0.01923339       0.014
   0.03379452  0.01952881  0.01923339       0.014
   0.06758905  0.03905763  0.01923339       0.014
   0.10138357  0.05858644  0.01923339       0.014
  -0.06758905 -0.03905763  0.01923339       0.014
  -0.03379452 -0.01952881  0.01923339       0.014
   0.00001519  0.03903132  0.01923339       0.014
   0.03380971  0.05856014  0.01923339       0.014
   0.06760424  0.07808895  0.01923339       0.014
   0.10139876  0.09761776  0.01923339       0.014
  -0.06757386 -0.00002630  0.01923339       0.014
  -0.03377934  0.01950251  0.01923339       0.014
   0.00003037  0.07806265  0.01923339       0.014
   0.03382490  0.09759146  0.01923339       0.014
   0.06761942  0.11712027  0.01923339       0.014
   0.10141395  0.13664909  0.01923339       0.014
  -0.06755868  0.03900502  0.01923339       0.014
  -0.03376415  0.05853383  0.01923339       0.014
   0.00004556  0.11709397  0.01923339       0.014
   0.03384008  0.13662278  0.01923339       0.014
   0.06763461  0.15615160  0.01923339       0.014
   0.10142913  0.17568041  0.01923339       0.014
  -0.06754349  0.07803634  0.01923339       0.014
  -0.03374897  0.09756516  0.01923339       0.014
  -0.00003037 -0.07806265  0.01923339       0.014
   0.03376415 -0.05853383  0.01923339       0.014
   0.06755868 -0.03900502  0.01923339       0.014
   0.10135320 -0.01947621  0.01923339       0.014
  -0.06761942 -0.11712027  0.01923339       0.014
  -0.03382490 -0.09759146  0.01923339       0.014
  -0.00001519 -0.03903132  0.01923339       0.014
   0.03377934 -0.01950251  0.01923339       0.014
   0.06757386  0.00002630  0.01923339       0.014
   0.10136839  0.01955512  0.01923339       0.014
  -0.06760424 -0.07808895  0.01923339       0.014
  -0.03380971 -0.05856014  0.01923339       0.014
   0.00000000  0.00000000  0.03846677       0.007
   0.03379452  0.01952881  0.03846677       0.014
   0.06758905  0.03905763  0.03846677       0.014
   0.10138357  0.05858644  0.03846677       0.007
   0.00001519  0.03903132  0.03846677       0.014
   0.03380971  0.05856014  0.03846677       0.014
   0.06760424  0.07808895  0.03846677       0.014
   0.10139876  0.09761776  0.03846677       0.014
  -0.06757386 -0.00002630  0.03846677       0.014
  -0.03377934  0.01950251  0.03846677       0.014
   0.00003037  0.07806265  0.03846677       0.014
   0.03382490  0.09759146  0.03846677       0.014
   0.06761942  0.11712027  0.03846677       0.014
   0.10141395  0.13664909  0.03846677       0.014
  -0.06755868  0.03900502  0.03846677       0.014
  -0.03376415  0.05853383  0.03846677       0.014
   0.00004556  0.11709397  0.03846677       0.007
   0.03384008  0.13662278  0.03846677       0.014
   0.06763461  0.15615160  0.03846677       0.014
   0.10142913  0.17568041  0.03846677       0.007
 
 k-points in reciprocal lattice and weights: B4C B11C-CBC                            
   0.00000000  0.00000000  0.00000000       0.007
   0.16666667  0.00000000  0.00000000       0.014
   0.33333333  0.00000000  0.00000000       0.014
   0.50000000  0.00000000  0.00000000       0.007
  -0.00000000  0.16666667  0.00000000       0.014
   0.16666667  0.16666667  0.00000000       0.014
   0.33333333  0.16666667  0.00000000       0.014
   0.50000000  0.16666667  0.00000000       0.014
  -0.33333333  0.16666667  0.00000000       0.014
  -0.16666667  0.16666667  0.00000000       0.014
   0.00000000  0.33333333  0.00000000       0.014
   0.16666667  0.33333333  0.00000000       0.014
   0.33333333  0.33333333  0.00000000       0.014
   0.50000000  0.33333333  0.00000000       0.014
  -0.33333333  0.33333333  0.00000000       0.014
  -0.16666667  0.33333333  0.00000000       0.014
  -0.00000000  0.50000000  0.00000000       0.007
   0.16666667  0.50000000  0.00000000       0.014
   0.33333333  0.50000000  0.00000000       0.014
   0.50000000  0.50000000  0.00000000       0.007
   0.00000000  0.00000000  0.25000000       0.014
   0.16666667  0.00000000  0.25000000       0.014
   0.33333333  0.00000000  0.25000000       0.014
   0.50000000  0.00000000  0.25000000       0.014
  -0.33333333  0.00000000  0.25000000       0.014
  -0.16666667  0.00000000  0.25000000       0.014
  -0.00000000  0.16666667  0.25000000       0.014
   0.16666667  0.16666667  0.25000000       0.014
   0.33333333  0.16666667  0.25000000       0.014
   0.50000000  0.16666667  0.25000000       0.014
  -0.33333333  0.16666667  0.25000000       0.014
  -0.16666667  0.16666667  0.25000000       0.014
   0.00000000  0.33333333  0.25000000       0.014
   0.16666667  0.33333333  0.25000000       0.014
   0.33333333  0.33333333  0.25000000       0.014
   0.50000000  0.33333333  0.25000000       0.014
  -0.33333333  0.33333333  0.25000000       0.014
  -0.16666667  0.33333333  0.25000000       0.014
  -0.00000000  0.50000000  0.25000000       0.014
   0.16666667  0.50000000  0.25000000       0.014
   0.33333333  0.50000000  0.25000000       0.014
   0.50000000  0.50000000  0.25000000       0.014
  -0.33333333  0.50000000  0.25000000       0.014
  -0.16666667  0.50000000  0.25000000       0.014
   0.00000000 -0.33333333  0.25000000       0.014
   0.16666667 -0.33333333  0.25000000       0.014
   0.33333333 -0.33333333  0.25000000       0.014
   0.50000000 -0.33333333  0.25000000       0.014
  -0.33333333 -0.33333333  0.25000000       0.014
  -0.16666667 -0.33333333  0.25000000       0.014
   0.00000000 -0.16666667  0.25000000       0.014
   0.16666667 -0.16666667  0.25000000       0.014
   0.33333333 -0.16666667  0.25000000       0.014
   0.50000000 -0.16666667  0.25000000       0.014
  -0.33333333 -0.16666667  0.25000000       0.014
  -0.16666667 -0.16666667  0.25000000       0.014
   0.00000000  0.00000000  0.50000000       0.007
   0.16666667  0.00000000  0.50000000       0.014
   0.33333333  0.00000000  0.50000000       0.014
   0.50000000  0.00000000  0.50000000       0.007
  -0.00000000  0.16666667  0.50000000       0.014
   0.16666667  0.16666667  0.50000000       0.014
   0.33333333  0.16666667  0.50000000       0.014
   0.50000000  0.16666667  0.50000000       0.014
  -0.33333333  0.16666667  0.50000000       0.014
  -0.16666667  0.16666667  0.50000000       0.014
   0.00000000  0.33333333  0.50000000       0.014
   0.16666667  0.33333333  0.50000000       0.014
   0.33333333  0.33333333  0.50000000       0.014
   0.50000000  0.33333333  0.50000000       0.014
  -0.33333333  0.33333333  0.50000000       0.014
  -0.16666667  0.33333333  0.50000000       0.014
  -0.00000000  0.50000000  0.50000000       0.007
   0.16666667  0.50000000  0.50000000       0.014
   0.33333333  0.50000000  0.50000000       0.014
   0.50000000  0.50000000  0.50000000       0.007
 
 position of ions in fractional coordinates (direct lattice) 
   0.50039259  0.00032672  0.12571928
   0.99967330  0.00032672  0.12500000
   0.49967330  0.50032672  0.12500000
   0.99967330  0.50032672  0.12500000
   0.49967330  0.00032672  0.62500000
   0.99967330  0.00032672  0.62500000
   0.49967330  0.50032672  0.62500000
   0.99967330  0.50032672  0.62500000
   0.00032672  0.49967330  0.37500000
   0.50032672  0.49967330  0.37500000
   0.00032672  0.99967330  0.37500000
   0.50032672  0.99967330  0.37500000
   0.00032672  0.49967330  0.87500000
   0.50032672  0.49967330  0.87500000
   0.00032672  0.99967330  0.87500000
   0.50032672  0.99967330  0.87500000
   0.16629246  0.33370753  0.12500000
   0.66629246  0.33370753  0.12500000
   0.16629246  0.83370753  0.12500000
   0.66629246  0.83370753  0.12500000
   0.16629246  0.33370753  0.62500000
   0.66629246  0.33370753  0.62500000
   0.16629246  0.83370753  0.62500000
   0.66629246  0.83370753  0.62500000
   0.33370753  0.16629246  0.37500000
   0.83370753  0.16629246  0.37500000
   0.33370753  0.66629246  0.37500000
   0.83370753  0.66629246  0.37500000
   0.33370753  0.16629246  0.87500000
   0.83370753  0.16629246  0.87500000
   0.33370753  0.66629246  0.87500000
   0.83370753  0.66629246  0.87500000
 
 position of ions in cartesian coordinates  (Angst):
   2.46756745  0.00043503  1.63412830
   4.93045658 -0.00052323  1.62477893
   1.22996963  2.13595390  1.62477893
   3.69640688  2.13499426  1.62477893
   2.46401933  0.00043641  8.12389464
   4.93045658 -0.00052323  8.12389464
   1.22996963  2.13595390  8.12389464
   3.69640688  2.13499426  8.12389464
  -1.23163172  2.13412154  4.87433679
   1.23480553  2.13316189  4.87433679
  -2.46568142  4.26963903  4.87433679
   0.00075583  4.26867939  4.87433679
  -1.23163172  2.13412154 11.37345250
   1.23480553  2.13316189 11.37345250
  -2.46568142  4.26963903 11.37345250
   0.00075583  4.26867939 11.37345250
  -0.00332350  1.42495737  1.62477893
   2.46311374  1.42399773  1.62477893
  -1.23737320  3.56047486  1.62477893
   1.22906405  3.55951522  1.62477893
  -0.00332350  1.42495737  8.12389464
   2.46311374  1.42399773  8.12389464
  -1.23737320  3.56047486  8.12389464
   1.22906405  3.55951522  8.12389464
   1.23571103  0.70960044  4.87433679
   3.70214828  0.70864080  4.87433679
   0.00166133  2.84511794  4.87433679
   2.46809858  2.84415829  4.87433679
   1.23571103  0.70960044 11.37345250
   3.70214828  0.70864080 11.37345250
   0.00166133  2.84511794 11.37345250
   2.46809858  2.84415829 11.37345250
 


--------------------------------------------------------------------------------------------------------


 k-point  1 :   0.0000 0.0000 0.0000  plane waves:   14055
 k-point  2 :   0.1667 0.0000 0.0000  plane waves:   14086
 k-point  3 :   0.3333 0.0000 0.0000  plane waves:   14060
 k-point  4 :   0.5000 0.0000 0.0000  plane waves:   14092
 k-point  5 :  -0.0000 0.1667 0.0000  plane waves:   14086
 k-point  6 :   0.1667 0.1667 0.0000  plane waves:   14087
 k-point  7 :   0.3333 0.1667 0.0000  plane waves:   14041
 k-point  8 :   0.5000 0.1667 0.0000  plane waves:   14043
 k-point  9 :  -0.3333 0.1667 0.0000  plane waves:   14089
 k-point 10 :  -0.1667 0.1667 0.0000  plane waves:   14090
 k-point 11 :   0.0000 0.3333 0.0000  plane waves:   14060
 k-point 12 :   0.1667 0.3333 0.0000  plane waves:   14041
 k-point 13 :   0.3333 0.3333 0.0000  plane waves:   14040
 k-point 14 :   0.5000 0.3333 0.0000  plane waves:   14043
 k-point 15 :  -0.3333 0.3333 0.0000  plane waves:   14074
 k-point 16 :  -0.1667 0.3333 0.0000  plane waves:   14089
 k-point 17 :  -0.0000 0.5000 0.0000  plane waves:   14092
 k-point 18 :   0.1667 0.5000 0.0000  plane waves:   14043
 k-point 19 :   0.3333 0.5000 0.0000  plane waves:   14043
 k-point 20 :   0.5000 0.5000 0.0000  plane waves:   14072
 k-point 21 :   0.0000 0.0000 0.2500  plane waves:   14100
 k-point 22 :   0.1667 0.0000 0.2500  plane waves:   14102
 k-point 23 :   0.3333 0.0000 0.2500  plane waves:   14065
 k-point 24 :   0.5000 0.0000 0.2500  plane waves:   14074
 k-point 25 :  -0.3333 0.0000 0.2500  plane waves:   14065
 k-point 26 :  -0.1667 0.0000 0.2500  plane waves:   14102
 k-point 27 :  -0.0000 0.1667 0.2500  plane waves:   14102
 k-point 28 :   0.1667 0.1667 0.2500  plane waves:   14078
 k-point 29 :   0.3333 0.1667 0.2500  plane waves:   14055
 k-point 30 :   0.5000 0.1667 0.2500  plane waves:   14052
 k-point 31 :  -0.3333 0.1667 0.2500  plane waves:   14073
 k-point 32 :  -0.1667 0.1667 0.2500  plane waves:   14101
 k-point 33 :   0.0000 0.3333 0.2500  plane waves:   14065
 k-point 34 :   0.1667 0.3333 0.2500  plane waves:   14055
 k-point 35 :   0.3333 0.3333 0.2500  plane waves:   14055
 k-point 36 :   0.5000 0.3333 0.2500  plane waves:   14053
 k-point 37 :  -0.3333 0.3333 0.2500  plane waves:   14060
 k-point 38 :  -0.1667 0.3333 0.2500  plane waves:   14073
 k-point 39 :  -0.0000 0.5000 0.2500  plane waves:   14074
 k-point 40 :   0.1667 0.5000 0.2500  plane waves:   14052
 k-point 41 :   0.3333 0.5000 0.2500  plane waves:   14053
 k-point 42 :   0.5000 0.5000 0.2500  plane waves:   14062
 k-point 43 :  -0.3333 0.5000 0.2500  plane waves:   14053
 k-point 44 :  -0.1667 0.5000 0.2500  plane waves:   14052
 k-point 45 :   0.0000-0.3333 0.2500  plane waves:   14065
 k-point 46 :   0.1667-0.3333 0.2500  plane waves:   14073
 k-point 47 :   0.3333-0.3333 0.2500  plane waves:   14060
 k-point 48 :   0.5000-0.3333 0.2500  plane waves:   14053
 k-point 49 :  -0.3333-0.3333 0.2500  plane waves:   14055
 k-point 50 :  -0.1667-0.3333 0.2500  plane waves:   14055
 k-point 51 :   0.0000-0.1667 0.2500  plane waves:   14102
 k-point 52 :   0.1667-0.1667 0.2500  plane waves:   14101
 k-point 53 :   0.3333-0.1667 0.2500  plane waves:   14073
 k-point 54 :   0.5000-0.1667 0.2500  plane waves:   14052
 k-point 55 :  -0.3333-0.1667 0.2500  plane waves:   14055
 k-point 56 :  -0.1667-0.1667 0.2500  plane waves:   14078
 k-point 57 :   0.0000 0.0000 0.5000  plane waves:   14060
 k-point 58 :   0.1667 0.0000 0.5000  plane waves:   14124
 k-point 59 :   0.3333 0.0000 0.5000  plane waves:   14050
 k-point 60 :   0.5000 0.0000 0.5000  plane waves:   14048
 k-point 61 :  -0.0000 0.1667 0.5000  plane waves:   14124
 k-point 62 :   0.1667 0.1667 0.5000  plane waves:   14064
 k-point 63 :   0.3333 0.1667 0.5000  plane waves:   14058
 k-point 64 :   0.5000 0.1667 0.5000  plane waves:   14066
 k-point 65 :  -0.3333 0.1667 0.5000  plane waves:   14076
 k-point 66 :  -0.1667 0.1667 0.5000  plane waves:   14126
 k-point 67 :   0.0000 0.3333 0.5000  plane waves:   14050
 k-point 68 :   0.1667 0.3333 0.5000  plane waves:   14058
 k-point 69 :   0.3333 0.3333 0.5000  plane waves:   14048
 k-point 70 :   0.5000 0.3333 0.5000  plane waves:   14062
 k-point 71 :  -0.3333 0.3333 0.5000  plane waves:   14054
 k-point 72 :  -0.1667 0.3333 0.5000  plane waves:   14076
 k-point 73 :  -0.0000 0.5000 0.5000  plane waves:   14048
 k-point 74 :   0.1667 0.5000 0.5000  plane waves:   14066
 k-point 75 :   0.3333 0.5000 0.5000  plane waves:   14062
 k-point 76 :   0.5000 0.5000 0.5000  plane waves:   14048

 maximum and minimum number of plane-waves per node :     14126    14040

 maximum number of plane-waves:     14126
 maximum index in each direction: 
   IXMAX=   11   IYMAX=   11   IZMAX=   29
   IXMIN=  -11   IYMIN=  -11   IZMIN=  -30

 NGX is ok and might be reduce to  46
 NGY is ok and might be reduce to  46
 NGZ is ok and might be reduce to 120

 serial   3D FFT for wavefunctions
 parallel 3D FFT for charge:
    minimum data exchange during FFTs selected (reduces bandwidth)


 total amount of memory used by VASP on root node   393471. kBytes
========================================================================

   base      :      30000. kBytes
   nonl-proj :      75962. kBytes
   fftplans  :      13581. kBytes
   grid      :      28889. kBytes
   one-center:         98. kBytes
   wavefun   :     244941. kBytes
 
     INWAV:  cpu time    0.00: real time    0.00
 Broyden mixing: mesh for mixing (old mesh)
   NGX = 23   NGY = 23   NGZ = 59
  (NGX  = 96   NGY  = 96   NGZ  =240)
  gives a total of  31211 points

 initial charge density was supplied:
 charge density of overlapping atoms calculated
 number of electron     128.0000000 magnetization 
 keeping initial charge density in first step


--------------------------------------------------------------------------------------------------------


 Maximum index for augmentation-charges         1956 (set IRDMAX)


--------------------------------------------------------------------------------------------------------


 First call to EWALD:  gamma=   0.273
 Maximum number of real-space cells 4x 4x 2
 Maximum number of reciprocal cells 2x 2x 5

 FEWALD executed in parallel
    FEWALD:  cpu time    0.01: real time    0.01


----------------------------------------- Iteration    1(   1)  ---------------------------------------


    POTLOK:  cpu time    1.11: real time    1.11
    SETDIJ:  cpu time    0.03: real time    0.03
     EDDAV:  cpu time  173.32: real time  173.41
 BZINTS: Fermi energy: 17.576497;128.000000 electrons
         Band energy: 202.122678;  BLOECHL correction: -0.124076
       DOS:  cpu time    0.09: real time    0.09
    --------------------------------------------
      LOOP:  cpu time  174.55: real time  174.67

 eigenvalue-minimisations  : 12768
 total energy-change (2. order) : 0.6924946E+03  (-0.8460196E+04)
 number of electron     128.0000000 magnetization 
 augmentation part      128.0000000 magnetization 

 Free energy of the ion-electron system (eV)
  ---------------------------------------------------
  alpha Z        PSCENC =       304.74181339
  Ewald energy   TEWEN  =     -3840.31149713
  -Hartree energ DENC   =     -1089.76501562
  -exchange      EXHF   =         0.00000000
  -V(xc)+E(xc)   XCENC  =       443.58043522
  PAW double counting   =      1210.60617908    -1247.42152856
  entropy T*S    EENTRO =         0.00000000
  eigenvalues    EBANDS =       202.12267767
  atomic energy  EATOM  =      4708.94155045
  ---------------------------------------------------
  free energy    TOTEN  =       692.49461450 eV

  energy without entropy =      692.49461450  energy(sigma->0) =      692.49461450


--------------------------------------------------------------------------------------------------------




----------------------------------------- Iteration    1(   2)  ---------------------------------------


     EDDAV:  cpu time  203.87: real time  203.97
 BZINTS: Fermi energy:  4.173079;128.000000 electrons
         Band energy:-746.404472;  BLOECHL correction:  0.000000
       DOS:  cpu time    0.02: real time    0.02
    --------------------------------------------
      LOOP:  cpu time  203.90: real time  204.00

 eigenvalue-minimisations  : 15840
 total energy-change (2. order) :-0.9485271E+03  (-0.9130013E+03)
 number of electron     128.0000000 magnetization 
 augmentation part      128.0000000 magnetization 

 Free energy of the ion-electron system (eV)
  ---------------------------------------------------
  alpha Z        PSCENC =       304.74181339
  Ewald energy   TEWEN  =     -3840.31149713
  -Hartree energ DENC   =     -1089.76501562
  -exchange      EXHF   =         0.00000000
  -V(xc)+E(xc)   XCENC  =       443.58043522
  PAW double counting   =      1210.60617908    -1247.42152856
  entropy T*S    EENTRO =         0.00000000
  eigenvalues    EBANDS =      -746.40447186
  atomic energy  EATOM  =      4708.94155045
  ---------------------------------------------------
  free energy    TOTEN  =      -256.03253503 eV

  energy without entropy =     -256.03253503  energy(sigma->0) =     -256.03253503


--------------------------------------------------------------------------------------------------------




----------------------------------------- Iteration    1(   3)  ---------------------------------------


     EDDAV:  cpu time  195.94: real time  196.04
 BZINTS: Fermi energy:  3.541205;128.000000 electrons
         Band energy:-802.568821;  BLOECHL correction: -0.000003
       DOS:  cpu time    0.04: real time    0.04
    --------------------------------------------
      LOOP:  cpu time  195.99: real time  196.09

 eigenvalue-minimisations  : 15468
 total energy-change (2. order) :-0.5616435E+02  (-0.5554259E+02)
 number of electron     128.0000000 magnetization 
 augmentation part      128.0000000 magnetization 

 Free energy of the ion-electron system (eV)
  ---------------------------------------------------
  alpha Z        PSCENC =       304.74181339
  Ewald energy   TEWEN  =     -3840.31149713
  -Hartree energ DENC   =     -1089.76501562
  -exchange      EXHF   =         0.00000000
  -V(xc)+E(xc)   XCENC  =       443.58043522
  PAW double counting   =      1210.60617908    -1247.42152856
  entropy T*S    EENTRO =         0.00000000
  eigenvalues    EBANDS =      -802.56882057
  atomic energy  EATOM  =      4708.94155045
  ---------------------------------------------------
  free energy    TOTEN  =      -312.19688375 eV

  energy without entropy =     -312.19688375  energy(sigma->0) =     -312.19688375


--------------------------------------------------------------------------------------------------------




----------------------------------------- Iteration    1(   4)  ---------------------------------------


     EDDAV:  cpu time  169.06: real time  169.14
 BZINTS: Fermi energy:  3.533756;128.000000 electrons
         Band energy:-803.657363;  BLOECHL correction:  0.000000
       DOS:  cpu time    0.03: real time    0.03
    --------------------------------------------
      LOOP:  cpu time  169.10: real time  169.19

 eigenvalue-minimisations  : 15876
 total energy-change (2. order) :-0.1088542E+01  (-0.1086228E+01)
 number of electron     128.0000000 magnetization 
 augmentation part      128.0000000 magnetization 

 Free energy of the ion-electron system (eV)
  ---------------------------------------------------
  alpha Z        PSCENC =       304.74181339
  Ewald energy   TEWEN  =     -3840.31149713
  -Hartree energ DENC   =     -1089.76501562
  -exchange      EXHF   =         0.00000000
  -V(xc)+E(xc)   XCENC  =       443.58043522
  PAW double counting   =      1210.60617908    -1247.42152856
  entropy T*S    EENTRO =         0.00000000
  eigenvalues    EBANDS =      -803.65736283
  atomic energy  EATOM  =      4708.94155045
  ---------------------------------------------------
  free energy    TOTEN  =      -313.28542600 eV

  energy without entropy =     -313.28542600  energy(sigma->0) =     -313.28542600


--------------------------------------------------------------------------------------------------------




----------------------------------------- Iteration    1(   5)  ---------------------------------------


     EDDAV:  cpu time  208.95: real time  209.05
 BZINTS: Fermi energy:  3.534910;128.000000 electrons
         Band energy:-803.689655;  BLOECHL correction: -0.000000
       DOS:  cpu time    0.03: real time    0.03
    CHARGE:  cpu time    9.36: real time    9.36
    MIXING:  cpu time    0.02: real time    0.02
    --------------------------------------------
      LOOP:  cpu time  218.36: real time  218.47

 eigenvalue-minimisations  : 16320
 total energy-change (2. order) :-0.3229201E-01  (-0.3228031E-01)
 number of electron     127.9999993 magnetization 
 augmentation part        3.3893833 magnetization 

 Broyden mixing:
  rms(total) = 0.22077E+01    rms(broyden)= 0.22077E+01
  rms(prec ) = 0.26287E+01
  weight for this iteration     100.00

 Free energy of the ion-electron system (eV)
  ---------------------------------------------------
  alpha Z        PSCENC =       304.74181339
  Ewald energy   TEWEN  =     -3840.31149713
  -Hartree energ DENC   =     -1089.76501562
  -exchange      EXHF   =         0.00000000
  -V(xc)+E(xc)   XCENC  =       443.58043522
  PAW double counting   =      1210.60617908    -1247.42152856
  entropy T*S    EENTRO =         0.00000000
  eigenvalues    EBANDS =      -803.68965484
  atomic energy  EATOM  =      4708.94155045
  ---------------------------------------------------
  free energy    TOTEN  =      -313.31771801 eV

  energy without entropy =     -313.31771801  energy(sigma->0) =     -313.31771801


--------------------------------------------------------------------------------------------------------




----------------------------------------- Iteration    1(   6)  ---------------------------------------


    POTLOK:  cpu time    1.32: real time    1.32
    SETDIJ:  cpu time    0.03: real time    0.03
     EDDAV:  cpu time  197.07: real time  197.17
 BZINTS: Fermi energy:  4.259008;128.000000 electrons
         Band energy:-667.780857;  BLOECHL correction:  0.000000
       DOS:  cpu time    0.03: real time    0.03
    CHARGE:  cpu time    7.32: real time    7.32
    MIXING:  cpu time    0.02: real time    0.02
    --------------------------------------------
      LOOP:  cpu time  205.78: real time  205.89

 eigenvalue-minimisations  : 14592
 total energy-change (2. order) : 0.1427647E+02  (-0.1472494E+01)
 number of electron     127.9999993 magnetization 
 augmentation part        3.2346225 magnetization 

 Broyden mixing:
  rms(total) = 0.11579E+01    rms(broyden)= 0.11579E+01
  rms(prec ) = 0.13679E+01
  weight for this iteration     100.00

 eigenvalues of (default mixing * dielectric matrix)
  average eigenvalue GAMMA=   2.0353
  2.0353

 Free energy of the ion-electron system (eV)
  ---------------------------------------------------
  alpha Z        PSCENC =       304.74181339
  Ewald energy   TEWEN  =     -3840.31149713
  -Hartree energ DENC   =     -1216.82908230
  -exchange      EXHF   =         0.00000000
  -V(xc)+E(xc)   XCENC  =       451.88788389
  PAW double counting   =      1641.38412685    -1681.07518316
  entropy T*S    EENTRO =         0.00000000
  eigenvalues    EBANDS =      -667.78085658
  atomic energy  EATOM  =      4708.94155045
  ---------------------------------------------------
  free energy    TOTEN  =      -299.04124459 eV

  energy without entropy =     -299.04124459  energy(sigma->0) =     -299.04124459


--------------------------------------------------------------------------------------------------------




----------------------------------------- Iteration    1(   7)  ---------------------------------------


    POTLOK:  cpu time    1.21: real time    1.21
    SETDIJ:  cpu time    0.02: real time    0.02
     EDDAV:  cpu time  187.58: real time  187.68
 BZINTS: Fermi energy:  4.964776;128.000000 electrons
         Band energy:-529.728747;  BLOECHL correction:  0.000000
       DOS:  cpu time    0.03: real time    0.03
    CHARGE:  cpu time    7.72: real time    7.72
    MIXING:  cpu time    0.02: real time    0.02
    --------------------------------------------
      LOOP:  cpu time  196.58: real time  196.69

 eigenvalue-minimisations  : 14484
 total energy-change (2. order) : 0.4493603E+01  (-0.1531280E+01)
 number of electron     127.9999993 magnetization 
 augmentation part        3.0707192 magnetization 

 Broyden mixing:
  rms(total) = 0.19170E+00    rms(broyden)= 0.19169E+00
  rms(prec ) = 0.20771E+00
  weight for this iteration     100.00

 eigenvalues of (default mixing * dielectric matrix)
  average eigenvalue GAMMA=   2.1345
  2.1345  2.1345

 Free energy of the ion-electron system (eV)
  ---------------------------------------------------
  alpha Z        PSCENC =       304.74181339
  Ewald energy   TEWEN  =     -3840.31149713
  -Hartree energ DENC   =     -1357.48071147
  -exchange      EXHF   =         0.00000000
  -V(xc)+E(xc)   XCENC  =       461.31482893
  PAW double counting   =      2179.48402703    -2221.50890502
  entropy T*S    EENTRO =         0.00000000
  eigenvalues    EBANDS =      -529.72874733
  atomic energy  EATOM  =      4708.94155045
  ---------------------------------------------------
  free energy    TOTEN  =      -294.54764114 eV

  energy without entropy =     -294.54764114  energy(sigma->0) =     -294.54764114


--------------------------------------------------------------------------------------------------------




----------------------------------------- Iteration    1(   8)  ---------------------------------------


    POTLOK:  cpu time    1.49: real time    1.49
    SETDIJ:  cpu time    0.03: real time    0.03
     EDDAV:  cpu time  188.54: real time  188.63
 BZINTS: Fermi energy:  4.912620;128.000000 electrons
         Band energy:-532.659788;  BLOECHL correction:  0.000000
       DOS:  cpu time    0.02: real time    0.03
    CHARGE:  cpu time    7.99: real time    7.99
    MIXING:  cpu time    0.02: real time    0.02
    --------------------------------------------
      LOOP:  cpu time  198.09: real time  198.19

 eigenvalue-minimisations  : 14736
 total energy-change (2. order) :-0.5993626E-01  (-0.4972101E-01)
 number of electron     127.9999993 magnetization 
 augmentation part        3.0650026 magnetization 

 Broyden mixing:
  rms(total) = 0.55348E-01    rms(broyden)= 0.55345E-01
  rms(prec ) = 0.88557E-01
  weight for this iteration     100.00

 eigenvalues of (default mixing * dielectric matrix)
  average eigenvalue GAMMA=   1.6642
  2.3775  2.0241  0.5911

 Free energy of the ion-electron system (eV)
  ---------------------------------------------------
  alpha Z        PSCENC =       304.74181339
  Ewald energy   TEWEN  =     -3840.31149713
  -Hartree energ DENC   =     -1355.18970353
  -exchange      EXHF   =         0.00000000
  -V(xc)+E(xc)   XCENC  =       461.19448143
  PAW double counting   =      2209.94601513    -2251.27044896
  entropy T*S    EENTRO =         0.00000000
  eigenvalues    EBANDS =      -532.65978818
  atomic energy  EATOM  =      4708.94155045
  ---------------------------------------------------
  free energy    TOTEN  =      -294.60757740 eV

  energy without entropy =     -294.60757740  energy(sigma->0) =     -294.60757740


--------------------------------------------------------------------------------------------------------




----------------------------------------- Iteration    1(   9)  ---------------------------------------


    POTLOK:  cpu time    1.50: real time    1.50
    SETDIJ:  cpu time    0.03: real time    0.03
     EDDAV:  cpu time  191.20: real time  191.30
 BZINTS: Fermi energy:  4.940273;128.000000 electrons
         Band energy:-531.772781;  BLOECHL correction:  0.000000
       DOS:  cpu time    0.02: real time    0.02
    CHARGE:  cpu time    8.23: real time    8.24
    MIXING:  cpu time    0.02: real time    0.02
    --------------------------------------------
      LOOP:  cpu time  201.02: real time  201.12

 eigenvalue-minimisations  : 15156
 total energy-change (2. order) : 0.8577202E-03  (-0.7866584E-02)
 number of electron     127.9999993 magnetization 
 augmentation part        3.0628583 magnetization 

 Broyden mixing:
  rms(total) = 0.35290E-01    rms(broyden)= 0.35289E-01
  rms(prec ) = 0.54414E-01
  weight for this iteration     100.00

 eigenvalues of (default mixing * dielectric matrix)
  average eigenvalue GAMMA=   1.3587
  2.4061  2.0155  0.5066  0.5066

 Free energy of the ion-electron system (eV)
  ---------------------------------------------------
  alpha Z        PSCENC =       304.74181339
  Ewald energy   TEWEN  =     -3840.31149713
  -Hartree energ DENC   =     -1356.24673498
  -exchange      EXHF   =         0.00000000
  -V(xc)+E(xc)   XCENC  =       461.27737030
  PAW double counting   =      2219.01360265    -2260.25004345
  entropy T*S    EENTRO =         0.00000000
  eigenvalues    EBANDS =      -531.77278092
  atomic energy  EATOM  =      4708.94155045
  ---------------------------------------------------
  free energy    TOTEN  =      -294.60671968 eV

  energy without entropy =     -294.60671968  energy(sigma->0) =     -294.60671968


--------------------------------------------------------------------------------------------------------




----------------------------------------- Iteration    1(  10)  ---------------------------------------


    POTLOK:  cpu time    1.29: real time    1.30
    SETDIJ:  cpu time    0.03: real time    0.03
     EDDAV:  cpu time  189.16: real time  189.26
 BZINTS: Fermi energy:  4.942402;128.000000 electrons
         Band energy:-531.387660;  BLOECHL correction:  0.000000
       DOS:  cpu time    0.02: real time    0.03
    CHARGE:  cpu time    7.72: real time    7.72
    MIXING:  cpu time    0.02: real time    0.03
    --------------------------------------------
      LOOP:  cpu time  198.25: real time  198.36

 eigenvalue-minimisations  : 15216
 total energy-change (2. order) : 0.2285075E-02  (-0.2362451E-02)
 number of electron     127.9999993 magnetization 
 augmentation part        3.0620795 magnetization 

 Broyden mixing:
  rms(total) = 0.20124E-01    rms(broyden)= 0.20123E-01
  rms(prec ) = 0.37012E-01
  weight for this iteration     100.00

 eigenvalues of (default mixing * dielectric matrix)
  average eigenvalue GAMMA=   1.1980
  2.4273  2.0046  0.5762  0.5762  0.4054

 Free energy of the ion-electron system (eV)
  ---------------------------------------------------
  alpha Z        PSCENC =       304.74181339
  Ewald energy   TEWEN  =     -3840.31149713
  -Hartree energ DENC   =     -1356.67106315
  -exchange      EXHF   =         0.00000000
  -V(xc)+E(xc)   XCENC  =       461.30912554
  PAW double counting   =      2220.85730434    -2262.08400833
  entropy T*S    EENTRO =         0.00000000
  eigenvalues    EBANDS =      -531.38765972
  atomic energy  EATOM  =      4708.94155045
  ---------------------------------------------------
  free energy    TOTEN  =      -294.60443461 eV

  energy without entropy =     -294.60443461  energy(sigma->0) =     -294.60443461


--------------------------------------------------------------------------------------------------------




----------------------------------------- Iteration    1(  11)  ---------------------------------------


    POTLOK:  cpu time    1.27: real time    1.27
    SETDIJ:  cpu time    0.02: real time    0.02
     EDDAV:  cpu time  190.50: real time  190.60
 BZINTS: Fermi energy:  4.942963;128.000000 electrons
         Band energy:-531.221920;  BLOECHL correction:  0.000000
       DOS:  cpu time    0.02: real time    0.02
    CHARGE:  cpu time    7.79: real time    7.79
    MIXING:  cpu time    0.02: real time    0.02
    --------------------------------------------
      LOOP:  cpu time  199.63: real time  199.73

 eigenvalue-minimisations  : 15072
 total energy-change (2. order) : 0.2137410E-03  (-0.6125406E-03)
 number of electron     127.9999993 magnetization 
 augmentation part        3.0617344 magnetization 

 Broyden mixing:
  rms(total) = 0.13458E-01    rms(broyden)= 0.13458E-01
  rms(prec ) = 0.20823E-01
  weight for this iteration     100.00

 eigenvalues of (default mixing * dielectric matrix)
  average eigenvalue GAMMA=   1.1316
  2.4815  1.9707  0.9265  0.7025  0.5056  0.2029

 Free energy of the ion-electron system (eV)
  ---------------------------------------------------
  alpha Z        PSCENC =       304.74181339
  Ewald energy   TEWEN  =     -3840.31149713
  -Hartree energ DENC   =     -1356.84933649
  -exchange      EXHF   =         0.00000000
  -V(xc)+E(xc)   XCENC  =       461.32215605
  PAW double counting   =      2221.33117581    -2262.55816344
  entropy T*S    EENTRO =         0.00000000
  eigenvalues    EBANDS =      -531.22191951
  atomic energy  EATOM  =      4708.94155045
  ---------------------------------------------------
  free energy    TOTEN  =      -294.60422087 eV

  energy without entropy =     -294.60422087  energy(sigma->0) =     -294.60422087


--------------------------------------------------------------------------------------------------------




----------------------------------------- Iteration    1(  12)  ---------------------------------------


    POTLOK:  cpu time    1.30: real time    1.30
    SETDIJ:  cpu time    0.03: real time    0.03
     EDDAV:  cpu time  206.21: real time  206.32
 BZINTS: Fermi energy:  4.948514;128.000000 electrons
         Band energy:-530.451038;  BLOECHL correction:  0.000000
       DOS:  cpu time    0.02: real time    0.02
    CHARGE:  cpu time    7.78: real time    7.78
    MIXING:  cpu time    0.02: real time    0.02
    --------------------------------------------
      LOOP:  cpu time  215.37: real time  215.48

 eigenvalue-minimisations  : 17112
 total energy-change (2. order) :-0.6753824E-03  (-0.1024566E-02)
 number of electron     127.9999993 magnetization 
 augmentation part        3.0612385 magnetization 

 Broyden mixing:
  rms(total) = 0.12437E-01    rms(broyden)= 0.12436E-01
  rms(prec ) = 0.21504E-01
  weight for this iteration     100.00

 eigenvalues of (default mixing * dielectric matrix)
  average eigenvalue GAMMA=   1.1870
  2.6552  1.8743  1.8743  0.6383  0.6383  0.4226  0.2058

 Free energy of the ion-electron system (eV)
  ---------------------------------------------------
  alpha Z        PSCENC =       304.74181339
  Ewald energy   TEWEN  =     -3840.31149713
  -Hartree energ DENC   =     -1357.68007012
  -exchange      EXHF   =         0.00000000
  -V(xc)+E(xc)   XCENC  =       461.38302200
  PAW double counting   =      2223.43891845    -2264.66759548
  entropy T*S    EENTRO =         0.00000000
  eigenvalues    EBANDS =      -530.45103781
  atomic energy  EATOM  =      4708.94155045
  ---------------------------------------------------
  free energy    TOTEN  =      -294.60489625 eV

  energy without entropy =     -294.60489625  energy(sigma->0) =     -294.60489625


--------------------------------------------------------------------------------------------------------




----------------------------------------- Iteration    1(  13)  ---------------------------------------


    POTLOK:  cpu time    1.30: real time    1.30
    SETDIJ:  cpu time    0.03: real time    0.03
     EDDAV:  cpu time  186.61: real time  186.71
 BZINTS: Fermi energy:  4.949395;128.000000 electrons
         Band energy:-529.978833;  BLOECHL correction:  0.000000
       DOS:  cpu time    0.03: real time    0.03
    CHARGE:  cpu time    7.39: real time    7.40
    MIXING:  cpu time    0.02: real time    0.02
    --------------------------------------------
      LOOP:  cpu time  195.39: real time  195.49

 eigenvalue-minimisations  : 14904
 total energy-change (2. order) : 0.1331467E-03  (-0.4153878E-03)
 number of electron     127.9999993 magnetization 
 augmentation part        3.0608389 magnetization 

 Broyden mixing:
  rms(total) = 0.59693E-02    rms(broyden)= 0.59686E-02
  rms(prec ) = 0.89539E-02
  weight for this iteration     100.00

 eigenvalues of (default mixing * dielectric matrix)
  average eigenvalue GAMMA=   1.2113
  2.7193  2.2983  1.9601  0.8869  0.5958  0.5958  0.4304  0.2038

 Free energy of the ion-electron system (eV)
  ---------------------------------------------------
  alpha Z        PSCENC =       304.74181339
  Ewald energy   TEWEN  =     -3840.31149713
  -Hartree energ DENC   =     -1358.19107675
  -exchange      EXHF   =         0.00000000
  -V(xc)+E(xc)   XCENC  =       461.42080355
  PAW double counting   =      2224.68833225    -2265.91585587
  entropy T*S    EENTRO =         0.00000000
  eigenvalues    EBANDS =      -529.97883299
  atomic energy  EATOM  =      4708.94155045
  ---------------------------------------------------
  free energy    TOTEN  =      -294.60476310 eV

  energy without entropy =     -294.60476310  energy(sigma->0) =     -294.60476310


--------------------------------------------------------------------------------------------------------




----------------------------------------- Iteration    1(  14)  ---------------------------------------


    POTLOK:  cpu time    1.08: real time    1.08
    SETDIJ:  cpu time    0.02: real time    0.02
     EDDAV:  cpu time  186.44: real time  186.53
 BZINTS: Fermi energy:  4.948934;128.000000 electrons
         Band energy:-529.869894;  BLOECHL correction: -0.000000
       DOS:  cpu time    0.03: real time    0.03
    CHARGE:  cpu time    8.02: real time    8.03
    MIXING:  cpu time    0.02: real time    0.03
    --------------------------------------------
      LOOP:  cpu time  195.62: real time  195.72

 eigenvalue-minimisations  : 14568
 total energy-change (2. order) :-0.1629033E-03  (-0.1405987E-03)
 number of electron     127.9999993 magnetization 
 augmentation part        3.0607394 magnetization 

 Broyden mixing:
  rms(total) = 0.57284E-02    rms(broyden)= 0.57281E-02
  rms(prec ) = 0.11143E-01
  weight for this iteration     100.00

 eigenvalues of (default mixing * dielectric matrix)
  average eigenvalue GAMMA=   1.1885
  2.8504  2.5041  1.9254  0.9965  0.6804  0.6804  0.4277  0.4277  0.2037

 Free energy of the ion-electron system (eV)
  ---------------------------------------------------
  alpha Z        PSCENC =       304.74181339
  Ewald energy   TEWEN  =     -3840.31149713
  -Hartree energ DENC   =     -1358.31417020
  -exchange      EXHF   =         0.00000000
  -V(xc)+E(xc)   XCENC  =       461.43162481
  PAW double counting   =      2223.78794103    -2265.01229469
  entropy T*S    EENTRO =         0.00000000
  eigenvalues    EBANDS =      -529.86989366
  atomic energy  EATOM  =      4708.94155045
  ---------------------------------------------------
  free energy    TOTEN  =      -294.60492601 eV

  energy without entropy =     -294.60492601  energy(sigma->0) =     -294.60492601


--------------------------------------------------------------------------------------------------------




----------------------------------------- Iteration    1(  15)  ---------------------------------------


    POTLOK:  cpu time    1.30: real time    1.30
    SETDIJ:  cpu time    0.02: real time    0.02
     EDDAV:  cpu time  231.45: real time  231.56
 BZINTS: Fermi energy:  4.952440;128.000000 electrons
         Band energy:-529.856889;  BLOECHL correction:  0.000000
       DOS:  cpu time    0.03: real time    0.03
    CHARGE:  cpu time    7.68: real time    7.68
    MIXING:  cpu time    0.02: real time    0.02
    --------------------------------------------
      LOOP:  cpu time  240.50: real time  240.63

 eigenvalue-minimisations  : 19428
 total energy-change (2. order) :-0.1661849E-03  (-0.2423919E-03)
 number of electron     127.9999993 magnetization 
 augmentation part        3.0607711 magnetization 

 Broyden mixing:
  rms(total) = 0.87628E-02    rms(broyden)= 0.87624E-02
  rms(prec ) = 0.17053E-01
  weight for this iteration     100.00

 eigenvalues of (default mixing * dielectric matrix)
  average eigenvalue GAMMA=   1.1302
  2.8644  2.5169  1.8915  1.0889  0.7241  0.6321  0.6321  0.2033  0.3745  0.3745

 Free energy of the ion-electron system (eV)
  ---------------------------------------------------
  alpha Z        PSCENC =       304.74181339
  Ewald energy   TEWEN  =     -3840.31149713
  -Hartree energ DENC   =     -1358.32999711
  -exchange      EXHF   =         0.00000000
  -V(xc)+E(xc)   XCENC  =       461.43315956
  PAW double counting   =      2223.51737679    -2264.74060885
  entropy T*S    EENTRO =         0.00000000
  eigenvalues    EBANDS =      -529.85688928
  atomic energy  EATOM  =      4708.94155045
  ---------------------------------------------------
  free energy    TOTEN  =      -294.60509219 eV

  energy without entropy =     -294.60509219  energy(sigma->0) =     -294.60509219


--------------------------------------------------------------------------------------------------------




----------------------------------------- Iteration    1(  16)  ---------------------------------------


    POTLOK:  cpu time    1.10: real time    1.10
    SETDIJ:  cpu time    0.02: real time    0.02
     EDDAV:  cpu time  211.73: real time  211.84
 BZINTS: Fermi energy:  4.949427;128.000000 electrons
         Band energy:-529.885248;  BLOECHL correction:  0.000000
       DOS:  cpu time    0.03: real time    0.03
    CHARGE:  cpu time    7.88: real time    7.88
    MIXING:  cpu time    0.03: real time    0.03
    --------------------------------------------
      LOOP:  cpu time  220.79: real time  220.91

 eigenvalue-minimisations  : 17532
 total energy-change (2. order) : 0.1921657E-03  (-0.1103238E-03)
 number of electron     127.9999993 magnetization 
 augmentation part        3.0607901 magnetization 

 Broyden mixing:
  rms(total) = 0.20003E-02    rms(broyden)= 0.19995E-02
  rms(prec ) = 0.36858E-02
  weight for this iteration     100.00

 eigenvalues of (default mixing * dielectric matrix)
  average eigenvalue GAMMA=   1.1004
  2.8587  2.5079  1.8731  1.1979  0.7009  0.7009  0.6264  0.6264  0.4042  0.4042
  0.2034

 Free energy of the ion-electron system (eV)
  ---------------------------------------------------
  alpha Z        PSCENC =       304.74181339
  Ewald energy   TEWEN  =     -3840.31149713
  -Hartree energ DENC   =     -1358.30098682
  -exchange      EXHF   =         0.00000000
  -V(xc)+E(xc)   XCENC  =       461.43105247
  PAW double counting   =      2223.40048273    -2264.62206724
  entropy T*S    EENTRO =         0.00000000
  eigenvalues    EBANDS =      -529.88524788
  atomic energy  EATOM  =      4708.94155045
  ---------------------------------------------------
  free energy    TOTEN  =      -294.60490003 eV

  energy without entropy =     -294.60490003  energy(sigma->0) =     -294.60490003


--------------------------------------------------------------------------------------------------------




----------------------------------------- Iteration    1(  17)  ---------------------------------------


    POTLOK:  cpu time    1.27: real time    1.27
    SETDIJ:  cpu time    0.02: real time    0.02
     EDDAV:  cpu time  184.35: real time  184.44
 BZINTS: Fermi energy:  4.949392;128.000000 electrons
         Band energy:-529.884212;  BLOECHL correction:  0.000000
       DOS:  cpu time    0.03: real time    0.03
    CHARGE:  cpu time    8.37: real time    8.38
    MIXING:  cpu time    0.02: real time    0.02
    --------------------------------------------
      LOOP:  cpu time  194.07: real time  194.17

 eigenvalue-minimisations  : 14640
 total energy-change (2. order) : 0.1871221E-05  (-0.5243247E-05)
 number of electron     127.9999993 magnetization 
 augmentation part        3.0608251 magnetization 

 Broyden mixing:
  rms(total) = 0.12046E-02    rms(broyden)= 0.12045E-02
  rms(prec ) = 0.23435E-02
  weight for this iteration     100.00

 eigenvalues of (default mixing * dielectric matrix)
  average eigenvalue GAMMA=   1.1225
  2.8996  2.4808  1.7949  1.7949  0.9445  0.6991  0.6991  0.5717  0.5717  0.4049
  0.4049  0.2034

 Free energy of the ion-electron system (eV)
  ---------------------------------------------------
  alpha Z        PSCENC =       304.74181339
  Ewald energy   TEWEN  =     -3840.31149713
  -Hartree energ DENC   =     -1358.30213605
  -exchange      EXHF   =         0.00000000
  -V(xc)+E(xc)   XCENC  =       461.43101389
  PAW double counting   =      2223.39872248    -2264.62015362
  entropy T*S    EENTRO =         0.00000000
  eigenvalues    EBANDS =      -529.88421158
  atomic energy  EATOM  =      4708.94155045
  ---------------------------------------------------
  free energy    TOTEN  =      -294.60489816 eV

  energy without entropy =     -294.60489816  energy(sigma->0) =     -294.60489816


--------------------------------------------------------------------------------------------------------




----------------------------------------- Iteration    1(  18)  ---------------------------------------


    POTLOK:  cpu time    1.52: real time    1.53
    SETDIJ:  cpu time    0.03: real time    0.03
     EDDAV:  cpu time  198.83: real time  198.93
 BZINTS: Fermi energy:  4.949471;128.000000 electrons
         Band energy:-529.863231;  BLOECHL correction:  0.000000
       DOS:  cpu time    0.03: real time    0.03
    CHARGE:  cpu time    7.80: real time    7.80
    MIXING:  cpu time    0.03: real time    0.03
    --------------------------------------------
      LOOP:  cpu time  208.24: real time  208.35

 eigenvalue-minimisations  : 16152
 total energy-change (2. order) : 0.9074292E-06  (-0.4716776E-05)
 number of electron     127.9999993 magnetization 
 augmentation part        3.0607990 magnetization 

 Broyden mixing:
  rms(total) = 0.89755E-03    rms(broyden)= 0.89744E-03
  rms(prec ) = 0.17019E-02
  weight for this iteration     100.00

 eigenvalues of (default mixing * dielectric matrix)
  average eigenvalue GAMMA=   1.1854
  3.0195  2.5289  2.5289  1.9118  0.9769  0.9769  0.6589  0.6589  0.5684  0.5684
  0.4046  0.4046  0.2034

 Free energy of the ion-electron system (eV)
  ---------------------------------------------------
  alpha Z        PSCENC =       304.74181339
  Ewald energy   TEWEN  =     -3840.31149713
  -Hartree energ DENC   =     -1358.32414128
  -exchange      EXHF   =         0.00000000
  -V(xc)+E(xc)   XCENC  =       461.43234745
  PAW double counting   =      2223.42154932    -2264.64328796
  entropy T*S    EENTRO =         0.00000000
  eigenvalues    EBANDS =      -529.86323149
  atomic energy  EATOM  =      4708.94155045
  ---------------------------------------------------
  free energy    TOTEN  =      -294.60489725 eV

  energy without entropy =     -294.60489725  energy(sigma->0) =     -294.60489725


--------------------------------------------------------------------------------------------------------




----------------------------------------- Iteration    1(  19)  ---------------------------------------


    POTLOK:  cpu time    1.02: real time    1.02
    SETDIJ:  cpu time    0.03: real time    0.03
     EDDAV:  cpu time  188.76: real time  188.85
 BZINTS: Fermi energy:  4.949495;128.000000 electrons
         Band energy:-529.854054;  BLOECHL correction:  0.000000
       DOS:  cpu time    0.03: real time    0.03
    CHARGE:  cpu time    8.01: real time    8.02
    MIXING:  cpu time    0.03: real time    0.03
    --------------------------------------------
      LOOP:  cpu time  197.88: real time  197.98

 eigenvalue-minimisations  : 14664
 total energy-change (2. order) : 0.3890918E-06  (-0.1705836E-05)
 number of electron     127.9999993 magnetization 
 augmentation part        3.0607982 magnetization 

 Broyden mixing:
  rms(total) = 0.78078E-03    rms(broyden)= 0.78074E-03
  rms(prec ) = 0.13974E-02
  weight for this iteration     100.00

 eigenvalues of (default mixing * dielectric matrix)
  average eigenvalue GAMMA=   1.1558
  3.1198  2.5642  2.5642  1.9005  1.0315  0.9070  0.6759  0.6759  0.5828  0.5828
  0.5743  0.2034  0.3995  0.3995

 Free energy of the ion-electron system (eV)
  ---------------------------------------------------
  alpha Z        PSCENC =       304.74181339
  Ewald energy   TEWEN  =     -3840.31149713
  -Hartree energ DENC   =     -1358.33374251
  -exchange      EXHF   =         0.00000000
  -V(xc)+E(xc)   XCENC  =       461.43283262
  PAW double counting   =      2223.41462047    -2264.63642032
  entropy T*S    EENTRO =         0.00000000
  eigenvalues    EBANDS =      -529.85405383
  atomic energy  EATOM  =      4708.94155045
  ---------------------------------------------------
  free energy    TOTEN  =      -294.60489686 eV

  energy without entropy =     -294.60489686  energy(sigma->0) =     -294.60489686


--------------------------------------------------------------------------------------------------------




----------------------------------------- Iteration    1(  20)  ---------------------------------------


    POTLOK:  cpu time    1.04: real time    1.05
    SETDIJ:  cpu time    0.02: real time    0.02
     EDDAV:  cpu time  197.03: real time  197.13
 BZINTS: Fermi energy:  4.949450;128.000000 electrons
         Band energy:-529.850835;  BLOECHL correction:  0.000000
       DOS:  cpu time    0.03: real time    0.03
    CHARGE:  cpu time    8.32: real time    8.32
    MIXING:  cpu time    0.03: real time    0.03
    --------------------------------------------
      LOOP:  cpu time  206.48: real time  206.58

 eigenvalue-minimisations  : 15744
 total energy-change (2. order) : 0.6231685E-06  (-0.1717159E-05)
 number of electron     127.9999993 magnetization 
 augmentation part        3.0607975 magnetization 

 Broyden mixing:
  rms(total) = 0.50912E-03    rms(broyden)= 0.50904E-03
  rms(prec ) = 0.99740E-03
  weight for this iteration     100.00

 eigenvalues of (default mixing * dielectric matrix)
  average eigenvalue GAMMA=   1.1412
  3.0704  2.5193  2.5193  1.8846  0.9922  0.9922  0.7368  0.7368  0.7377  0.7377
  0.5911  0.5911  0.2034  0.4027  0.4027

 Free energy of the ion-electron system (eV)
  ---------------------------------------------------
  alpha Z        PSCENC =       304.74181339
  Ewald energy   TEWEN  =     -3840.31149713
  -Hartree energ DENC   =     -1358.33712483
  -exchange      EXHF   =         0.00000000
  -V(xc)+E(xc)   XCENC  =       461.43303367
  PAW double counting   =      2223.41789332    -2264.63973009
  entropy T*S    EENTRO =         0.00000000
  eigenvalues    EBANDS =      -529.85083502
  atomic energy  EATOM  =      4708.94155045
  ---------------------------------------------------
  free energy    TOTEN  =      -294.60489624 eV

  energy without entropy =     -294.60489624  energy(sigma->0) =     -294.60489624


--------------------------------------------------------------------------------------------------------




----------------------------------------- Iteration    1(  21)  ---------------------------------------


    POTLOK:  cpu time    1.30: real time    1.30
    SETDIJ:  cpu time    0.03: real time    0.03
     EDDAV:  cpu time  208.84: real time  208.95
 BZINTS: Fermi energy:  4.949358;128.000000 electrons
         Band energy:-529.849985;  BLOECHL correction:  0.000000
       DOS:  cpu time    0.03: real time    0.03
    CHARGE:  cpu time    8.07: real time    8.08
    MIXING:  cpu time    0.03: real time    0.03
    --------------------------------------------
      LOOP:  cpu time  218.30: real time  218.41

 eigenvalue-minimisations  : 17064
 total energy-change (2. order) :-0.1894650E-06  (-0.1276700E-05)
 number of electron     127.9999993 magnetization 
 augmentation part        3.0607968 magnetization 

 Broyden mixing:
  rms(total) = 0.57536E-03    rms(broyden)= 0.57531E-03
  rms(prec ) = 0.10388E-02
  weight for this iteration     100.00

 eigenvalues of (default mixing * dielectric matrix)
  average eigenvalue GAMMA=   1.1492
  3.1071  2.6472  2.4240  1.9174  1.1308  1.1308  0.9899  0.9899  0.7064  0.7064
  0.5751  0.5751  0.2034  0.4011  0.4011  0.4814

 Free energy of the ion-electron system (eV)
  ---------------------------------------------------
  alpha Z        PSCENC =       304.74181339
  Ewald energy   TEWEN  =     -3840.31149713
  -Hartree energ DENC   =     -1358.33799117
  -exchange      EXHF   =         0.00000000
  -V(xc)+E(xc)   XCENC  =       461.43310429
[...]
     79      12.8089      0.00000
     80      12.8144      0.00000
     81      12.8485      0.00000
     82      12.8517      0.00000
     83      13.2197      0.00000
     84      13.2214      0.00000

 k-point    75 :       0.3333    0.5000    0.5000
  band No.  band energies     occupation 
      1     -13.5038      2.00000
      2     -13.5034      2.00000
      3     -13.2517      2.00000
      4     -13.2513      2.00000
      5     -12.5312      2.00000
      6     -12.5309      2.00000
      7     -12.2943      2.00000
      8     -12.2939      2.00000
      9     -11.5700      2.00000
     10     -11.5697      2.00000
     11     -11.3482      2.00000
     12     -11.3478      2.00000
     13      -8.8875      2.00000
     14      -8.8869      2.00000
     15      -8.7224      2.00000
     16      -8.7217      2.00000
     17      -7.0048      2.00000
     18      -7.0021      2.00000
     19      -6.8933      2.00000
     20      -6.8905      2.00000
     21      -4.7011      2.00000
     22      -4.6987      2.00000
     23      -4.6130      2.00000
     24      -4.6107      2.00000
     25      -4.5351      2.00000
     26      -4.5337      2.00000
     27      -4.4388      2.00000
     28      -4.4371      2.00000
     29      -3.5609      2.00000
     30      -3.5588      2.00000
     31      -3.4579      2.00000
     32      -3.4559      2.00000
     33      -2.4974      2.00000
     34      -2.4955      2.00000
     35      -2.4298      2.00000
     36      -2.4282      2.00000
     37      -2.0155      2.00000
     38      -2.0142      2.00000
     39      -1.4683      2.00000
     40      -1.4640      2.00000
     41      -1.4026      2.00000
     42      -1.3987      2.00000
     43      -0.9442      2.00000
     44      -0.9418      2.00000
     45      -0.8880      2.00000
     46      -0.8853      2.00000
     47      -0.8672      2.00000
     48      -0.8658      2.00000
     49      -0.4847      2.00000
     50      -0.4831      2.00000
     51      -0.0529      2.00000
     52      -0.0487      2.00000
     53      -0.0105      2.00000
     54      -0.0054      2.00000
     55       0.2493      2.00000
     56       0.2506      2.00000
     57       0.5794      2.00000
     58       0.5810      2.00000
     59       1.6005      2.00000
     60       1.6021      2.00000
     61       3.1701      2.00000
     62       3.1725      2.00000
     63       4.0211      2.00000
     64       4.0240      2.00000
     65       6.0612      0.00000
     66       6.0646      0.00000
     67       6.5133      0.00000
     68       6.5171      0.00000
     69       9.1235      0.00000
     70       9.1253      0.00000
     71       9.6515      0.00000
     72       9.6538      0.00000
     73      10.5876      0.00000
     74      10.5907      0.00000
     75      11.1889      0.00000
     76      11.1911      0.00000
     77      11.6988      0.00000
     78      11.7008      0.00000
     79      12.8075      0.00000
     80      12.8128      0.00000
     81      12.8452      0.00000
     82      12.8480      0.00000
     83      13.2183      0.00000
     84      13.2204      0.00000

 k-point    76 :       0.5000    0.5000    0.5000
  band No.  band energies     occupation 
      1     -13.1809      2.00000
      2     -13.1779      2.00000
      3     -13.1779      2.00000
      4     -13.1751      2.00000
      5     -12.9338      2.00000
      6     -12.9309      2.00000
      7     -12.9309      2.00000
      8     -12.9279      2.00000
      9     -10.3305      2.00000
     10     -10.3288      2.00000
     11     -10.3287      2.00000
     12     -10.3269      2.00000
     13     -10.1294      2.00000
     14     -10.1277      2.00000
     15     -10.1277      2.00000
     16     -10.1258      2.00000
     17      -5.5628      2.00000
     18      -5.5628      2.00000
     19      -5.5623      2.00000
     20      -5.5585      2.00000
     21      -5.4929      2.00000
     22      -5.4929      2.00000
     23      -5.4925      2.00000
     24      -5.4879      2.00000
     25      -3.9745      2.00000
     26      -3.9714      2.00000
     27      -3.9700      2.00000
     28      -3.9700      2.00000
     29      -3.9222      2.00000
     30      -3.9197      2.00000
     31      -3.9184      2.00000
     32      -3.9184      2.00000
     33      -2.4795      2.00000
     34      -2.4733      2.00000
     35      -2.4733      2.00000
     36      -2.4730      2.00000
     37      -2.3860      2.00000
     38      -2.3805      2.00000
     39      -2.3805      2.00000
     40      -2.3801      2.00000
     41      -1.6309      2.00000
     42      -1.6287      2.00000
     43      -1.6286      2.00000
     44      -1.6256      2.00000
     45      -0.1276      2.00000
     46      -0.1252      2.00000
     47      -0.1250      2.00000
     48      -0.1215      2.00000
     49      -0.0491      2.00000
     50      -0.0475      2.00000
     51      -0.0475      2.00000
     52      -0.0405      2.00000
     53      -0.0028      2.00000
     54      -0.0013      2.00000
     55      -0.0013      2.00000
     56       0.0087      2.00000
     57       1.6540      2.00000
     58       1.6574      2.00000
     59       1.6576      2.00000
     60       1.6588      2.00000
     61       2.8485      2.00000
     62       2.8526      2.00000
     63       2.8529      2.00000
     64       2.8542      2.00000
     65       7.5191      0.00000
     66       7.5202      0.00000
     67       7.5205      0.00000
     68       7.5249      0.00000
     69       8.0233      0.00000
     70       8.0243      0.00000
     71       8.0246      0.00000
     72       8.0300      0.00000
     73      11.7820      0.00000
     74      11.7931      0.00000
     75      11.7953      0.00000
     76      11.8040      0.00000
     77      12.1763      0.00000
     78      12.1890      0.00000
     79      12.1909      0.00000
     80      12.2016      0.00000
     81      12.4490      0.00000
     82      12.4528      0.00000
     83      12.4531      0.00000
     84      12.4557      0.00000


--------------------------------------------------------------------------------------------------------


 soft charge-density along one line, spin component           1
         0         1         2         3         4         5         6         7         8         9
 total charge-density along one line
 
 pseudopotential strength for first ion, spin component:           1
  9.755   0.005  -0.000  -0.000   0.000   0.000   0.000  -0.000
  0.005  -0.002   0.000   0.000   0.000   0.000   0.000  -0.000
 -0.000   0.000  -3.930   0.000   0.000  -0.015   0.000   0.000
 -0.000   0.000   0.000  -3.924   0.000   0.000  -0.012   0.000
  0.000   0.000   0.000   0.000  -3.930   0.000   0.000  -0.015
  0.000   0.000  -0.015   0.000   0.000  -0.763   0.000   0.000
  0.000   0.000   0.000  -0.012   0.000   0.000  -0.763  -0.000
 -0.000  -0.000   0.000   0.000  -0.015   0.000  -0.000  -0.763
 total augmentation occupancy for first ion, spin component:           1
  1.469  -1.120   0.000   0.000   0.003   0.000  -0.001   0.001
 -1.120   1.058  -0.000   0.006  -0.002  -0.000   0.002  -0.001
  0.000  -0.000   1.222   0.000  -0.002   0.228  -0.000  -0.001
  0.000   0.006   0.000   0.925  -0.000  -0.000   0.105  -0.000
  0.003  -0.002  -0.002  -0.000   1.222  -0.001  -0.000   0.228
  0.000  -0.000   0.228  -0.000  -0.001   0.048  -0.000  -0.000
 -0.001   0.002  -0.000   0.105  -0.000  -0.000   0.013  -0.000
  0.001  -0.001  -0.001  -0.000   0.228  -0.000  -0.000   0.048


------------------------ aborting loop because EDIFF is reached ----------------------------------------


    CHARGE:  cpu time    8.62: real time    8.62
    FORLOC:  cpu time    0.10: real time    0.10
    FORNL :  cpu time   41.68: real time   41.70
    STRESS:  cpu time   83.97: real time   84.01
    FORHAR:  cpu time    0.34: real time    0.35
    MIXING:  cpu time    0.02: real time    0.02
    OFIELD:  cpu time    0.00: real time    0.00

 ---------------------------------------------------------------------------------------------

         DFTD3 V3.0 Rev 1        
 IVDW         = 12
 DF pbe       
 parameters
 VDW_S6       =    1.0000
 VDW_S8       =    0.7875
 VDW_A1       =    0.4289
 VDW_A2       =    4.4407
 k1-k3        =   16.0000    1.3333   -4.0000
 VDW_RADIUS   =   50.2022 A
 VDW_CNRADIUS =   21.1671 A
 Edisp (eV)   -5.19518

 E6    (eV) :    -3.7167
 E8    (eV) :    -1.4785
 % E8        : 28.46
    FORVDW:  cpu time    0.25: real time    0.25

  FORCE on cell =-STRESS in cart. coord.  units (eV):
  Direction    XX          YY          ZZ          XY          YZ          ZX
  --------------------------------------------------------------------------------------
  Alpha Z   304.74181   304.74181   304.74181
  Ewald     463.73807   463.25267 -4767.31926    -1.19689    -0.00060    -0.00731
  Hartree  1178.13587  1178.13560  -997.93479    -0.10786    -0.00022    -0.00147
  E(xc)    -467.92518  -467.93212  -484.61239    -0.00900    -0.00004     0.00002
  Local   -3277.33075 -3276.94126  3861.64641     1.07473     0.00012     0.00768
  n-local  -111.64066  -111.75269  -102.65259    -0.10266    -0.00062     0.00070
  augment   -12.36804   -12.36715   -11.33715     0.00199     0.00001     0.00000
  Kinetic  1922.59961  1923.37185  2205.68534     0.79838     0.00802    -0.00772
  Fock        0.00000     0.00000     0.00000     0.00000     0.00000     0.00000
  vdW        -0.70961    -0.69920    -6.09578     0.00945     0.00000    -0.00002
  -------------------------------------------------------------------------------------
  Total      -0.75889    -0.19050     2.12161     0.46815     0.00667    -0.00810
  in kB      -4.44086    -1.11479    12.41527     2.73954     0.03905    -0.04742
  external pressure =        2.29 kB  Pullay stress =        0.00 kB


 VOLUME and BASIS-vectors are now :
 -----------------------------------------------------------------------------
  energy-cutoff  :      800.00
  volume of cell :      273.79
      direct lattice vectors                 reciprocal lattice vectors
     4.932874498 -0.001919286  0.000000000     0.202767147  0.117172881  0.000000000
    -2.468099399  4.271034986  0.000000000     0.000091118  0.234187941  0.000000000
     0.000000000  0.000000000 12.998231427     0.000000000  0.000000000  0.076933543

  length of vectors
     4.932874871  4.932874871 12.998231427     0.234187958  0.234187958  0.076933543


 FORCES acting on ions
    electron-ion (+dipol)            ewald-force                    non-local-force                 convergence-correction
 -----------------------------------------------------------------------------------------------
   0.661E+00 0.625E-01 -.161E+01   -.787E+00 -.574E-01 0.164E+01   -.102E+00 0.301E-02 -.168E+00   -.465E-06 0.563E-05 -.110E-02
   -.318E+00 0.661E-01 0.382E+00   0.331E+00 -.619E-01 -.363E+00   0.143E-01 0.291E-02 -.187E-01   -.328E-04 0.641E-05 -.108E-02
   -.139E+00 0.170E+00 0.382E+00   0.127E+00 -.180E+00 -.363E+00   0.318E-02 -.357E-02 -.188E-01   -.183E-04 0.144E-04 -.108E-02
   -.139E+00 -.375E-01 0.383E+00   0.126E+00 0.567E-01 -.364E+00   0.327E-02 0.920E-02 -.187E-01   -.164E-04 -.398E-05 -.108E-02
   -.115E+00 0.659E-01 -.100E+00   0.107E+00 -.618E-01 0.997E-01   -.507E-02 0.278E-02 0.496E-02   0.142E-04 0.917E-05 0.103E-02
   -.115E+00 0.659E-01 -.990E-01   0.107E+00 -.618E-01 0.986E-01   -.509E-02 0.278E-02 0.502E-02   0.157E-04 0.815E-05 0.103E-02
   -.115E+00 0.660E-01 -.990E-01   0.107E+00 -.619E-01 0.986E-01   -.508E-02 0.278E-02 0.502E-02   0.162E-04 0.953E-05 0.103E-02
   -.115E+00 0.658E-01 -.990E-01   0.107E+00 -.617E-01 0.986E-01   -.508E-02 0.277E-02 0.502E-02   0.139E-04 0.100E-04 0.103E-02
   0.114E+00 -.713E-01 -.835E-01   -.107E+00 0.668E-01 0.829E-01   0.486E-02 -.307E-02 -.506E-02   -.127E-04 0.470E-05 0.291E-04
   0.114E+00 -.617E-01 -.832E-01   -.107E+00 0.569E-01 0.828E-01   0.472E-02 -.288E-02 -.540E-02   -.146E-04 0.104E-04 0.295E-04
   0.106E+00 -.663E-01 -.833E-01   -.984E-01 0.618E-01 0.828E-01   0.463E-02 -.285E-02 -.523E-02   -.187E-04 0.797E-05 0.296E-04
   0.124E+00 -.663E-01 -.150E+00   -.117E+00 0.617E-01 0.150E+00   0.489E-02 -.293E-02 -.500E-02   -.859E-05 0.722E-05 0.291E-04
   0.115E+00 -.703E-01 -.835E-01   -.107E+00 0.667E-01 0.831E-01   0.489E-02 -.272E-02 -.543E-02   -.105E-04 0.681E-05 0.213E-04
   0.114E+00 -.606E-01 -.837E-01   -.107E+00 0.568E-01 0.830E-01   0.503E-02 -.253E-02 -.509E-02   -.101E-04 0.569E-05 0.210E-04
   0.106E+00 -.656E-01 -.836E-01   -.983E-01 0.618E-01 0.831E-01   0.479E-02 -.274E-02 -.526E-02   -.938E-05 0.597E-05 0.210E-04
   0.124E+00 -.657E-01 -.149E+00   -.117E+00 0.619E-01 0.149E+00   0.505E-02 -.266E-02 -.479E-02   -.113E-04 0.621E-05 0.202E-04
   0.304E-01 -.650E-01 0.320E+00   -.276E-01 0.617E-01 -.317E+00   0.442E-02 -.237E-02 0.997E-02   0.718E-05 -.559E-05 -.108E-02
   0.352E+00 -.567E-01 0.840E+00   -.346E+00 0.525E-01 -.871E+00   0.297E-01 -.217E-02 0.784E-01   0.285E-04 -.743E-05 -.108E-02
   -.235E+00 -.402E+00 0.836E+00   0.295E+00 0.430E+00 -.867E+00   0.216E-01 -.694E-02 0.782E-01   0.177E-04 -.128E-04 -.108E-02
   -.224E+00 0.268E+00 0.843E+00   0.284E+00 -.303E+00 -.875E+00   0.227E-01 0.175E-02 0.788E-01   0.154E-04 0.320E-06 -.107E-02
   0.113E+00 -.646E-01 -.991E-01   -.106E+00 0.614E-01 0.985E-01   0.431E-02 -.235E-02 -.120E-02   -.170E-04 -.766E-05 0.103E-02
   0.113E+00 -.646E-01 -.996E-01   -.106E+00 0.614E-01 0.990E-01   0.430E-02 -.235E-02 -.119E-02   -.140E-04 -.817E-05 0.103E-02
   0.113E+00 -.647E-01 -.996E-01   -.106E+00 0.615E-01 0.990E-01   0.431E-02 -.235E-02 -.119E-02   -.149E-04 -.896E-05 0.103E-02
   0.113E+00 -.646E-01 -.996E-01   -.106E+00 0.614E-01 0.990E-01   0.431E-02 -.235E-02 -.119E-02   -.160E-04 -.758E-05 0.103E-02
   -.890E-01 0.543E-01 -.971E-01   0.828E-01 -.505E-01 0.967E-01   -.409E-02 0.255E-02 0.185E-02   0.105E-04 -.674E-06 0.310E-04
   -.136E+00 0.489E-01 -.115E+00   0.131E+00 -.448E-01 0.115E+00   -.413E-02 0.243E-02 0.144E-02   0.108E-04 -.795E-05 0.303E-04
   -.108E+00 0.922E-01 -.106E+00   0.102E+00 -.890E-01 0.106E+00   -.400E-02 0.253E-02 0.165E-02   0.170E-04 -.774E-05 0.304E-04
   -.116E+00 0.650E-01 -.773E-01   0.110E+00 -.613E-01 0.769E-01   -.429E-02 0.250E-02 0.900E-03   0.475E-05 -.714E-05 0.312E-04
   -.136E+00 0.804E-01 -.115E+00   0.130E+00 -.779E-01 0.115E+00   -.407E-02 0.228E-02 0.147E-02   0.112E-04 -.749E-05 0.198E-04
   -.893E-01 0.748E-01 -.969E-01   0.832E-01 -.721E-01 0.965E-01   -.406E-02 0.215E-02 0.185E-02   0.117E-04 -.650E-05 0.205E-04
   -.108E+00 0.374E-01 -.106E+00   0.102E+00 -.342E-01 0.105E+00   -.396E-02 0.221E-02 0.164E-02   0.107E-04 -.668E-05 0.204E-04
   -.116E+00 0.643E-01 -.777E-01   0.111E+00 -.615E-01 0.773E-01   -.425E-02 0.222E-02 0.936E-03   0.123E-04 -.637E-05 0.206E-04
 -----------------------------------------------------------------------------------------------
   0.972E-05 0.728E-05 -.710E-02   0.978E-14 0.219E-13 0.284E-13   0.804E-05 -.125E-04 0.709E-02   -.819E-05 0.584E-05 0.143E-04
 
 
 POSITION                                       TOTAL-FORCE (eV/Angst)
 -----------------------------------------------------------------------------------
      2.46757      0.00044      1.63413        -0.229470      0.008139     -0.131247
      4.93046     -0.00052      1.62478         0.029197      0.007099     -0.001146
      1.22997      2.13595      1.62478        -0.008645     -0.014764     -0.001075
      3.69641      2.13499      1.62478        -0.008761      0.029094     -0.001303
      2.46402      0.00044      8.12389        -0.013120      0.006924      0.005583
      4.93046     -0.00052      8.12389        -0.013077      0.006926      0.005637
      1.22997      2.13595      8.12389        -0.013096      0.006913      0.005637
      3.69641      2.13499      8.12389        -0.013094      0.006934      0.005637
     -1.23163      2.13412      4.87434         0.012172     -0.007601     -0.005699
      1.23481      2.13316      4.87434         0.011885     -0.007705     -0.005805
     -2.46568      4.26964      4.87434         0.012116     -0.007400     -0.005749
      0.00076      4.26868      4.87434         0.011916     -0.007584     -0.004912
     -1.23163      2.13412     11.37345         0.012515     -0.006320     -0.005846
      1.23481      2.13316     11.37345         0.012765     -0.006401     -0.005749
     -2.46568      4.26964     11.37345         0.012707     -0.006588     -0.005800
      0.00076      4.26868     11.37345         0.012514     -0.006450     -0.004752
     -0.00332      1.42496      1.62478         0.007489     -0.005728      0.011770
      2.46311      1.42400      1.62478         0.035658     -0.006438      0.046015
     -1.23737      3.56047      1.62478         0.082292      0.021079      0.046439
      1.22906      3.55952      1.62478         0.082560     -0.032849      0.045510
     -0.00332      1.42496      8.12389         0.010702     -0.005599     -0.000831
      2.46311      1.42400      8.12389         0.010703     -0.005598     -0.000804
     -1.23737      3.56047      8.12389         0.010704     -0.005598     -0.000804
      1.22906      3.55952      8.12389         0.010703     -0.005599     -0.000800
      1.23571      0.70960      4.87434        -0.010361      0.006410      0.001483
      3.70215      0.70864      4.87434        -0.009492      0.006546      0.001536
      0.00166      2.84512      4.87434        -0.010046      0.005742      0.001518
      2.46810      2.84416      4.87434        -0.009825      0.006227      0.000523
      1.23571      0.70960     11.37345        -0.009539      0.004770      0.001548
      3.70215      0.70864     11.37345        -0.010238      0.004916      0.001465
      0.00166      2.84512     11.37345        -0.010018      0.005455      0.001481
      2.46810      2.84416     11.37345        -0.009815      0.005049      0.000542
 -----------------------------------------------------------------------------------
    total drift:                                0.000010      0.000001     -0.000003


--------------------------------------------------------------------------------------------------------



  FREE ENERGIE OF THE ION-ELECTRON SYSTEM (eV)
  ---------------------------------------------------
  free  energy   TOTEN  =      -299.80007500 eV

  energy  without entropy=     -299.80007500  energy(sigma->0) =     -299.80007500
 


--------------------------------------------------------------------------------------------------------


    POTLOK:  cpu time    1.45: real time    1.45


--------------------------------------------------------------------------------------------------------


     LOOP+:  cpu time 4791.25: real time 4793.78
    4ORBIT:  cpu time    0.00: real time    0.00
 BZINTS: Fermi energy:  4.949183;128.000000 electrons
         Band energy:-529.851145;  BLOECHL correction:  0.000000

 total amount of memory used by VASP on root node   393471. kBytes
========================================================================

   base      :      30000. kBytes
   nonl-proj :      75962. kBytes
   fftplans  :      13581. kBytes
   grid      :      28889. kBytes
   one-center:         98. kBytes
   wavefun   :     244941. kBytes
 
  
  
 General timing and accounting informations for this job:
 ========================================================
  
                  Total CPU time used (sec):     4845.077
                            User time (sec):     2922.952
                          System time (sec):     1922.125
                         Elapsed time (sec):     4847.903
  
                   Maximum memory used (kb):      483916.
                   Average memory used (kb):           0.
  
                          Minor page faults:     48176431
                          Major page faults:            0
                 Voluntary context switches:          981
