   32   32    1    1
  0.8206758E+01  0.4932875E-09  0.4932875E-09  0.1246769E-08  0.5000000E-15
  1.000000000000000E-004
  CAR 
 graphite                                
    128    163     84
 
  0.0000000E+00  0.0000000E+00  0.0000000E+00  0.3086420E-02
    1      -14.381499
    2      -14.136815
    3      -14.136029
    4      -13.863471
    5       -9.005850
    6       -8.996084
    7       -8.993860
    8       -8.892974
    9       -8.891120
   10       -8.880780
   11       -8.879380
   12       -8.879300
   13       -8.875089
   14       -8.811844
   15       -8.798046
   16       -8.794416
   17       -7.884891
   18       -7.882524
   19       -7.880641
   20       -7.842772
   21       -7.841848
   22       -7.839698
   23       -7.839215
   24       -7.839062
   25       -7.836264
   26       -7.738466
   27       -7.737722
   28       -7.735800
   29       -3.501476
   30       -2.254024
   31       -2.251728
   32       -1.064480
   33       -1.061944
   34       -1.046403
   35       -1.010557
   36       -1.009498
   37       -1.009481
   38       -1.005157
   39       -0.992816
   40       -0.990845
   41       -0.954287
   42       -0.951423
   43       -0.936256
   44       -0.692225
   45        2.350262
   46        2.353343
   47        2.355369
   48        2.356706
   49        2.362975
   50        2.369039
   51        2.374744
   52        2.380903
   53        2.385091
   54        2.394397
   55        2.402784
   56        2.987529
   57        2.991647
   58        2.997997
   59        2.998652
   60        2.998949
   61        3.004179
   62        3.321059
   63        3.344193
   64        3.347034
   65        6.938000
   66        6.941759
   67        6.952566
   68        6.989613
   69        6.992186
   70        6.994634
   71        6.996535
   72        6.996899
   73        7.000522
   74        7.771235
   75        7.778972
   76        7.781441
   77       10.387194
   78       12.421557
   79       12.425704
   80       12.457213
   81       12.742095
   82       12.745698
   83       12.750107
   84       12.768983
 
  0.1111111E+00  0.2081668E-16  0.0000000E+00  0.6172840E-02
    1      -14.307392
    2      -14.063642
    3      -14.062859
    4      -13.791498
    5       -9.817431
    6       -9.637037
    7       -9.636249
    8       -9.443422
    9       -9.270277
   10       -9.261746
   11       -9.112752
   12       -9.111703
   13       -9.102990
   14       -9.101937
   15       -8.953715
   16       -8.942797
   17       -7.620041
   18       -7.616551
   19       -7.500910
   20       -7.498506
   21       -7.495504
   22       -7.494308
   23       -7.353633
   24       -7.348669
   25       -7.116732
   26       -6.974898
   27       -6.973249
   28       -6.817778
   29       -3.411591
   30       -2.167222
   31       -2.164927
   32       -1.293576
   33       -1.276446
   34       -1.233698
   35       -1.233459
   36       -1.217291
   37       -1.215334
   38       -1.172112
   39       -1.155051
   40       -0.989823
   41       -0.937043
   42       -0.933862
   43       -0.880116
   44       -0.610072
   45        1.725713
   46        2.052769
   47        2.077495
   48        2.082404
   49        2.106879
   50        2.194346
   51        2.216619
   52        2.218990
   53        2.223374
   54        2.227446
   55        2.246026
   56        2.571898
   57        2.575412
   58        2.936057
   59        2.940022
   60        2.945950
   61        2.948082
   62        3.351942
   63        3.426166
   64        3.446684
   65        6.969136
   66        6.978013
   67        7.121872
   68        7.125585
   69        7.127480
   70        7.131325
   71        7.161816
   72        7.533260
   73        7.537539
   74        7.909162
   75        7.917061
   76        8.405877
   77       10.472214
   78       12.466990
   79       12.760319
   80       12.782769
   81       12.784854
   82       12.795070
   83       13.084007
   84       13.105675
 
  0.2222222E+00  0.4163336E-16  0.0000000E+00  0.6172840E-02
    1      -14.085414
    2      -13.844496
    3      -13.843726
    4      -13.575898
    5      -10.837355
    6      -10.638316
    7      -10.637653
    8      -10.421619
    9       -9.624784
   10       -9.618953
   11       -9.447906
   12       -9.447199
   13       -9.441646
   14       -9.440492
   15       -9.258258
   16       -9.251566
   17       -6.949400
   18       -6.942343
   19       -6.812344
   20       -6.810063
   21       -6.804167
   22       -6.803132
   23       -6.659810
   24       -6.652367
   25       -5.787882
   26       -5.652625
   27       -5.651072
   28       -5.507274
   29       -3.142506
   30       -1.907952
   31       -1.907242
   32       -1.905515
   33       -1.891151
   34       -1.835043
   35       -1.834794
   36       -1.819601
   37       -1.817661
   38       -1.759880
   39       -1.743859
   40       -0.774344
   41       -0.722463
   42       -0.719194
   43       -0.666534
   44       -0.364828
   45        0.670482
   46        1.218421
   47        1.258857
   48        1.263239
   49        1.303883
   50        1.683555
   51        1.686433
   52        1.769293
   53        1.800216
   54        1.805445
   55        1.837085
   56        1.976453
   57        1.979885
   58        2.815170
   59        2.818999
   60        2.823443
   61        2.825233
   62        2.839609
   63        3.589775
   64        3.604625
   65        7.120154
   66        7.124389
   67        7.456774
   68        7.459976
   69        7.462556
   70        7.466331
   71        8.179105
   72        8.204291
   73        8.209057
   74        8.755370
   75        8.758928
   76        9.613707
   77       10.728297
   78       12.591538
   79       12.896677
   80       12.898574
   81       13.197104
   82       13.645083
   83       13.689596
   84       13.722187
 
  0.3333333E+00  0.8326673E-16  0.0000000E+00  0.6172840E-02
    1      -13.716716
    2      -13.480445
    3      -13.479695
    4      -13.217726
    5      -11.756329
    6      -11.544892
    7      -11.544216
    8      -11.312827
    9       -9.884144
   10       -9.880469
   11       -9.699978
   12       -9.699247
   13       -9.696111
   14       -9.694731
   15       -9.500499
   16       -9.496475
   17       -6.137031
   18       -6.128114
   19       -6.009002
   20       -6.006621
   21       -5.999385
   22       -5.998041
   23       -5.870118
   24       -5.861364
   25       -4.345941
   26       -4.227424
   27       -4.225627
   28       -4.100387
   29       -2.728611
   30       -2.714656
   31       -2.696681
   32       -2.646052
   33       -2.645585
   34       -2.632691
   35       -2.630620
   36       -2.557781
   37       -2.543725
   38       -1.479124
   39       -1.476848
   40       -0.424384
   41       -0.374047
   42       -0.370598
   43       -0.369772
   44       -0.319738
   45        0.023267
   46        0.039061
   47        0.083333
   48        0.086811
   49        0.147301
   50        0.731783
   51        0.734340
   52        1.201776
   53        1.240218
   54        1.244989
   55        1.284129
   56        1.767204
   57        1.770126
   58        2.058908
   59        2.691609
   60        2.695395
   61        2.698061
   62        2.699809
   63        3.685549
   64        3.694559
   65        7.401552
   66        7.403853
   67        7.848835
   68        7.851333
   69        7.853765
   70        7.857966
   71        8.473562
   72        8.476587
   73        9.666294
   74       10.231704
   75       10.235018
   76       10.990293
   77       11.155764
   78       12.772800
   79       13.076149
   80       13.078391
   81       13.217437
   82       13.579106
   83       13.579635
   84       13.585318
 
  0.4444444E+00  0.8326673E-16  0.0000000E+00  0.6172840E-02
    1      -13.203179
    2      -12.973390
    3      -12.972674
    4      -12.718789
    5      -12.548068
    6      -12.326463
    7      -12.325748
    8      -12.082091
    9      -10.017280
   10      -10.015205
   11       -9.830577
   12       -9.829494
   13       -9.828464
   14       -9.826597
   15       -9.627363
   16       -9.625141
   17       -5.371245
   18       -5.364203
   19       -5.276111
   20       -5.273511
   21       -5.269330
   22       -5.266491
   23       -5.179110
   24       -5.173250
   25       -3.468036
   26       -3.460680
   27       -3.404336
   28       -3.402506
   29       -3.396438
   30       -3.393988
   31       -3.324477
   32       -3.315747
   33       -2.855872
   34       -2.756131
   35       -2.753936
   36       -2.649623
   37       -2.078906
   38       -1.373526
   39       -1.300812
   40       -1.292702
   41       -1.292353
   42       -1.208077
   43       -0.884492
   44       -0.881981
   45       -0.141720
   46       -0.139290
   47        0.043569
   48        0.091322
   49        0.095038
   50        0.143383
   51        0.592593
   52        0.601325
   53        0.645344
   54        0.649669
   55        0.694078
   56        1.278282
   57        1.652872
   58        1.655054
   59        2.617317
   60        2.621354
   61        2.622413
   62        2.624030
   63        3.718988
   64        3.722911
   65        7.650811
   66        7.653448
   67        8.116822
   68        8.118505
   69        8.119747
   70        8.124862
   71        8.606468
   72        8.609571
   73       11.306387
   74       11.745298
   75       11.768752
   76       11.772139
   77       12.404810
   78       12.477358
   79       12.930601
   80       13.094426
   81       13.146275
   82       13.151969
   83       13.305264
   84       13.320195
 
 -0.1355253E-19  0.1111111E+00  0.0000000E+00  0.6172840E-02
    1      -14.307390
    2      -14.063641
    3      -14.062856
    4      -13.791496
    5       -9.817531
    6       -9.637084
    7       -9.636474
    8       -9.443613
    9       -9.270300
   10       -9.261398
   11       -9.112674
   12       -9.111714
   13       -9.102982
   14       -9.101184
   15       -8.953643
   16       -8.942360
   17       -7.620425
   18       -7.617651
   19       -7.500966
   20       -7.500257
   21       -7.495585
   22       -7.495065
   23       -7.354024
   24       -7.349479
   25       -7.115622
   26       -6.973357
   27       -6.972700
   28       -6.816775
   29       -3.411595
   30       -2.167227
   31       -2.164933
   32       -1.292260
   33       -1.276443
   34       -1.233643
   35       -1.230707
   36       -1.217505
   37       -1.215333
   38       -1.170719
   39       -1.155137
   40       -0.991042
   41       -0.937056
   42       -0.936490
   43       -0.881554
   44       -0.610079
   45        1.724974
   46        2.056291
   47        2.082393
   48        2.082733
   49        2.108984
   50        2.192180
   51        2.214933
   52        2.216620
   53        2.223892
   54        2.227119
   55        2.242053
   56        2.571390
   57        2.573834
   58        2.936558
   59        2.939942
   60        2.946160
   61        2.950143
   62        3.350442
   63        3.426265
   64        3.448180
   65        6.966912
   66        6.977906
   67        7.121303
   68        7.123832
   69        7.127184
   70        7.129400
   71        7.164243
   72        7.536012
   73        7.538540
   74        7.908860
   75        7.915223
   76        8.407571
   77       10.472205
   78       12.466318
   79       12.760710
   80       12.782217
   81       12.783945
   82       12.795995
   83       13.083516
   84       13.103770
 
  0.1111111E+00  0.1111111E+00  0.0000000E+00  0.6172840E-02
    1      -14.159226
    2      -13.917360
    3      -13.916585
    4      -13.647588
    5      -10.287553
    6      -10.284364
    7      -10.098240
    8      -10.095416
    9      -10.095384
   10      -10.091729
   11       -9.890800
   12       -9.887485
   13       -8.815564
   14       -8.704093
   15       -8.702875
   16       -8.624558
   17       -7.696308
   18       -7.658519
   19       -7.654599
   20       -7.559409
   21       -6.432792
   22       -6.429300
   23       -6.293965
   24       -6.290008
   25       -6.289973
   26       -6.286985
   27       -6.141055
   28       -6.137546
   29       -3.231938
   30       -1.994035
   31       -1.991743
   32       -1.966996
   33       -1.894754
   34       -1.892676
   35       -1.818295
   36       -1.148394
   37       -1.145724
   38       -1.089824
   39       -1.088689
   40       -1.088672
   41       -1.084125
   42       -1.028762
   43       -1.025700
   44       -0.446210
   45        1.269530
   46        1.271966
   47        1.522763
   48        1.548131
   49        1.553021
   50        1.574782
   51        1.883415
   52        1.900597
   53        1.906371
   54        1.928074
   55        2.211673
   56        2.214044
   57        2.214151
   58        2.218435
   59        2.621405
   60        3.215897
   61        3.218757
   62        3.253769
   63        3.257158
   64        3.577744
   65        6.918940
   66        6.923954
   67        6.956035
   68        7.545104
   69        7.571212
   70        7.574405
   71        8.074859
   72        8.079602
   73        8.080074
   74        8.081978
   75        8.924888
   76        8.927599
   77       10.643242
   78       12.842697
   79       12.846896
   80       13.153561
   81       13.157086
   82       13.159616
   83       13.167331
   84       13.510383
 
  0.2222222E+00  0.1111111E+00  0.0000000E+00  0.6172840E-02
    1      -13.863822
    2      -13.625663
    3      -13.624906
    4      -13.360582
    5      -11.259681
    6      -11.054937
    7      -11.054274
    8      -10.831131
    9      -10.630922
   10      -10.435025
   11      -10.434283
   12      -10.221629
   13       -8.881597
   14       -8.729396
   15       -8.728773
   16       -8.576396
   17       -7.269204
   18       -7.157856
   19       -7.154596
   20       -7.020513
   21       -5.641304
   22       -5.511387
   23       -5.510580
   24       -5.372678
   25       -5.042544
   26       -4.916708
   27       -4.915163
   28       -4.781757
   29       -2.882270
   30       -2.874259
   31       -2.796784
   32       -2.794772
   33       -2.704417
   34       -1.680984
   35       -1.649740
   36       -1.647458
   37       -1.611098
   38       -1.610873
   39       -1.538311
   40       -0.859117
   41       -0.803223
   42       -0.800033
   43       -0.742803
   44       -0.121418
   45        0.203091
   46        0.559618
   47        0.601140
   48        0.606055
   49        0.645561
   50        0.921743
   51        1.263838
   52        1.266429
   53        1.332746
   54        1.360641
   55        1.366721
   56        1.397651
   57        1.925453
   58        1.927745
   59        2.517158
   60        2.741023
   61        3.071917
   62        3.455561
   63        3.458896
   64        3.940758
   65        6.868517
   66        6.928623
   67        6.933903
   68        7.471160
   69        8.112979
   70        8.649035
   71        8.651656
   72        8.870601
   73        9.374587
   74        9.446228
   75        9.449339
   76       10.224506
   77       10.986669
   78       13.002524
   79       13.304298
   80       13.306149
   81       13.549828
   82       13.784374
   83       13.792560
   84       13.838395
 
  0.3333333E+00  0.1111111E+00  0.0000000E+00  0.6172840E-02
    1      -13.422580
    2      -13.190015
    3      -13.189284
    4      -12.931910
    5      -12.115625
    6      -11.899569
    7      -11.898872
    8      -11.661965
    9      -10.841352
   10      -10.642258
   11      -10.641505
   12      -10.425171
   13       -9.031726
   14       -8.863399
   15       -8.862902
   16       -8.684296
   17       -6.507749
   18       -6.390397
   19       -6.387322
   20       -6.262062
   21       -4.831127
   22       -4.722435
   23       -4.720900
   24       -4.608437
   25       -3.821318
   26       -3.735309
   27       -3.733091
   28       -3.636972
   29       -3.583655
   30       -3.476126
   31       -3.474344
   32       -3.361809
   33       -2.381931
   34       -2.342159
   35       -2.309507
   36       -2.308645
   37       -2.229604
   38       -1.139761
   39       -1.137577
   40       -0.786864
   41       -0.698240
   42       -0.632486
   43       -0.628745
   44       -0.564880
   45       -0.441121
   46       -0.388110
   47       -0.384794
   48       -0.330409
   49        0.342175
   50        0.344473
   51        0.358285
   52        0.699690
   53        0.705175
   54        0.740888
   55        0.746428
   56        0.788139
   57        1.717474
   58        1.741561
   59        1.743815
   60        2.717112
   61        2.963670
   62        3.545755
   63        3.548686
   64        4.329080
   65        6.711956
   66        7.048967
   67        7.053424
   68        7.577127
   69        8.616430
   70        9.103792
   71        9.106685
   72        9.645772
   73       10.440367
   74       10.950055
   75       10.953178
   76       11.500490
   77       11.607782
   78       12.949216
   79       13.310886
   80       13.503907
   81       13.506125
   82       13.591355
   83       13.620069
   84       13.633765
 
  0.4444444E+00  0.1111111E+00  0.0000000E+00  0.6172840E-02
    1      -12.840224
    2      -12.837080
    3      -12.615986
    4      -12.613697
    5      -12.612750
    6      -12.609786
    7      -12.366064
    8      -12.362821
    9      -10.912234
   10      -10.712541
   11      -10.711780
   12      -10.494132
   13       -9.087929
   14       -8.916436
   15       -8.915859
   16       -8.732584
   17       -5.981089
   18       -5.902092
   19       -5.899217
   20       -5.827817
   21       -4.338329
   22       -4.320185
   23       -4.280562
   24       -4.278386
   25       -4.271557
   26       -4.268020
   27       -4.214755
   28       -4.207956
   29       -2.780734
   30       -2.742302
   31       -2.739393
   32       -2.683946
   33       -2.114959
   34       -2.110819
   35       -2.029804
   36       -2.024847
   37       -2.022940
   38       -2.022737
   39       -1.935517
   40       -1.931640
   41       -1.643806
   42       -1.641172
   43       -0.470862
   44       -0.468431
   45       -0.467744
   46       -0.463957
   47        0.087456
   48        0.092512
   49        0.137083
   50        0.137408
   51        0.139600
   52        0.147553
   53        0.188931
   54        0.195707
   55        0.630376
   56        0.977546
   57        0.980619
   58        1.677779
   59        1.680071
   60        2.697277
   61        2.923180
   62        3.569320
   63        3.571867
   64        4.495234
   65        6.644012
   66        7.116892
   67        7.120472
   68        7.631055
   69        8.839511
   70        9.280802
   71        9.284125
   72        9.718433
   73       12.056690
   74       12.061381
   75       12.175072
   76       12.176849
   77       12.436839
   78       12.441688
   79       12.442666
   80       12.445575
   81       12.979210
   82       12.983389
   83       13.528161
   84       13.538949
 
 -0.4444444E+00  0.1111111E+00  0.0000000E+00  0.6172840E-02
    1      -13.423323
    2      -13.190752
    3      -13.190011
    4      -12.932648
    5      -12.114447
    6      -11.898389
    7      -11.897703
    8      -11.660793
    9      -10.843107
   10      -10.644114
   11      -10.643358
   12      -10.426982
   13       -9.028900
   14       -8.860347
   15       -8.859732
   16       -8.680743
   17       -6.501405
   18       -6.382983
   19       -6.381765
   20       -6.255678
   21       -4.841058
   22       -4.732853
   23       -4.729704
   24       -4.617503
   25       -3.831624
   26       -3.745069
   27       -3.744606
   28       -3.647819
   29       -3.586180
   30       -3.478904
   31       -3.476741
   32       -3.364462
   33       -2.369442
   34       -2.342951
   35       -2.297705
   36       -2.294910
   37       -2.216619
   38       -1.140544
   39       -1.138378
   40       -0.785669
   41       -0.696810
   42       -0.630334
   43       -0.628088
   44       -0.563498
   45       -0.438531
   46       -0.385806
   47       -0.381989
   48       -0.327898
   49        0.343311
   50        0.345623
   51        0.357521
   52        0.697965
   53        0.703671
   54        0.739911
   55        0.743797
   56        0.785998
   57        1.718720
   58        1.739346
   59        1.741698
   60        2.717935
   61        2.960266
   62        3.549680
   63        3.552060
   64        4.340295
   65        6.707496
   66        7.050738
   67        7.053639
   68        7.576600
   69        8.612662
   70        9.099828
   71        9.103589
   72        9.645427
   73       10.440922
   74       10.948834
   75       10.952315
   76       11.499321
   77       11.605214
   78       12.950194
   79       13.308970
   80       13.501762
   81       13.504500
   82       13.598219
   83       13.622278
   84       13.643678
 
 -0.3333333E+00  0.1111111E+00  0.0000000E+00  0.6172840E-02
    1      -13.864342
    2      -13.626195
    3      -13.625430
    4      -13.361103
    5      -11.258287
    6      -11.053540
    7      -11.052880
    8      -10.829727
    9      -10.634480
   10      -10.438563
   11      -10.437836
   12      -10.225321
   13       -8.875499
   14       -8.722257
   15       -8.721664
   16       -8.567764
   17       -7.265795
   18       -7.151967
   19       -7.151286
   20       -7.015245
   21       -5.651110
   22       -5.521987
   23       -5.519352
   24       -5.382174
   25       -5.045010
   26       -4.919326
   27       -4.917568
   28       -4.784320
   29       -2.895964
   30       -2.874857
   31       -2.809712
   32       -2.809323
   33       -2.718155
   34       -1.664983
   35       -1.650316
   36       -1.648038
   37       -1.596179
   38       -1.593739
   39       -1.522342
   40       -0.857110
   41       -0.801370
   42       -0.797954
   43       -0.740880
   44       -0.122014
   45        0.204417
   46        0.558558
   47        0.601296
   48        0.603179
   49        0.643958
   50        0.918745
   51        1.265068
   52        1.267712
   53        1.334547
   54        1.363233
   55        1.366182
   56        1.397723
   57        1.921217
   58        1.923672
   59        2.518237
   60        2.741511
   61        3.064876
   62        3.462795
   63        3.465227
   64        3.959989
   65        6.859900
   66        6.931395
   67        6.934038
   68        7.473548
   69        8.109397
   70        8.642879
   71        8.646993
   72        8.870644
   73        9.372004
   74        9.444730
   75        9.448230
   76       10.221926
   77       10.985803
   78       13.000532
   79       13.302257
   80       13.304598
   81       13.546634
   82       13.783374
   83       13.786100
   84       13.850407
 
 -0.2222222E+00  0.1111111E+00  0.0000000E+00  0.6172840E-02
    1      -14.159547
    2      -13.917678
    3      -13.916898
    4      -13.647913
    5      -10.291321
    6      -10.284356
    7      -10.101073
    8      -10.100415
    9      -10.093959
   10      -10.093272
   11       -9.894923
   12       -9.887606
   13       -8.805444
   14       -8.691573
   15       -8.691069
   16       -8.610003
   17       -7.697482
   18       -7.656468
   19       -7.655996
   20       -7.557707
   21       -6.438519
   22       -6.433709
   23       -6.298963
   24       -6.296488
   25       -6.293729
   26       -6.292129
   27       -6.146804
   28       -6.142135
   29       -3.232292
   30       -1.994391
   31       -1.992105
   32       -1.982427
   33       -1.909480
   34       -1.908980
   35       -1.833650
   36       -1.145086
   37       -1.130542
   38       -1.087483
   39       -1.084280
   40       -1.072588
   41       -1.070240
   42       -1.025355
   43       -1.011009
   44       -0.446570
   45        1.266409
   46        1.272395
   47        1.515824
   48        1.543180
   49        1.543732
   50        1.567830
   51        1.891268
   52        1.910356
   53        1.910675
   54        1.933566
   55        2.206591
   56        2.209233
   57        2.214741
   58        2.217896
   59        2.621321
   60        3.205590
   61        3.218645
   62        3.262814
   63        3.265372
   64        3.600884
   65        6.922349
   66        6.924990
   67        6.944326
   68        7.551636
   69        7.571963
   70        7.573109
   71        8.071796
   72        8.075450
   73        8.076225
   74        8.079444
   75        8.922431
   76        8.923032
   77       10.642695
   78       12.843939
   79       12.877054
   80       13.155542
   81       13.157819
   82       13.188783
   83       13.190882
   84       13.501024
 
 -0.1111111E+00  0.1111111E+00  0.0000000E+00  0.6172840E-02
    1      -14.307496
    2      -14.063747
    3      -14.062961
    4      -13.791600
    5       -9.824944
    6       -9.644784
    7       -9.644251
    8       -9.451795
    9       -9.261333
   10       -9.259182
   11       -9.103215
   12       -9.101607
   13       -9.101522
   14       -9.098309
   15       -8.942880
   16       -8.940096
   17       -7.619997
   18       -7.617767
   19       -7.499962
   20       -7.497146
   21       -7.497071
   22       -7.495927
   23       -7.352093
   24       -7.350227
   25       -7.121278
   26       -6.980003
   27       -6.977407
   28       -6.822501
   29       -3.411713
   30       -2.167345
   31       -2.165053
   32       -1.293656
   33       -1.291247
   34       -1.234072
   35       -1.233248
   36       -1.233228
   37       -1.228895
   38       -1.172326
   39       -1.169542
   40       -0.973889
   41       -0.920766
   42       -0.918496
   43       -0.864441
   44       -0.610201
   45        1.720745
   46        2.045953
   47        2.070339
   48        2.075946
   49        2.100968
   50        2.200483
   51        2.220734
   52        2.227004
   53        2.228709
   54        2.229287
   55        2.251310
   56        2.563410
   57        2.566312
   58        2.945431
   59        2.946836
   60        2.947133
   61        2.952160
   62        3.334881
   63        3.445797
   64        3.448685
   65        6.967046
   66        6.970575
   67        7.122009
   68        7.127518
   69        7.127886
   70        7.129545
   71        7.167593
   72        7.530289
   73        7.535121
   74        7.913056
   75        7.915653
   76        8.401943
   77       10.472017
   78       12.499752
   79       12.758876
   80       12.761664
   81       12.815423
   82       12.817651
   83       13.078848
   84       13.097373
 
 -0.4065758E-19  0.2222222E+00  0.0000000E+00  0.6172840E-02
    1      -14.085407
    2      -13.844492
    3      -13.843714
    4      -13.575890
    5      -10.837333
    6      -10.638308
    7      -10.637630
    8      -10.421613
    9       -9.624985
   10       -9.618689
   11       -9.448336
   12       -9.447263
   13       -9.441634
   14       -9.439754
   15       -9.258367
   16       -9.251260
   17       -6.949792
   18       -6.943227
   19       -6.812384
   20       -6.811536
   21       -6.804287
   22       -6.803833
   23       -6.660181
   24       -6.653080
   25       -5.786887
   26       -5.651177
   27       -5.650565
   28       -5.506304
   29       -3.142524
   30       -1.907906
   31       -1.906095
   32       -1.905492
   33       -1.891056
   34       -1.834938
   35       -1.832286
   36       -1.819485
   37       -1.817659
   38       -1.758528
   39       -1.743810
   40       -0.775635
   41       -0.722477
   42       -0.721972
   43       -0.668056
   44       -0.364860
   45        0.670042
   46        1.221159
   47        1.263219
   48        1.263624
   49        1.305999
   50        1.683208
   51        1.685563
   52        1.767209
   53        1.800201
   54        1.800525
   55        1.834008
   56        1.976489
   57        1.980764
   58        2.815555
   59        2.818894
   60        2.823608
   61        2.827135
   62        2.838782
   63        3.589946
   64        3.606052
   65        7.118078
   66        7.124205
   67        7.455882
   68        7.458176
   69        7.462457
   70        7.464680
   71        8.180847
   72        8.203221
   73        8.207845
   74        8.757348
   75        8.759786
   76        9.615024
   77       10.728269
   78       12.590814
   79       12.896427
   80       12.897339
   81       13.196437
   82       13.642560
   83       13.657391
   84       13.698974
 
  0.1111111E+00  0.2222222E+00  0.0000000E+00  0.6172840E-02
    1      -13.863816
    2      -13.625660
    3      -13.624897
    4      -13.360576
    5      -11.259639
    6      -11.054917
    7      -11.054212
    8      -10.831092
    9      -10.630954
   10      -10.435035
   11      -10.434327
   12      -10.221649
   13       -8.881586
   14       -8.729374
   15       -8.728769
   16       -8.576382
   17       -7.269267
   18       -7.157857
   19       -7.154776
   20       -7.020631
   21       -5.642387
   22       -5.512816
   23       -5.511308
   24       -5.373761
   25       -5.041466
   26       -4.915240
   27       -4.914485
   28       -4.780679
   29       -2.882169
   30       -2.874273
   31       -2.796614
   32       -2.794771
   33       -2.704344
   34       -1.679623
   35       -1.649755
   36       -1.647478
   37       -1.611004
   38       -1.608146
   39       -1.536836
   40       -0.860510
   41       -0.803257
   42       -0.802962
   43       -0.744390
   44       -0.121441
   45        0.202721
   46        0.561176
   47        0.603404
   48        0.606057
   49        0.646366