  32  32   0   0
  0.8880211E+01  0.4932875E-09  0.4932875E-09  0.1349080E-08  0.5000000E-15
  1.000000000000000E-004
  CAR 
 graphite                                
     15.54299703    -16.99610763  301      4.62491991      1.00000000
    -16.996  0.0000E+00  0.0000E+00
    -16.888  0.0000E+00  0.0000E+00
    -16.779  0.0000E+00  0.0000E+00
    -16.671  0.0000E+00  0.0000E+00
    -16.562  0.0000E+00  0.0000E+00
    -16.454  0.0000E+00  0.0000E+00
    -16.345  0.0000E+00  0.0000E+00
    -16.237  0.0000E+00  0.0000E+00
    -16.128  0.0000E+00  0.0000E+00
    -16.020  0.0000E+00  0.0000E+00
    -15.911  0.0000E+00  0.0000E+00
    -15.803  0.0000E+00  0.0000E+00
    -15.695  0.0000E+00  0.0000E+00
    -15.586  0.0000E+00  0.0000E+00
    -15.478  0.0000E+00  0.0000E+00
    -15.369  0.0000E+00  0.0000E+00
    -15.261  0.0000E+00  0.0000E+00
    -15.152  0.0000E+00  0.0000E+00
    -15.044  0.0000E+00  0.0000E+00
    -14.935  0.5860E+00  0.1377E-01
    -14.827  0.2745E+01  0.1920E+00
    -14.718  0.3520E+01  0.5116E+00
    -14.610  0.5065E+01  0.9885E+00
    -14.501  0.4854E+01  0.1527E+01
    -14.393  0.5035E+01  0.2067E+01
    -14.285  0.4991E+01  0.2611E+01
    -14.176  0.4869E+01  0.3147E+01
    -14.068  0.4855E+01  0.3672E+01
    -13.959  0.5104E+01  0.4212E+01
    -13.851  0.5358E+01  0.4779E+01
    -13.742  0.7281E+01  0.5497E+01
    -13.634  0.7495E+01  0.6301E+01
    -13.525  0.5882E+01  0.7116E+01
    -13.417  0.2371E+01  0.7521E+01
    -13.308  0.1854E+01  0.7741E+01
    -13.200  0.2092E+01  0.7950E+01
    -13.091  0.2485E+01  0.8198E+01
    -12.983  0.3069E+01  0.8492E+01
    -12.874  0.1301E+02  0.9188E+01
    -12.766  0.8376E+01  0.1014E+02
    -12.658  0.6814E+01  0.1100E+02
    -12.549  0.4034E+01  0.1150E+02
    -12.441  0.4142E+01  0.1194E+02
    -12.332  0.4263E+01  0.1240E+02
    -12.224  0.4414E+01  0.1287E+02
    -12.115  0.4556E+01  0.1336E+02
    -12.007  0.4686E+01  0.1386E+02
    -11.898  0.5014E+01  0.1438E+02
    -11.790  0.5527E+01  0.1495E+02
    -11.681  0.6432E+01  0.1558E+02
    -11.573  0.6005E+01  0.1626E+02
    -11.464  0.5616E+01  0.1689E+02
    -11.356  0.5494E+01  0.1748E+02
    -11.248  0.5660E+01  0.1809E+02
    -11.139  0.5825E+01  0.1871E+02
    -11.031  0.5991E+01  0.1935E+02
    -10.922  0.5763E+01  0.2000E+02
    -10.814  0.5579E+01  0.2061E+02
    -10.705  0.5454E+01  0.2121E+02
    -10.597  0.4932E+01  0.2178E+02
    -10.488  0.3864E+01  0.2225E+02
    -10.380  0.4593E+01  0.2270E+02
    -10.271  0.4997E+01  0.2323E+02
    -10.163  0.5182E+01  0.2378E+02
    -10.054  0.6546E+01  0.2439E+02
     -9.946  0.9384E+01  0.2522E+02
     -9.838  0.1025E+02  0.2638E+02
     -9.729  0.7933E+01  0.2737E+02
     -9.621  0.5676E+01  0.2810E+02
     -9.512  0.4635E+01  0.2865E+02
     -9.404  0.4158E+01  0.2912E+02
     -9.295  0.3682E+01  0.2955E+02
     -9.187  0.5999E+01  0.3016E+02
     -9.078  0.4849E+01  0.3078E+02
     -8.970  0.1918E+01  0.3103E+02
     -8.861  0.1712E+01  0.3123E+02
     -8.753  0.1507E+01  0.3140E+02
     -8.644  0.1301E+01  0.3155E+02
     -8.536  0.1370E+01  0.3169E+02
     -8.427  0.1865E+01  0.3186E+02
     -8.319  0.2364E+01  0.3209E+02
     -8.211  0.2864E+01  0.3238E+02
     -8.102  0.6027E+01  0.3281E+02
     -7.994  0.1117E+02  0.3374E+02
     -7.885  0.5073E+01  0.3456E+02
     -7.777  0.5272E+01  0.3511E+02
     -7.668  0.6439E+01  0.3574E+02
     -7.560  0.7606E+01  0.3650E+02
     -7.451  0.8773E+01  0.3739E+02
     -7.343  0.9905E+01  0.3841E+02
     -7.234  0.6521E+01  0.3928E+02
     -7.126  0.5580E+01  0.3989E+02
     -7.017  0.5579E+01  0.4050E+02
     -6.909  0.5528E+01  0.4110E+02
     -6.801  0.5374E+01  0.4169E+02
     -6.692  0.5190E+01  0.4227E+02
     -6.584  0.5063E+01  0.4282E+02
     -6.475  0.4945E+01  0.4336E+02
     -6.367  0.4826E+01  0.4389E+02
     -6.258  0.4707E+01  0.4441E+02
     -6.150  0.4589E+01  0.4492E+02
     -6.041  0.4470E+01  0.4541E+02
     -5.933  0.4357E+01  0.4589E+02
     -5.824  0.4779E+01  0.4637E+02
     -5.716  0.5370E+01  0.4692E+02
     -5.607  0.5961E+01  0.4754E+02
     -5.499  0.6553E+01  0.4821E+02
     -5.390  0.7144E+01  0.4896E+02
     -5.282  0.7735E+01  0.4976E+02
     -5.174  0.8326E+01  0.5064E+02
     -5.065  0.8917E+01  0.5157E+02
     -4.957  0.5004E+01  0.5236E+02
     -4.848  0.5616E+01  0.5284E+02
     -4.740  0.7057E+01  0.5356E+02
     -4.631  0.5589E+01  0.5425E+02
     -4.523  0.4121E+01  0.5478E+02
     -4.414  0.2653E+01  0.5514E+02
     -4.306  0.1187E+01  0.5535E+02
     -4.197  0.1989E+01  0.5550E+02
     -4.089  0.3490E+01  0.5580E+02
     -3.980  0.4990E+01  0.5626E+02
     -3.872  0.7685E+01  0.5689E+02
     -3.764  0.1177E+02  0.5797E+02
     -3.655  0.1155E+02  0.5923E+02
     -3.547  0.1270E+02  0.6064E+02
     -3.438  0.7835E+01  0.6180E+02
     -3.330  0.4601E+01  0.6237E+02
     -3.221  0.5986E+01  0.6294E+02
     -3.113  0.6833E+01  0.6364E+02
     -3.004  0.1066E+02  0.6454E+02
     -2.896  0.1633E+02  0.6600E+02
     -2.787  0.2069E+02  0.6820E+02
     -2.679  0.6819E+01  0.6930E+02
     -2.570  0.7058E+01  0.7006E+02
     -2.462  0.7371E+01  0.7084E+02
     -2.354  0.8218E+01  0.7168E+02
     -2.245  0.1026E+02  0.7268E+02
     -2.137  0.1559E+02  0.7426E+02
     -2.028  0.1215E+02  0.7576E+02
     -1.920  0.1004E+02  0.7695E+02
     -1.811  0.2060E+02  0.7850E+02
     -1.703  0.1474E+02  0.8156E+02
     -1.594  0.1928E+02  0.8358E+02
     -1.486  0.1380E+02  0.8520E+02
     -1.377  0.1566E+02  0.8677E+02
     -1.269  0.1417E+02  0.8862E+02
     -1.160  0.8228E+01  0.8976E+02
     -1.052  0.6478E+01  0.9050E+02
     -0.943  0.7561E+01  0.9126E+02
     -0.835  0.8384E+01  0.9213E+02
     -0.727  0.9562E+01  0.9310E+02
     -0.618  0.1110E+02  0.9422E+02
     -0.510  0.1079E+02  0.9540E+02
     -0.401  0.1336E+02  0.9660E+02
     -0.293  0.1156E+02  0.9836E+02
     -0.184  0.1277E+02  0.9968E+02
     -0.076  0.1135E+02  0.1010E+03
      0.033  0.9541E+01  0.1021E+03
      0.141  0.9938E+01  0.1032E+03
      0.250  0.9730E+01  0.1042E+03
      0.358  0.9677E+01  0.1053E+03
      0.467  0.9609E+01  0.1063E+03
      0.575  0.9641E+01  0.1074E+03
      0.683  0.9368E+01  0.1084E+03
      0.792  0.9193E+01  0.1094E+03
      0.900  0.9154E+01  0.1104E+03
      1.009  0.9767E+01  0.1114E+03
      1.117  0.9546E+01  0.1125E+03
      1.226  0.9763E+01  0.1135E+03
      1.334  0.1065E+02  0.1146E+03
      1.443  0.1039E+02  0.1158E+03
      1.551  0.8633E+01  0.1168E+03
      1.660  0.6594E+01  0.1176E+03
      1.768  0.6358E+01  0.1183E+03
      1.877  0.4965E+01  0.1190E+03
      1.985  0.3327E+01  0.1194E+03
      2.094  0.2892E+01  0.1197E+03
      2.202  0.3336E+01  0.1201E+03
      2.310  0.4710E+01  0.1205E+03
      2.419  0.7127E+01  0.1211E+03
      2.527  0.8497E+01  0.1220E+03
      2.636  0.8826E+01  0.1230E+03
      2.744  0.7770E+01  0.1239E+03
      2.853  0.5917E+01  0.1247E+03
      2.961  0.4601E+01  0.1252E+03
      3.070  0.3743E+01  0.1257E+03
      3.178  0.3264E+01  0.1261E+03
      3.287  0.2906E+01  0.1264E+03
      3.395  0.2534E+01  0.1267E+03
      3.504  0.2202E+01  0.1269E+03
      3.612  0.1909E+01  0.1272E+03
      3.720  0.1624E+01  0.1274E+03
      3.829  0.1356E+01  0.1275E+03
      3.937  0.1126E+01  0.1276E+03
      4.046  0.8991E+00  0.1278E+03
      4.154  0.6996E+00  0.1278E+03
      4.263  0.5179E+00  0.1279E+03
      4.371  0.3484E+00  0.1280E+03
      4.480  0.1900E+00  0.1280E+03
      4.588  0.4155E-01  0.1280E+03
      4.697  0.6374E-01  0.1280E+03
      4.805  0.1848E+00  0.1280E+03
      4.914  0.3171E+00  0.1280E+03
      5.022  0.4630E+00  0.1281E+03
      5.130  0.6233E+00  0.1281E+03
      5.239  0.8054E+00  0.1282E+03
      5.347  0.1026E+01  0.1283E+03
      5.456  0.1270E+01  0.1284E+03
      5.564  0.1513E+01  0.1286E+03
      5.673  0.1757E+01  0.1288E+03
      5.781  0.2751E+01  0.1290E+03
      5.890  0.3441E+01  0.1293E+03
      5.998  0.3838E+01  0.1297E+03
      6.107  0.4825E+01  0.1302E+03
      6.215  0.8961E+01  0.1309E+03
      6.324  0.1379E+02  0.1322E+03
      6.432  0.8951E+01  0.1333E+03
      6.541  0.7203E+01  0.1342E+03
      6.649  0.6157E+01  0.1349E+03
      6.757  0.5570E+01  0.1355E+03
      6.866  0.5286E+01  0.1361E+03
      6.974  0.4910E+01  0.1367E+03
      7.083  0.4082E+01  0.1372E+03
      7.191  0.3697E+01  0.1376E+03
      7.300  0.3677E+01  0.1380E+03
      7.408  0.3943E+01  0.1384E+03
      7.517  0.4385E+01  0.1388E+03
      7.625  0.4759E+01  0.1393E+03
      7.734  0.4894E+01  0.1399E+03
      7.842  0.4712E+01  0.1404E+03
      7.951  0.4550E+01  0.1409E+03
      8.059  0.4376E+01  0.1414E+03
      8.167  0.4241E+01  0.1418E+03
      8.276  0.4146E+01  0.1423E+03
      8.384  0.4077E+01  0.1427E+03
      8.493  0.4018E+01  0.1432E+03
      8.601  0.3967E+01  0.1436E+03
      8.710  0.3929E+01  0.1440E+03
      8.818  0.3633E+01  0.1444E+03
      8.927  0.3441E+01  0.1448E+03
      9.035  0.3560E+01  0.1452E+03
      9.144  0.3752E+01  0.1456E+03
      9.252  0.3720E+01  0.1460E+03
      9.361  0.3673E+01  0.1464E+03
      9.469  0.3706E+01  0.1468E+03
      9.577  0.3762E+01  0.1472E+03
      9.686  0.3794E+01  0.1476E+03
      9.794  0.3782E+01  0.1480E+03
      9.903  0.3769E+01  0.1484E+03
     10.011  0.3757E+01  0.1489E+03
     10.120  0.3769E+01  0.1493E+03
     10.228  0.3777E+01  0.1497E+03
     10.337  0.5348E+01  0.1502E+03
     10.445  0.5983E+01  0.1508E+03
     10.554  0.5919E+01  0.1514E+03
     10.662  0.5669E+01  0.1521E+03
     10.771  0.5411E+01  0.1527E+03
     10.879  0.4412E+01  0.1532E+03
     10.988  0.5533E+01  0.1538E+03
     11.096  0.3112E+01  0.1543E+03
     11.204  0.2446E+01  0.1546E+03
     11.313  0.2705E+01  0.1549E+03
     11.421  0.3045E+01  0.1552E+03
     11.530  0.3373E+01  0.1555E+03
     11.638  0.3410E+01  0.1559E+03
     11.747  0.2775E+01  0.1562E+03
     11.855  0.3705E+01  0.1566E+03
     11.964  0.7059E+01  0.1572E+03
     12.072  0.7385E+01  0.1579E+03
     12.181  0.8746E+01  0.1588E+03
     12.289  0.1157E+02  0.1599E+03
     12.398  0.1318E+02  0.1613E+03
     12.506  0.1320E+02  0.1627E+03
     12.614  0.1353E+02  0.1641E+03
     12.723  0.1173E+02  0.1655E+03
     12.831  0.1056E+02  0.1667E+03
     12.940  0.6012E+01  0.1678E+03
     13.048  0.2282E+00  0.1680E+03
     13.157  0.1391E+00  0.1680E+03
     13.265  0.7194E-01  0.1680E+03
     13.374  0.2672E-01  0.1680E+03
     13.482  0.3449E-02  0.1680E+03
     13.591  0.0000E+00  0.1680E+03
     13.699  0.0000E+00  0.1680E+03
     13.808  0.0000E+00  0.1680E+03
     13.916  0.0000E+00  0.1680E+03
     14.025  0.0000E+00  0.1680E+03
     14.133  0.0000E+00  0.1680E+03
     14.241  0.0000E+00  0.1680E+03
     14.350  0.0000E+00  0.1680E+03
     14.458  0.0000E+00  0.1680E+03
     14.567  0.0000E+00  0.1680E+03
     14.675  0.0000E+00  0.1680E+03
     14.784  0.0000E+00  0.1680E+03
     14.892  0.0000E+00  0.1680E+03
     15.001  0.0000E+00  0.1680E+03
     15.109  0.0000E+00  0.1680E+03
     15.218  0.0000E+00  0.1680E+03
     15.326  0.0000E+00  0.1680E+03
     15.435  0.0000E+00  0.1680E+03
     15.543  0.0000E+00  0.1680E+03
