   32   32    1    1
  0.8880211E+01  0.4932875E-09  0.4932875E-09  0.1349080E-08  0.5000000E-15
  1.000000000000000E-004
  CAR 
 graphite                                
    128     76     84
 
  0.0000000E+00  0.0000000E+00  0.0000000E+00  0.6944444E-02
    1      -14.996108
    2      -14.856934
    3      -14.856473
    4      -14.708027
    5       -9.677896
    6       -9.667460
    7       -9.665128
    8       -9.621165
    9       -9.619492
   10       -9.609345
   11       -9.607865
   12       -9.607819
   13       -9.604023
   14       -9.572042
   15       -9.559420
   16       -9.556220
   17       -8.602169
   18       -8.600585
   19       -8.598896
   20       -8.571265
   21       -8.570550
   22       -8.568482
   23       -8.567910
   24       -8.567854
   25       -8.565416
   26       -8.520162
   27       -8.519625
   28       -8.517643
   29       -3.849546
   30       -2.986275
   31       -2.984702
   32       -1.936701
   33       -1.775642
   34       -1.773363
   35       -1.757778
   36       -1.749861
   37       -1.748999
   38       -1.748989
   39       -1.745066
   40       -1.732336
   41       -1.730272
   42       -1.722947
   43       -1.720164
   44       -1.704842
   45        1.619987
   46        1.627109
   47        1.627655
   48        1.632798
   49        1.638966
   50        1.643839
   51        1.644619
   52        1.651267
   53        1.880288
   54        1.882890
   55        1.884428
   56        2.267626
   57        2.270935
   58        2.277731
   59        2.278146
   60        2.278356
   61        2.282778
   62        2.536718
   63        2.554537
   64        2.557144
   65        6.138951
   66        6.142091
   67        6.148252
   68        6.282821
   69        6.284771
   70        6.287102
   71        6.289294
   72        6.289550
   73        6.292079
   74        6.796315
   75        6.803505
   76        6.805989
   77        8.890585
   78       11.483938
   79       11.488051
   80       11.833410
   81       11.837299
   82       11.869034
   83       12.019993
   84       12.033790
 
  0.1666667E+00  0.1387779E-16  0.0000000E+00  0.1388889E-01
    1      -14.830512
    2      -14.692672
    3      -14.692217
    4      -14.545324
    5      -10.977028
    6      -10.871573
    7      -10.871166
    8      -10.760805
    9      -10.105421
   10      -10.098172
   11      -10.012902
   12      -10.012229
   13      -10.005180
   14      -10.004318
   15       -9.916736
   16       -9.908767
   17       -7.982264
   18       -7.976306
   19       -7.909137
   20       -7.907085
   21       -7.902087
   22       -7.901316
   23       -7.828677
   24       -7.822343
   25       -7.138420
   26       -7.062855
   27       -7.061409
   28       -6.982734
   29       -3.648510
   30       -2.790593
   31       -2.789021
   32       -2.267011
   33       -2.250335
   34       -2.234595
   35       -2.234437
   36       -2.218611
   37       -2.216674
   38       -2.201381
   39       -2.184613
   40       -1.748551
   41       -1.611180
   42       -1.586659
   43       -1.583804
   44       -1.559019
   45        0.797214
   46        0.968840
   47        0.983859
   48        0.987994
   49        1.002436
   50        1.281313
   51        1.293002
   52        1.297551
   53        1.310418
   54        1.430549
   55        1.432985
   56        1.655649
   57        1.659943
   58        2.117837
   59        2.160271
   60        2.163361
   61        2.169039
   62        2.170482
   63        2.622457
   64        2.635889
   65        6.322552
   66        6.325631
   67        6.564066
   68        6.567182
   69        6.569815
   70        6.572596
   71        7.005558
   72        7.075422
   73        7.082223
   74        7.387892
   75        7.391276
   76        7.968113
   77        9.091004
   78       11.658086
   79       11.662043
   80       11.926161
   81       12.105002
   82       12.106426
   83       12.285054
   84       12.568046
 
  0.3333333E+00  0.2775558E-16  0.0000000E+00  0.1388889E-01
    1      -14.335516
    2      -14.201698
    3      -14.201267
    4      -14.058968
    5      -12.387322
    6      -12.269318
    7      -12.268941
    8      -12.144540
    9      -10.527985
   10      -10.524322
   11      -10.426909
   12      -10.426321
   13      -10.423109
   14      -10.421967
   15      -10.320437
   16      -10.316594
   17       -6.808740
   18       -6.799704
   19       -6.740629
   20       -6.738537
   21       -6.730953
   22       -6.729879
   23       -6.667730
   24       -6.658825
   25       -5.022748
   26       -4.960571
   27       -4.958863
   28       -4.894836
   29       -3.424107
   30       -3.410064
   31       -3.381697
   32       -3.381290
   33       -3.368231
   34       -3.366226
   35       -3.337305
   36       -3.323117
   37       -3.049864
   38       -2.208858
   39       -2.207294
   40       -1.190658
   41       -1.137206
   42       -1.113783
   43       -1.110711
   44       -1.087064
   45       -0.746688
   46       -0.684183
   47       -0.654930
   48       -0.651793
   49       -0.622516
   50        0.007337
   51        0.009160
   52        0.482387
   53        0.499852
   54        0.504039
   55        0.521862
   56        0.895036
   57        1.352484
   58        1.355751
   59        1.971833
   60        1.974802
   61        1.977716
   62        1.978913
   63        2.648188
   64        2.654965
   65        6.825097
   66        6.828117
   67        7.140546
   68        7.142652
   69        7.145242
   70        7.148559
   71        7.549592
   72        7.553047
   73        9.151102
   74        9.528198
   75        9.531254
   76        9.693894
   77       10.022584
   78       11.977404
   79       12.156839
   80       12.159953
   81       12.248486
   82       12.335161
   83       12.337045
   84       12.625104
 
  0.5000000E+00  0.0000000E+00  0.0000000E+00  0.6944444E-02
    1      -13.518463
    2      -13.515669
    3      -13.392336
    4      -13.389752
    5      -13.389725
    6      -13.386695
    7      -13.256064
    8      -13.253204
    9      -10.676563
   10      -10.674867
   11      -10.573843
   12      -10.572443
   13      -10.572407
   14      -10.570349
   15      -10.464959
   16      -10.463192
   17       -5.897215
   18       -5.895490
   19       -5.859858
   20       -5.859847
   21       -5.859144
   22       -5.855122
   23       -5.823728
   24       -5.821233
   25       -4.309245
   26       -4.307495
   27       -4.286299
   28       -4.283721
   29       -4.282676
   30       -4.282665
   31       -4.254179
   32       -4.253087
   33       -2.802941
   34       -2.799522
   35       -2.758347
   36       -2.753067
   37       -2.753048
   38       -2.752405
   39       -2.707412
   40       -2.704754
   41       -2.070327
   42       -2.068069
   43       -1.261208
   44       -1.259005
   45       -1.258917
   46       -1.255538
   47       -0.403777
   48       -0.400244
   49       -0.381540
   50       -0.380301
   51       -0.380289
   52       -0.372759
   53       -0.358057
   54       -0.350816
   55       -0.288559
   56       -0.285921
   57        1.233459
   58        1.235429
   59        1.887788
   60        1.891277
   61        1.891699
   62        1.893058
   63        2.633193
   64        2.635631
   65        7.153781
   66        7.156157
   67        7.446265
   68        7.447259
   69        7.447747
   70        7.452557
   71        7.742297
   72        7.745098
   73       10.690887
   74       10.691826
   75       11.581605
   76       11.585198
   77       11.804130
   78       11.809511
   79       11.810995
   80       11.814349
   81       12.195157
   82       12.198537
   83       12.573431
   84       12.597154
 
 -0.1355253E-19  0.1666667E+00  0.0000000E+00  0.1388889E-01
    1      -14.830508
    2      -14.692670
    3      -14.692211
    4      -14.545320
    5      -10.977041
    6      -10.871580
    7      -10.871199
    8      -10.760834
    9      -10.105523
   10      -10.097929
   11      -10.013119
   12      -10.012241
   13      -10.005172
   14      -10.003687
   15       -9.916773
   16       -9.908466
   17       -7.982610
   18       -7.977197
   19       -7.909150
   20       -7.908419
   21       -7.902243
   22       -7.901992
   23       -7.828951
   24       -7.823027
   25       -7.137501
   26       -7.061445
   27       -7.061035
   28       -6.981863
   29       -3.648520
   30       -2.790603
   31       -2.789035
   32       -2.265852
   33       -2.250232
   34       -2.234572
   35       -2.232030
   36       -2.218638
   37       -2.216674
   38       -2.200108
   39       -2.184637
   40       -1.748566
   41       -1.612276
   42       -1.586667
   43       -1.586288
   44       -1.560475
   45        0.796636
   46        0.972256
   47        0.987996
   48        0.988317
   49        1.004182
   50        1.279682
   51        1.292990
   52        1.293210
   53        1.306473
   54        1.430222
   55        1.431813
   56        1.655737
   57        1.660843
   58        2.116804
   59        2.160711
   60        2.163310
   61        2.169195
   62        2.172379
   63        2.622584
   64        2.637198
   65        6.320714
   66        6.325301
   67        6.563665
   68        6.565446
   69        6.569421
   70        6.570983
   71        7.007332
   72        7.074959
   73        7.080641
   74        7.390219
   75        7.391991
   76        7.969531
   77        9.090993
   78       11.658028
   79       11.661985
   80       11.925532
   81       12.104814
   82       12.105318
   83       12.284380
   84       12.573627
 
  0.1666667E+00  0.1666667E+00  0.0000000E+00  0.1388889E-01
    1      -14.499977
    2      -14.364823
    3      -14.364382
    4      -14.220563
    5      -11.599059
    6      -11.596131
    7      -11.488807
    8      -11.486148
    9      -11.486119
   10      -11.482894
   11      -11.370254
   12      -11.367250
   13       -9.252540
   14       -9.197946
   15       -9.196747
   16       -9.151184
   17       -8.196660
   18       -8.171070
   19       -8.167532
   20       -8.125959
   21       -6.029068
   22       -6.025572
   23       -5.962272
   24       -5.958428
   25       -5.958401
   26       -5.955442
   27       -5.889419
   28       -5.886025
   29       -3.596397
   30       -3.552453
   31       -3.550620
   32       -3.505395
   33       -3.248342
   34       -2.401516
   35       -2.399948
   36       -1.938775
   37       -1.936156
   38       -1.908331
   39       -1.906842
   40       -1.906832
   41       -1.902665
   42       -1.875833
   43       -1.872644
   44       -1.375149
   45       -0.065329
   46       -0.050491
   47       -0.046371
   48       -0.033183
   49        0.153246
   50        0.155197
   51        0.605114
   52        0.614224
   53        0.618662
   54        0.630320
   55        0.855420
   56        0.857606
   57        0.857758
   58        0.861033
   59        1.663941
   60        1.666452
   61        2.479104
   62        2.865441
   63        2.868276
   64        3.121988
   65        6.065245
   66        6.070078
   67        6.075429
   68        6.358565
   69        7.954918
   70        7.957611
   71        8.339600
   72        8.343316
   73        8.343637
   74        8.345598
   75        8.839090
   76        8.841646
   77        9.494296
   78       12.009628
   79       12.013247
   80       12.714772
   81       12.718557
   82       12.914645
   83       12.918887
   84       12.921508
 
  0.3333333E+00  0.1666667E+00  0.0000000E+00  0.1388889E-01
    1      -13.843007
    2      -13.713175
    3      -13.712770
    4      -13.575028
    5      -12.870189
    6      -12.748262
    7      -12.747856
    8      -12.619032
    9      -11.914499
   10      -11.800503
   11      -11.800008
   12      -11.680053
   13       -9.236879
   14       -9.151939
   15       -9.151606
   16       -9.064467
   17       -7.340288
   18       -7.284435
   19       -7.281542
   20       -7.223409
   21       -5.030341
   22       -4.987606
   23       -4.985641
   24       -4.938767
   25       -4.867740
   26       -4.819045
   27       -4.817300
   28       -4.768149
   29       -3.886314
   30       -3.835029
   31       -3.833356
   32       -3.780871
   33       -2.838489
   34       -2.805789
   35       -2.804424
   36       -2.769619
   37       -2.457571
   38       -1.795179
   39       -1.765705
   40       -1.762108
   41       -1.729539
   42       -1.633114
   43       -1.631228
   44       -1.302644
   45       -1.298694
   46       -1.272064
   47       -1.269302
   48       -1.242016
   49       -0.642483
   50       -0.521592
   51       -0.519941
   52       -0.401207
   53       -0.382493
   54       -0.377906
   55       -0.357985
   56       -0.183041
   57        0.408652
   58        0.549964
   59        0.551473
   60        1.409295
   61        2.770296
   62        3.273738
   63        3.276233
   64        3.744623
   65        5.714562
   66        5.927696
   67        5.931449
   68        6.243335
   69        8.763780
   70        9.058171
   71        9.060375
   72        9.372847
   73       10.249229
   74       10.300813
   75       10.550892
   76       10.553251
   77       10.922142
   78       11.492662
   79       12.510806
   80       12.564058
   81       12.574542
   82       12.687881
   83       12.813644
   84       12.826218
 
  0.5000000E+00  0.1666667E+00  0.0000000E+00  0.1388889E-01
    1      -13.844204
    2      -13.714376
    3      -13.713953
    4      -13.576217
    5      -12.868504
    6      -12.746573
    7      -12.746185
    8      -12.617354
    9      -11.915718
   10      -11.801727
   11      -11.801223
   12      -11.681281
   13       -9.234046
   14       -9.148813
   15       -9.148522
   16       -9.061025
   17       -7.335728
   18       -7.278907
   19       -7.277748
   20       -7.218757
   21       -5.038473
   22       -4.995333
   23       -4.994826
   24       -4.947505
   25       -4.877097
   26       -4.828744
   27       -4.825616
   28       -4.776726
   29       -3.889997
   30       -3.839100
   31       -3.836719
   32       -3.784598
   33       -2.827466
   34       -2.795195
   35       -2.792240
   36       -2.757956
   37       -2.458863
   38       -1.793093
   39       -1.762909
   40       -1.761218
   41       -1.727765
   42       -1.634349
   43       -1.632489
   44       -1.300913
   45       -1.295201
   46       -1.268949
   47       -1.265358
   48       -1.238405
   49       -0.643757
   50       -0.519931
   51       -0.518210
   52       -0.403098
   53       -0.383669
   54       -0.381133
   55       -0.360804
   56       -0.184299
   57        0.410314
   58        0.548499
   59        0.550063
   60        1.407541
   61        2.771260
   62        3.277632
   63        3.279319
   64        3.753324
   65        5.710972
   66        5.928231
   67        5.930453
   68        6.242853
   69        8.759978
   70        9.054818
   71        9.057640
   72        9.371734
   73       10.249703
   74       10.299121
   75       10.549505
   76       10.552338
   77       10.919547
   78       11.495034
   79       12.508122
   80       12.564829
   81       12.575308
   82       12.686523
   83       12.810824
   84       12.823416
 
 -0.3333333E+00  0.1666667E+00  0.0000000E+00  0.1388889E-01
    1      -14.500692
    2      -14.365544
    3      -14.365091
    4      -14.221272
    5      -11.601195
    6      -11.595406
    7      -11.489915
    8      -11.489434
    9      -11.484045
   10      -11.483679
   11      -11.372518
   12      -11.366685
   13       -9.242080
   14       -9.185902
   15       -9.185576
   16       -9.138352
   17       -8.197386
   18       -8.169530
   19       -8.169211
   20       -8.125434
   21       -6.036885
   22       -6.031325
   23       -5.969340
   24       -5.967050
   25       -5.963590
   26       -5.961930
   27       -5.897250
   28       -5.891970
   29       -3.609832
   30       -3.565239
   31       -3.564876
   32       -3.518932
   33       -3.249136
   34       -2.402302
   35       -2.400748
   36       -1.934217
   37       -1.921333
   38       -1.904475
   39       -1.901481
   40       -1.891293
   41       -1.888898
   42       -1.871109
   43       -1.858300
   44       -1.375938
   45       -0.070030
   46       -0.054092
   47       -0.053842
   48       -0.038835
   49        0.150394
   50        0.156437
   51        0.611165
   52        0.621794
   53        0.621988
   54        0.633770
   55        0.852559
   56        0.854220
   57        0.859154
   58        0.861252
   59        1.659489
   60        1.667229
   61        2.480971
   62        2.874128
   63        2.875781
   64        3.139294
   65        6.058974
   66        6.071842
   67        6.073656
   68        6.361736
   69        7.951552
   70        7.954876
   71        8.335641
   72        8.338917
   73        8.339240
   74        8.342297
   75        8.836270
   76        8.836847
   77        9.493222
   78       12.008459
   79       12.012071
   80       12.715081
   81       12.742414
   82       12.916873
   83       12.922610
   84       12.955025
 
 -0.1666667E+00  0.1666667E+00  0.0000000E+00  0.1388889E-01
    1      -14.830748
    2      -14.692909
    3      -14.692445
    4      -14.545558
    5      -10.983331
    6      -10.877946
    7      -10.877562
    8      -10.767285
    9      -10.096838
   10      -10.094879
   11      -10.004416
   12      -10.002840
   13      -10.002802
   14      -10.000276
   15       -9.907607
   16       -9.905439
   17       -7.980646
   18       -7.978790
   19       -7.907440
   20       -7.904918
   21       -7.904892
   22       -7.903872
   23       -7.826731
   24       -7.825009
   25       -7.144729
   26       -7.069505
   27       -7.067380
   28       -6.988997
   29       -3.648794
   30       -2.790867
   31       -2.789303
   32       -2.266550
   33       -2.264465
   34       -2.234492
   35       -2.233736
   36       -2.233725
   37       -2.229885
   38       -2.201132
   39       -2.198523
   40       -1.748832
   41       -1.595237
   42       -1.570448
   43       -1.568218
   44       -1.543251
   45        0.791239
   46        0.961074
   47        0.975332
   48        0.980052
   49        0.995269
   50        1.288682
   51        1.301582
   52        1.305790
   53        1.317501
   54        1.423335
   55        1.425238
   56        1.660913
   57        1.662711
   58        2.107568
   59        2.169390
   60        2.170346
   61        2.170560
   62        2.174755
   63        2.635699
   64        2.638288
   65        6.320362
   66        6.323470
   67        6.564060
   68        6.569026
   69        6.569275
   70        6.570566
   71        7.004813
   72        7.077567
   73        7.080145
   74        7.383763
   75        7.387430
   76        7.963759
   77        9.090621
   78       11.657589
   79       11.661548
   80       11.958412
   81       12.137433
   82       12.138552
   83       12.317087
   84       12.566698
 
 -0.2710505E-19  0.3333333E+00  0.0000000E+00  0.1388889E-01
    1      -14.335499
    2      -14.201691
    3      -14.201239
    4      -14.058950
    5      -12.387286
    6      -12.269303
    7      -12.268884
    8      -12.144504
    9      -10.528317
   10      -10.524051
   11      -10.427695
   12      -10.426346
   13      -10.423105
   14      -10.421152
   15      -10.320695
   16      -10.316269
   17       -6.809252
   18       -6.800606
   19       -6.740644
   20       -6.740042
   21       -6.731033
   22       -6.730823
   23       -6.668161
   24       -6.659544
   25       -5.021707
   26       -4.958889
   27       -4.958523
   28       -4.893849
   29       -3.422925
   30       -3.409747
   31       -3.381299
   32       -3.379287
   33       -3.367637
   34       -3.366223
   35       -3.336007
   36       -3.322862
   37       -3.049907
   38       -2.208899
   39       -2.207355
   40       -1.190721
   41       -1.138417
   42       -1.113793
   43       -1.113483
   44       -1.088718
   45       -0.746922
   46       -0.682126
   47       -0.651796
   48       -0.651280
   49       -0.620875
   50        0.007140
   51        0.008699
   52        0.480821
   53        0.499843
   54        0.500151
   55        0.519132
   56        0.894598
   57        1.352507
   58        1.356603
   59        1.972185
   60        1.974714
   61        1.977768
   62        1.980720
   63        2.648444
   64        2.656036
   65        6.823888
   66        6.827276
   67        7.139091
   68        7.141068
   69        7.145243
   70        7.147355
   71        7.548077
   72        7.552257
   73        9.152299
   74        9.529712
   75        9.531750
   76        9.693875
   77       10.023567
   78       11.977133
   79       12.156566
   80       12.159692
   81       12.247847
   82       12.334926
   83       12.335702
   84       12.624480
 
  0.1666667E+00  0.3333333E+00  0.0000000E+00  0.1388889E-01
    1      -13.842992
    2      -13.713168
    3      -13.712746
    4      -13.575012
    5      -12.870154
    6      -12.748249
    7      -12.747795
    8      -12.618993
    9      -11.914544
   10      -11.800515
   11      -11.800087
   12      -11.680100
   13       -9.236814
   14       -9.151832
   15       -9.151573
   16       -9.064391
   17       -7.340641
   18       -7.284440
   19       -7.282395
   20       -7.223925
   21       -5.029890
   22       -4.986848
   23       -4.985638
   24       -4.938442
   25       -4.869098
   26       -4.820084
   27       -4.819043
   28       -4.769583
   29       -3.884950
   30       -3.833360
   31       -3.832333
   32       -3.779534
   33       -2.836856
   34       -2.804421
   35       -2.802549
   36       -2.767981
   37       -2.457608
   38       -1.793949
   39       -1.763869
   40       -1.762104
   41       -1.728783
   42       -1.633136
   43       -1.631262
   44       -1.302863
   45       -1.300179
   46       -1.272516
   47       -1.272064
   48       -1.243786
   49       -0.642525
   50       -0.521801
   51       -0.520259
   52       -0.401935
   53       -0.382496
   54       -0.380022
   55       -0.359723
   56       -0.182736
   57        0.408328
   58        0.550277
   59        0.551899
   60        1.409771
   61        2.770746
   62        3.274540
   63        3.276379
   64        3.745025
   65        5.714325
   66        5.927599
   67        5.930153
   68        6.242279
   69        8.762642
   70        9.057281
   71        9.058956
   72        9.371611
   73       10.250308
   74       10.300816
   75       10.551841
   76       10.554256
   77       10.923176
   78       11.492601
   79       12.511138
   80       12.563675
   81       12.574218
   82       12.687917
   83       12.814204
   84       12.826710
 
  0.3333333E+00  0.3333333E+00  0.0000000E+00  0.1388889E-01
    1      -13.034560
    2      -13.031886
    3      -13.029372
    4      -12.912787
    5      -12.909565
    6      -12.909536
    7      -12.907975
    8      -12.906658
    9      -12.904123
   10      -12.780528
   11      -12.777887
   12      -12.775298
   13       -8.021703
   14       -7.937384
   15       -7.935652
   16       -7.929050
   17       -7.926898
   18       -7.922669
   19       -7.920457
   20       -7.838826
   21       -5.885732
   22       -5.885410
   23       -5.881485
   24       -5.880626
   25       -3.125244
   26       -3.121810
   27       -3.120110
   28       -3.100256
   29       -3.095680
   30       -3.095655
   31       -3.095069
   32       -3.094753
   33       -3.089930
   34       -3.071737
   35       -3.069630
   36       -3.065916
   37       -1.764442
   38       -1.760329
   39       -1.757896
   40       -1.747248
   41       -1.744046
   42       -1.742299
   43       -1.741522
   44       -1.741511
   45       -1.736544
   46       -1.723535
   47       -1.722042
   48       -1.717156
   49       -1.492385
   50       -1.490180
   51       -1.487628
   52       -0.704060
   53       -0.700662
   54       -0.700477
   55       -0.699220
   56       -0.697968
   57       -0.694963
   58        0.240704
   59        0.243088
   60        0.245825
   61        4.015449
   62        4.607403
   63        4.615760
   64        4.622420
   65        4.625249
   66        4.643703
   67        4.644976
   68        5.322489
   69       10.770918
   70       10.774109
   71       10.778282
   72       10.995936
   73       11.001056
   74       11.001286
   75       11.002170
   76       11.002981
   77       11.005373
   78       11.234382
   79       11.240010
   80       11.242521
   81       11.304938
   82       11.307076
   83       11.313472
   84       13.542997
 
  0.5000000E+00  0.3333333E+00  0.0000000E+00  0.1388889E-01
    1      -13.844902
    2      -13.715087
    3      -13.714637
    4      -13.576912
    5      -12.872042
    6      -12.750167
    7      -12.749651
    8      -12.620878
    9      -11.910713
   10      -11.796655
   11      -11.796291
   12      -11.676277
   13       -9.226686
   14       -9.141591
   15       -9.141109
   16       -9.053809
   17       -7.343993
   18       -7.287458
   19       -7.286879
   20       -7.228169
   21       -5.036690
   22       -4.993954
   23       -4.992856
   24       -4.945952
   25       -4.875538
   26       -4.827330
   27       -4.824874
   28       -4.776261
   29       -3.896760
   30       -3.845923
   31       -3.842953
   32       -3.790864
   33       -2.832875
   34       -2.801255
   35       -2.797697
   36       -2.763913
   37       -2.459690
   38       -1.802076
   39       -1.771758
   40       -1.769497
   41       -1.736114
   42       -1.635317
   43       -1.633481
   44       -1.304901
   45       -1.285035
   46       -1.258389
   47       -1.255378
   48       -1.228236
   49       -0.644648
   50       -0.523938
   51       -0.522395
   52       -0.393221
   53       -0.373394
   54       -0.371408
   55       -0.350799
   56       -0.179003
   57        0.405970
   58        0.553839
   59        0.555684
   60        1.413346
   61        2.776686
   62        3.282391
   63        3.284336
   64        3.756012
   65        5.715330
   66        5.924215
   67        5.926201
   68        6.231485
   69        8.764594
   70        9.054808
   71        9.057561
   72        9.365416
   73       10.243622
   74       10.298098
   75       10.545623
   76       10.548721
   77       10.919999
   78       11.490404
   79       12.504268
   80       12.558861
   81       12.569484
   82       12.693256
   83       12.815765
   84       12.828382
 
 -0.3333333E+00  0.3333333E+00  0.0000000E+00  0.1388889E-01
    1      -14.336453
    2      -14.202645
    3      -14.202176
    4      -14.059896
    5      -12.391115
    6      -12.273172
    7      -12.272678
    8      -12.148338
    9      -10.520709
   10      -10.518954
   11      -10.419889
   12      -10.418383
   13      -10.418349
   14      -10.416269
   15      -10.313043
   16      -10.311205
   17       -6.807921
   18       -6.805994
   19       -6.740228
   20       -6.737415
   21       -6.737398
   22       -6.736483
   23       -6.667261
   24       -6.665444
   25       -5.031674
   26       -4.969690
   27       -4.967364
   28       -4.903509
   29       -3.421453
   30       -3.419706
   31       -3.379008
   32       -3.378883
   33       -3.378842
   34       -3.375089
   35       -3.334924
   36       -3.332751
   37       -3.050967
   38       -2.209951
   39       -2.208422
   40       -1.191799
   41       -1.122386
   42       -1.098707
   43       -1.096173
   44       -1.072414
   45       -0.750923
   46       -0.694081
   47       -0.665124
   48       -0.661025
   49       -0.631863
   50        0.002902
   51        0.004450
   52        0.492817
   53        0.510770
   54        0.514427
   55        0.532005
   56        0.889866
   57        1.358864
   58        1.360715
   59        1.979931
   60        1.981059
   61        1.981278
   62        1.985237
   63        2.657034
   64        2.659520
   65        6.825567
   66        6.828343
   67        7.137793
   68        7.142696
   69        7.142952
   70        7.144168
   71        7.543665
   72        7.546372
   73        9.145284
   74        9.522635
   75        9.525337
   76        9.692511
   77       10.018899
   78       11.980945
   79       12.155632
   80       12.158829
   81       12.275349
   82       12.364525
   83       12.366037
   84       12.650151
 
 -0.1666667E+00  0.3333333E+00  0.0000000E+00  0.1388889E-01
    1      -14.500680
    2      -14.365539
    3      -14.365071
    4      -14.221259
    5      -11.601609
    6      -11.595087
    7      -11.490782
    8      -11.489840
    9      -11.483979
   10      -11.482472
   11      -11.372851
   12      -11.366259
   13       -9.241390
   14       -9.185878
   15       -9.184102
   16       -9.137552
   17       -8.199190
   18       -8.172323
   19       -8.169533
   20       -8.126890
   21       -6.037435
   22       -6.030168
   23       -5.969350
   24       -5.968799
   25       -5.961940
   26       -5.960323
   27       -5.897710
   28       -5.890599
   29       -3.608848
   30       -3.565224
   31       -3.562781
   32       -3.517797
   33       -3.249166
   34       -2.402333
   35       -2.400788
   36       -1.935463
   37       -1.921270
   38       -1.904485
   39       -1.904133
   40       -1.890639
   41       -1.888897
   42       -1.872354
   43       -1.858010
   44       -1.375983
   45       -0.068407
   46       -0.054078
   47       -0.049699
   48       -0.035479
   49        0.150249