  72  72   0   0
  0.9154799E+01  0.1104686E-08  0.7726922E-09  0.7722111E-09  0.5000000E-15
  1.000000000000000E-004
  CAR 
 diamond                                 
      9.04474256    -16.44137624  301     -1.50013910      1.00000000
    -16.441  0.0000E+00  0.0000E+00
    -16.356  0.0000E+00  0.0000E+00
    -16.271  0.0000E+00  0.0000E+00
    -16.187  0.0000E+00  0.0000E+00
    -16.102  0.0000E+00  0.0000E+00
    -16.017  0.0000E+00  0.0000E+00
    -15.932  0.0000E+00  0.0000E+00
    -15.847  0.0000E+00  0.0000E+00
    -15.762  0.0000E+00  0.0000E+00
    -15.677  0.0000E+00  0.0000E+00
    -15.592  0.0000E+00  0.0000E+00
    -15.507  0.0000E+00  0.0000E+00
    -15.422  0.0000E+00  0.0000E+00
    -15.337  0.0000E+00  0.0000E+00
    -15.252  0.0000E+00  0.0000E+00
    -15.167  0.0000E+00  0.0000E+00
    -15.082  0.0000E+00  0.0000E+00
    -14.997  0.0000E+00  0.0000E+00
    -14.912  0.0000E+00  0.0000E+00
    -14.827  0.0000E+00  0.0000E+00
    -14.742  0.0000E+00  0.0000E+00
    -14.657  0.0000E+00  0.0000E+00
    -14.572  0.0000E+00  0.0000E+00
    -14.487  0.0000E+00  0.0000E+00
    -14.402  0.1428E-01  0.1951E-03
    -14.318  0.4651E-01  0.3058E-02
    -14.233  0.1023E+00  0.8706E-02
    -14.148  0.5956E-01  0.1868E-01
    -14.063  0.2952E+00  0.3013E-01
    -13.978  0.1883E+00  0.4212E-01
    -13.893  0.1396E+00  0.6382E-01
    -13.808  0.1258E+00  0.7685E-01
    -13.723  0.8554E-01  0.8385E-01
    -13.638  0.2695E+00  0.1010E+00
    -13.553  0.5519E+00  0.1287E+00
    -13.468  0.7333E-01  0.1593E+00
    -13.383  0.0000E+00  0.1600E+00
    -13.298  0.0000E+00  0.1600E+00
    -13.213  0.0000E+00  0.1600E+00
    -13.128  0.0000E+00  0.1600E+00
    -13.043  0.0000E+00  0.1600E+00
    -12.958  0.0000E+00  0.1600E+00
    -12.873  0.0000E+00  0.1600E+00
    -12.788  0.0000E+00  0.1600E+00
    -12.703  0.0000E+00  0.1600E+00
    -12.618  0.0000E+00  0.1600E+00
    -12.534  0.0000E+00  0.1600E+00
    -12.449  0.0000E+00  0.1600E+00
    -12.364  0.0000E+00  0.1600E+00
    -12.279  0.0000E+00  0.1600E+00
    -12.194  0.0000E+00  0.1600E+00
    -12.109  0.0000E+00  0.1600E+00
    -12.024  0.0000E+00  0.1600E+00
    -11.939  0.0000E+00  0.1600E+00
    -11.854  0.0000E+00  0.1600E+00
    -11.769  0.0000E+00  0.1600E+00
    -11.684  0.0000E+00  0.1600E+00
    -11.599  0.0000E+00  0.1600E+00
    -11.514  0.0000E+00  0.1600E+00
    -11.429  0.0000E+00  0.1600E+00
    -11.344  0.0000E+00  0.1600E+00
    -11.259  0.0000E+00  0.1600E+00
    -11.174  0.0000E+00  0.1600E+00
    -11.089  0.0000E+00  0.1600E+00
    -11.004  0.0000E+00  0.1600E+00
    -10.919  0.0000E+00  0.1600E+00
    -10.834  0.0000E+00  0.1600E+00
    -10.749  0.0000E+00  0.1600E+00
    -10.665  0.0000E+00  0.1600E+00
    -10.580  0.0000E+00  0.1600E+00
    -10.495  0.0000E+00  0.1600E+00
    -10.410  0.0000E+00  0.1600E+00
    -10.325  0.0000E+00  0.1600E+00
    -10.240  0.0000E+00  0.1600E+00
    -10.155  0.0000E+00  0.1600E+00
    -10.070  0.0000E+00  0.1600E+00
     -9.985  0.0000E+00  0.1600E+00
     -9.900  0.0000E+00  0.1600E+00
     -9.815  0.0000E+00  0.1600E+00
     -9.730  0.0000E+00  0.1600E+00
     -9.645  0.0000E+00  0.1600E+00
     -9.560  0.0000E+00  0.1600E+00
     -9.475  0.0000E+00  0.1600E+00
     -9.390  0.0000E+00  0.1600E+00
     -9.305  0.0000E+00  0.1600E+00
     -9.220  0.0000E+00  0.1600E+00
     -9.135  0.0000E+00  0.1600E+00
     -9.050  0.0000E+00  0.1600E+00
     -8.965  0.0000E+00  0.1600E+00
     -8.880  0.0000E+00  0.1600E+00
     -8.796  0.0000E+00  0.1600E+00
     -8.711  0.0000E+00  0.1600E+00
     -8.626  0.0000E+00  0.1600E+00
     -8.541  0.0000E+00  0.1600E+00
     -8.456  0.0000E+00  0.1600E+00
     -8.371  0.0000E+00  0.1600E+00
     -8.286  0.0000E+00  0.1600E+00
     -8.201  0.0000E+00  0.1600E+00
     -8.116  0.0000E+00  0.1600E+00
     -8.031  0.0000E+00  0.1600E+00
     -7.946  0.0000E+00  0.1600E+00
     -7.861  0.1605E-01  0.1605E+00
     -7.776  0.5753E-01  0.1632E+00
     -7.691  0.2080E+00  0.1745E+00
     -7.606  0.3088E+00  0.1947E+00
     -7.521  0.2561E+00  0.2195E+00
     -7.436  0.2575E+00  0.2412E+00
     -7.351  0.1638E+00  0.2597E+00
     -7.266  0.1647E+00  0.2743E+00
     -7.181  0.1108E+00  0.2860E+00
     -7.096  0.8041E-01  0.2930E+00
     -7.012  0.9756E-01  0.3001E+00
     -6.927  0.1401E+00  0.3109E+00
     -6.842  0.3517E-01  0.3197E+00
     -6.757  0.1822E-01  0.3205E+00
     -6.672  0.1279E+00  0.3265E+00
     -6.587  0.2886E+00  0.3434E+00
     -6.502  0.2029E+00  0.3644E+00
     -6.417  0.2629E+00  0.3826E+00
     -6.332  0.3052E+00  0.4102E+00
     -6.247  0.2922E+00  0.4400E+00
     -6.162  0.2536E+00  0.4729E+00
     -6.077  0.3298E+00  0.4981E+00
     -5.992  0.3020E+00  0.5224E+00
     -5.907  0.2689E+00  0.5477E+00
     -5.822  0.5982E-01  0.5586E+00
     -5.737  0.0000E+00  0.5600E+00
     -5.652  0.0000E+00  0.5600E+00
     -5.567  0.0000E+00  0.5600E+00
     -5.482  0.0000E+00  0.5600E+00
     -5.397  0.0000E+00  0.5600E+00
     -5.312  0.0000E+00  0.5600E+00
     -5.227  0.0000E+00  0.5600E+00
     -5.143  0.0000E+00  0.5600E+00
     -5.058  0.0000E+00  0.5600E+00
     -4.973  0.0000E+00  0.5600E+00
     -4.888  0.0000E+00  0.5600E+00
     -4.803  0.0000E+00  0.5600E+00
     -4.718  0.0000E+00  0.5600E+00
     -4.633  0.0000E+00  0.5600E+00
     -4.548  0.0000E+00  0.5600E+00
     -4.463  0.0000E+00  0.5600E+00
     -4.378  0.0000E+00  0.5600E+00
     -4.293  0.0000E+00  0.5600E+00
     -4.208  0.0000E+00  0.5600E+00
     -4.123  0.0000E+00  0.5600E+00
     -4.038  0.0000E+00  0.5600E+00
     -3.953  0.0000E+00  0.5600E+00
     -3.868  0.0000E+00  0.5600E+00
     -3.783  0.0000E+00  0.5600E+00
     -3.698  0.0000E+00  0.5600E+00
     -3.613  0.0000E+00  0.5600E+00
     -3.528  0.0000E+00  0.5600E+00
     -3.443  0.0000E+00  0.5600E+00
     -3.359  0.0000E+00  0.5600E+00
     -3.274  0.0000E+00  0.5600E+00
     -3.189  0.0000E+00  0.5600E+00
     -3.104  0.0000E+00  0.5600E+00
     -3.019  0.0000E+00  0.5600E+00
     -2.934  0.0000E+00  0.5600E+00
     -2.849  0.0000E+00  0.5600E+00
     -2.764  0.0000E+00  0.5600E+00
     -2.679  0.0000E+00  0.5600E+00
     -2.594  0.0000E+00  0.5600E+00
     -2.509  0.0000E+00  0.5600E+00
     -2.424  0.0000E+00  0.5600E+00
     -2.339  0.0000E+00  0.5600E+00
     -2.254  0.4716E-03  0.5600E+00
     -2.169  0.1121E-01  0.5604E+00
     -2.084  0.2616E-01  0.5620E+00
     -1.999  0.5384E-01  0.5651E+00
     -1.914  0.1035E+00  0.5720E+00
     -1.829  0.9722E-01  0.5808E+00
     -1.744  0.7357E-01  0.5878E+00
     -1.659  0.7022E-01  0.5939E+00
     -1.574  0.4439E-01  0.5989E+00
     -1.490  0.0000E+00  0.6000E+00
     -1.405  0.5516E-01  0.6028E+00
     -1.320  0.5635E-01  0.6076E+00
     -1.235  0.5637E-01  0.6123E+00
     -1.150  0.5640E-01  0.6171E+00
     -1.065  0.9219E-01  0.6231E+00
     -0.980  0.1027E+00  0.6317E+00
     -0.895  0.3132E-01  0.6399E+00
     -0.810  0.0000E+00  0.6400E+00
     -0.725  0.0000E+00  0.6400E+00
     -0.640  0.0000E+00  0.6400E+00
     -0.555  0.0000E+00  0.6400E+00
     -0.470  0.0000E+00  0.6400E+00
     -0.385  0.0000E+00  0.6400E+00
     -0.300  0.0000E+00  0.6400E+00
     -0.215  0.0000E+00  0.6400E+00
     -0.130  0.0000E+00  0.6400E+00
     -0.045  0.0000E+00  0.6400E+00
      0.040  0.0000E+00  0.6400E+00
      0.125  0.0000E+00  0.6400E+00
      0.210  0.0000E+00  0.6400E+00
      0.295  0.0000E+00  0.6400E+00
      0.379  0.0000E+00  0.6400E+00
      0.464  0.0000E+00  0.6400E+00
      0.549  0.0000E+00  0.6400E+00
      0.634  0.0000E+00  0.6400E+00
      0.719  0.0000E+00  0.6400E+00
      0.804  0.0000E+00  0.6400E+00
      0.889  0.0000E+00  0.6400E+00
      0.974  0.0000E+00  0.6400E+00
      1.059  0.0000E+00  0.6400E+00
      1.144  0.0000E+00  0.6400E+00
      1.229  0.0000E+00  0.6400E+00
      1.314  0.0000E+00  0.6400E+00
      1.399  0.0000E+00  0.6400E+00
      1.484  0.0000E+00  0.6400E+00
      1.569  0.0000E+00  0.6400E+00
      1.654  0.0000E+00  0.6400E+00
      1.739  0.0000E+00  0.6400E+00
      1.824  0.0000E+00  0.6400E+00
      1.909  0.0000E+00  0.6400E+00
      1.994  0.0000E+00  0.6400E+00
      2.079  0.0000E+00  0.6400E+00
      2.163  0.0000E+00  0.6400E+00
      2.248  0.0000E+00  0.6400E+00
      2.333  0.2691E-03  0.6400E+00
      2.418  0.1742E-02  0.6401E+00
      2.503  0.3979E-02  0.6403E+00
      2.588  0.6505E-02  0.6408E+00
      2.673  0.7899E-02  0.6414E+00
      2.758  0.9003E-02  0.6421E+00
      2.843  0.1026E-01  0.6429E+00
      2.928  0.1170E-01  0.6439E+00
      3.013  0.1353E-01  0.6449E+00
      3.098  0.1618E-01  0.6462E+00
      3.183  0.1981E-01  0.6477E+00
      3.268  0.3035E-01  0.6498E+00
      3.353  0.4287E-01  0.6529E+00
      3.438  0.3754E-01  0.6565E+00
      3.523  0.2964E-01  0.6593E+00
      3.608  0.3666E-01  0.6620E+00
      3.693  0.6153E-01  0.6660E+00
      3.778  0.8331E-01  0.6724E+00
      3.863  0.6019E-01  0.6791E+00
      3.948  0.1167E+00  0.6835E+00
      4.032  0.1014E+00  0.6935E+00
      4.117  0.5628E-01  0.7002E+00
      4.202  0.8636E-01  0.7069E+00
      4.287  0.8429E-01  0.7136E+00
      4.372  0.3721E-01  0.7187E+00
      4.457  0.4287E-01  0.7219E+00
      4.542  0.7994E-01  0.7271E+00
      4.627  0.8521E-01  0.7342E+00
      4.712  0.1015E+00  0.7423E+00
      4.797  0.9530E-01  0.7508E+00
      4.882  0.9514E-01  0.7587E+00
      4.967  0.9364E-01  0.7673E+00
      5.052  0.1086E+00  0.7762E+00
      5.137  0.1821E+00  0.7879E+00
      5.222  0.5320E-01  0.7995E+00
      5.307  0.1227E+00  0.8033E+00
      5.392  0.1716E+00  0.8151E+00
      5.477  0.1326E+00  0.8285E+00
      5.562  0.7492E-01  0.8374E+00
      5.647  0.1087E+00  0.8438E+00
      5.732  0.1568E+00  0.8553E+00
      5.817  0.9412E-01  0.8653E+00
      5.901  0.1193E+00  0.8738E+00
      5.986  0.1517E+00  0.8855E+00
      6.071  0.1410E+00  0.8977E+00
      6.156  0.1021E+00  0.9068E+00
      6.241  0.1007E+00  0.9153E+00
      6.326  0.1433E+00  0.9240E+00
      6.411  0.1516E+00  0.9380E+00
      6.496  0.8957E-01  0.9481E+00
      6.581  0.9842E-01  0.9559E+00
      6.666  0.9996E-01  0.9652E+00
      6.751  0.7310E-01  0.9728E+00
      6.836  0.4094E-01  0.9777E+00
      6.921  0.6473E-02  0.9798E+00
      7.006  0.5536E-03  0.9800E+00
      7.091  0.0000E+00  0.9800E+00
      7.176  0.0000E+00  0.9800E+00
      7.261  0.0000E+00  0.9800E+00
      7.346  0.0000E+00  0.9800E+00
      7.431  0.0000E+00  0.9800E+00
      7.516  0.0000E+00  0.9800E+00
      7.601  0.0000E+00  0.9800E+00
      7.685  0.0000E+00  0.9800E+00
      7.770  0.0000E+00  0.9800E+00
      7.855  0.0000E+00  0.9800E+00
      7.940  0.0000E+00  0.9800E+00
      8.025  0.0000E+00  0.9800E+00
      8.110  0.0000E+00  0.9800E+00
      8.195  0.0000E+00  0.9800E+00
      8.280  0.0000E+00  0.9800E+00
      8.365  0.0000E+00  0.9800E+00
      8.450  0.0000E+00  0.9800E+00
      8.535  0.0000E+00  0.9800E+00
      8.620  0.0000E+00  0.9800E+00
      8.705  0.0000E+00  0.9800E+00
      8.790  0.0000E+00  0.9800E+00
      8.875  0.0000E+00  0.9800E+00
      8.960  0.0000E+00  0.9800E+00
      9.045  0.0000E+00  0.9800E+00
