   2   2   0   0
  0.5318565E+01  0.2468576E-09  0.2468576E-09  0.2468576E-09  0.5000000E-15
  1.000000000000000E-004
  CAR 
 diamond                                 
     30.52256970    -13.65737799  301     10.79346181      1.00000000
    -13.657  0.0000E+00  0.0000E+00
    -13.510  0.0000E+00  0.0000E+00
    -13.363  0.0000E+00  0.0000E+00
    -13.216  0.0000E+00  0.0000E+00
    -13.068  0.0000E+00  0.0000E+00
    -12.921  0.0000E+00  0.0000E+00
    -12.774  0.0000E+00  0.0000E+00
    -12.627  0.0000E+00  0.0000E+00
    -12.479  0.0000E+00  0.0000E+00
    -12.332  0.0000E+00  0.0000E+00
    -12.185  0.0000E+00  0.0000E+00
    -12.037  0.0000E+00  0.0000E+00
    -11.890  0.0000E+00  0.0000E+00
    -11.743  0.0000E+00  0.0000E+00
    -11.596  0.1142E-04  0.2039E-06
    -11.448  0.1606E-03  0.1075E-04
    -11.301  0.2770E-03  0.4411E-04
    -11.154  0.3271E-03  0.8880E-04
    -11.007  0.3903E-03  0.1417E-03
    -10.859  0.4416E-03  0.2032E-03
    -10.712  0.4781E-03  0.2707E-03
    -10.565  0.5244E-03  0.3445E-03
    -10.418  0.5748E-03  0.4254E-03
    -10.270  0.6099E-03  0.5128E-03
    -10.123  0.6434E-03  0.6051E-03
     -9.976  0.6725E-03  0.7021E-03
     -9.828  0.6988E-03  0.8030E-03
     -9.681  0.7308E-03  0.9083E-03
     -9.534  0.7633E-03  0.1018E-02
     -9.387  0.7941E-03  0.1133E-02
     -9.239  0.8222E-03  0.1252E-02
     -9.092  0.8536E-03  0.1375E-02
     -8.945  0.8871E-03  0.1504E-02
     -8.798  0.9134E-03  0.1636E-02
     -8.650  0.9374E-03  0.1773E-02
     -8.503  0.9618E-03  0.1912E-02
     -8.356  0.9864E-03  0.2056E-02
     -8.209  0.1011E-02  0.2203E-02
     -8.061  0.1036E-02  0.2354E-02
     -7.914  0.1062E-02  0.2508E-02
     -7.767  0.1090E-02  0.2667E-02
     -7.619  0.1118E-02  0.2829E-02
     -7.472  0.1147E-02  0.2996E-02
     -7.325  0.1177E-02  0.3167E-02
     -7.178  0.1206E-02  0.3342E-02
     -7.030  0.1236E-02  0.3522E-02
     -6.883  0.1268E-02  0.3707E-02
     -6.736  0.1301E-02  0.3896E-02
     -6.589  0.1338E-02  0.4090E-02
     -6.441  0.1381E-02  0.4290E-02
     -6.294  0.1429E-02  0.4497E-02
     -6.147  0.1495E-02  0.4712E-02
     -6.000  0.1585E-02  0.4939E-02
     -5.852  0.1685E-02  0.5179E-02
     -5.705  0.1812E-02  0.5436E-02
     -5.558  0.2019E-02  0.5721E-02
     -5.410  0.1787E-02  0.5993E-02
     -5.263  0.1743E-02  0.6252E-02
     -5.116  0.1726E-02  0.6507E-02
     -4.969  0.1721E-02  0.6762E-02
     -4.821  0.1641E-02  0.7009E-02
     -4.674  0.1577E-02  0.7246E-02
     -4.527  0.1562E-02  0.7475E-02
     -4.380  0.1544E-02  0.7706E-02
     -4.232  0.1466E-02  0.7928E-02
     -4.085  0.1392E-02  0.8138E-02
     -3.938  0.1362E-02  0.8340E-02
     -3.791  0.1356E-02  0.8540E-02
     -3.643  0.1373E-02  0.8741E-02
     -3.496  0.1374E-02  0.8944E-02
     -3.349  0.1349E-02  0.9144E-02
     -3.201  0.1326E-02  0.9341E-02
     -3.054  0.1273E-02  0.9533E-02
     -2.907  0.1197E-02  0.9715E-02
     -2.760  0.1097E-02  0.9884E-02
     -2.612  0.8668E-03  0.1003E-01
     -2.465  0.8667E-03  0.1015E-01
     -2.318  0.8749E-03  0.1028E-01
     -2.171  0.9511E-03  0.1042E-01
     -2.023  0.1042E-02  0.1056E-01
     -1.876  0.1199E-02  0.1073E-01
     -1.729  0.1340E-02  0.1091E-01
     -1.582  0.1598E-02  0.1113E-01
     -1.434  0.2260E-02  0.1141E-01
     -1.287  0.3150E-02  0.1181E-01
     -1.140  0.3472E-02  0.1230E-01
     -0.992  0.3474E-02  0.1282E-01
     -0.845  0.2879E-02  0.1329E-01
     -0.698  0.2430E-02  0.1368E-01
     -0.551  0.2134E-02  0.1402E-01
     -0.403  0.1912E-02  0.1431E-01
     -0.256  0.1728E-02  0.1458E-01
     -0.109  0.1614E-02  0.1483E-01
      0.038  0.1511E-02  0.1505E-01
      0.186  0.1427E-02  0.1527E-01
      0.333  0.1370E-02  0.1548E-01
      0.480  0.1334E-02  0.1568E-01
      0.627  0.1300E-02  0.1587E-01
      0.775  0.1251E-02  0.1606E-01
      0.922  0.1236E-02  0.1624E-01
      1.069  0.1394E-02  0.1643E-01
      1.217  0.1648E-02  0.1665E-01
      1.364  0.1986E-02  0.1692E-01
      1.511  0.2428E-02  0.1725E-01
      1.658  0.2727E-02  0.1763E-01
      1.806  0.2785E-02  0.1804E-01
      1.953  0.2562E-02  0.1842E-01
      2.100  0.2558E-02  0.1880E-01
      2.247  0.2572E-02  0.1918E-01
      2.395  0.2586E-02  0.1956E-01
      2.542  0.2536E-02  0.1993E-01
      2.689  0.2515E-02  0.2031E-01
      2.836  0.2535E-02  0.2068E-01
      2.984  0.2580E-02  0.2105E-01
      3.131  0.2627E-02  0.2144E-01
      3.278  0.2818E-02  0.2184E-01
      3.426  0.2925E-02  0.2226E-01
      3.573  0.3087E-02  0.2271E-01
      3.720  0.3199E-02  0.2317E-01
      3.867  0.3398E-02  0.2366E-01
      4.015  0.3698E-02  0.2418E-01
      4.162  0.3926E-02  0.2474E-01
      4.309  0.3894E-02  0.2532E-01
      4.456  0.3763E-02  0.2589E-01
      4.604  0.3721E-02  0.2644E-01
      4.751  0.3699E-02  0.2698E-01
      4.898  0.3683E-02  0.2753E-01
      5.045  0.3652E-02  0.2807E-01
      5.193  0.3627E-02  0.2860E-01
      5.340  0.3591E-02  0.2914E-01
      5.487  0.3545E-02  0.2966E-01
      5.635  0.3515E-02  0.3018E-01
      5.782  0.3501E-02  0.3070E-01
      5.929  0.3469E-02  0.3121E-01
      6.076  0.3424E-02  0.3172E-01
      6.224  0.3368E-02  0.3222E-01
      6.371  0.3331E-02  0.3271E-01
      6.518  0.3307E-02  0.3320E-01
      6.665  0.3280E-02  0.3368E-01
      6.813  0.3244E-02  0.3417E-01
      6.960  0.3211E-02  0.3464E-01
      7.107  0.3194E-02  0.3511E-01
      7.254  0.3149E-02  0.3558E-01
      7.402  0.3084E-02  0.3604E-01
      7.549  0.2937E-02  0.3649E-01
      7.696  0.2604E-02  0.3690E-01
      7.844  0.2226E-02  0.3725E-01
      7.991  0.1979E-02  0.3756E-01
      8.138  0.1797E-02  0.3784E-01
      8.285  0.1640E-02  0.3809E-01
      8.433  0.1537E-02  0.3832E-01
      8.580  0.1430E-02  0.3854E-01
      8.727  0.1308E-02  0.3874E-01
      8.874  0.1173E-02  0.3893E-01
      9.022  0.1073E-02  0.3909E-01
      9.169  0.9744E-03  0.3924E-01
      9.316  0.8775E-03  0.3938E-01
      9.463  0.7827E-03  0.3950E-01
      9.611  0.6988E-03  0.3961E-01
      9.758  0.6333E-03  0.3971E-01
      9.905  0.5409E-03  0.3979E-01
     10.053  0.4811E-03  0.3987E-01
     10.200  0.3664E-03  0.3993E-01
     10.347  0.2305E-03  0.3998E-01
     10.494  0.6823E-04  0.4000E-01
     10.642  0.6762E-05  0.4000E-01
     10.789  0.0000E+00  0.4000E-01
     10.936  0.0000E+00  0.4000E-01
     11.083  0.0000E+00  0.4000E-01
     11.231  0.0000E+00  0.4000E-01
     11.378  0.0000E+00  0.4000E-01
     11.525  0.0000E+00  0.4000E-01
     11.672  0.0000E+00  0.4000E-01
     11.820  0.0000E+00  0.4000E-01
     11.967  0.0000E+00  0.4000E-01
     12.114  0.0000E+00  0.4000E-01
     12.262  0.0000E+00  0.4000E-01
     12.409  0.0000E+00  0.4000E-01
     12.556  0.0000E+00  0.4000E-01
     12.703  0.0000E+00  0.4000E-01
     12.851  0.0000E+00  0.4000E-01
     12.998  0.0000E+00  0.4000E-01
     13.145  0.0000E+00  0.4000E-01
     13.292  0.0000E+00  0.4000E-01
     13.440  0.0000E+00  0.4000E-01
     13.587  0.0000E+00  0.4000E-01
     13.734  0.0000E+00  0.4000E-01
     13.881  0.0000E+00  0.4000E-01
     14.029  0.0000E+00  0.4000E-01
     14.176  0.0000E+00  0.4000E-01
     14.323  0.0000E+00  0.4000E-01
     14.471  0.0000E+00  0.4000E-01
     14.618  0.0000E+00  0.4000E-01
     14.765  0.0000E+00  0.4000E-01
     14.912  0.0000E+00  0.4000E-01
     15.060  0.4307E-05  0.4000E-01
     15.207  0.8597E-04  0.4000E-01
     15.354  0.2875E-03  0.4003E-01
     15.501  0.5299E-03  0.4009E-01
     15.649  0.7722E-03  0.4019E-01
     15.796  0.9218E-03  0.4031E-01
     15.943  0.1066E-02  0.4046E-01
     16.090  0.1213E-02  0.4063E-01
     16.238  0.1417E-02  0.4082E-01
     16.385  0.1610E-02  0.4104E-01
     16.532  0.1844E-02  0.4130E-01
     16.680  0.2085E-02  0.4159E-01
     16.827  0.2266E-02  0.4191E-01
     16.974  0.2296E-02  0.4224E-01
     17.121  0.2417E-02  0.4259E-01
     17.269  0.2534E-02  0.4295E-01
     17.416  0.2631E-02  0.4333E-01
     17.563  0.2744E-02  0.4373E-01
     17.710  0.2845E-02  0.4414E-01
     17.858  0.2971E-02  0.4457E-01
     18.005  0.3117E-02  0.4502E-01
     18.152  0.3303E-02  0.4549E-01
     18.299  0.3543E-02  0.4599E-01
     18.447  0.3891E-02  0.4654E-01
     18.594  0.4489E-02  0.4715E-01
     18.741  0.5093E-02  0.4786E-01
     18.889  0.5618E-02  0.4865E-01
     19.036  0.5939E-02  0.4951E-01
     19.183  0.5386E-02  0.5037E-01
     19.330  0.3871E-02  0.5105E-01
     19.478  0.2698E-02  0.5152E-01
     19.625  0.2518E-02  0.5190E-01
     19.772  0.2957E-02  0.5230E-01
     19.919  0.3290E-02  0.5276E-01
     20.067  0.3846E-02  0.5329E-01
     20.214  0.3982E-02  0.5388E-01
     20.361  0.4079E-02  0.5447E-01
     20.508  0.4231E-02  0.5508E-01
     20.656  0.4500E-02  0.5572E-01
     20.803  0.4855E-02  0.5641E-01
     20.950  0.4949E-02  0.5714E-01
     21.098  0.4804E-02  0.5786E-01
     21.245  0.4566E-02  0.5855E-01
     21.392  0.4453E-02  0.5921E-01
     21.539  0.4133E-02  0.5984E-01
     21.687  0.3734E-02  0.6042E-01
     21.834  0.3430E-02  0.6095E-01
     21.981  0.3396E-02  0.6145E-01
     22.128  0.2738E-02  0.6189E-01
     22.276  0.2451E-02  0.6227E-01
     22.423  0.2220E-02  0.6261E-01
     22.570  0.2056E-02  0.6293E-01
     22.717  0.1941E-02  0.6322E-01
     22.865  0.1852E-02  0.6350E-01
     23.012  0.1870E-02  0.6377E-01
     23.159  0.1967E-02  0.6405E-01
     23.307  0.2094E-02  0.6435E-01
     23.454  0.2229E-02  0.6467E-01
     23.601  0.2515E-02  0.6501E-01
     23.748  0.2763E-02  0.6541E-01
     23.896  0.3563E-02  0.6584E-01
     24.043  0.4060E-02  0.6641E-01
     24.190  0.4229E-02  0.6702E-01
     24.337  0.4132E-02  0.6764E-01
     24.485  0.4018E-02  0.6824E-01
     24.632  0.4078E-02  0.6884E-01
     24.779  0.4156E-02  0.6945E-01
     24.926  0.4286E-02  0.7007E-01
     25.074  0.4058E-02  0.7069E-01
     25.221  0.3737E-02  0.7125E-01
     25.368  0.4026E-02  0.7182E-01
     25.516  0.4644E-02  0.7246E-01
     25.663  0.5571E-02  0.7324E-01
     25.810  0.4941E-02  0.7400E-01
     25.957  0.5120E-02  0.7473E-01
     26.105  0.5063E-02  0.7549E-01
     26.252  0.4902E-02  0.7622E-01
     26.399  0.4383E-02  0.7692E-01
     26.546  0.3472E-02  0.7750E-01
     26.694  0.3070E-02  0.7797E-01
     26.841  0.2962E-02  0.7841E-01
     26.988  0.2378E-02  0.7886E-01
     27.135  0.1291E-02  0.7907E-01
     27.283  0.1177E-02  0.7925E-01
     27.430  0.1074E-02  0.7942E-01
     27.577  0.9511E-03  0.7957E-01
     27.725  0.8540E-03  0.7970E-01
     27.872  0.7481E-03  0.7982E-01
     28.019  0.5156E-03  0.7992E-01
     28.166  0.2522E-03  0.7997E-01
     28.314  0.8393E-04  0.7999E-01
     28.461  0.5969E-05  0.8000E-01
     28.608  0.0000E+00  0.8000E-01
     28.755  0.0000E+00  0.8000E-01
     28.903  0.0000E+00  0.8000E-01
     29.050  0.0000E+00  0.8000E-01
     29.197  0.0000E+00  0.8000E-01
     29.344  0.0000E+00  0.8000E-01
     29.492  0.0000E+00  0.8000E-01
     29.639  0.0000E+00  0.8000E-01
     29.786  0.0000E+00  0.8000E-01
     29.934  0.0000E+00  0.8000E-01
     30.081  0.0000E+00  0.8000E-01
     30.228  0.0000E+00  0.8000E-01
     30.375  0.0000E+00  0.8000E-01
     30.523  0.0000E+00  0.8000E-01
