  80  80   0   0
  0.8239319E+01  0.1104686E-08  0.7726922E-09  0.7722111E-09  0.5000000E-15
  1.000000000000000E-004
  CAR 
 diamond                                 
      9.69169877    -16.50680024  301     -5.48159857      1.00000000
    -16.507  0.0000E+00  0.0000E+00
    -16.419  0.0000E+00  0.0000E+00
    -16.332  0.0000E+00  0.0000E+00
    -16.245  0.0000E+00  0.0000E+00
    -16.157  0.0000E+00  0.0000E+00
    -16.070  0.0000E+00  0.0000E+00
    -15.983  0.0000E+00  0.0000E+00
    -15.896  0.0000E+00  0.0000E+00
    -15.808  0.0000E+00  0.0000E+00
    -15.721  0.0000E+00  0.0000E+00
    -15.634  0.0000E+00  0.0000E+00
    -15.546  0.0000E+00  0.0000E+00
    -15.459  0.0000E+00  0.0000E+00
    -15.372  0.0000E+00  0.0000E+00
    -15.284  0.0000E+00  0.0000E+00
    -15.197  0.0000E+00  0.0000E+00
    -15.110  0.0000E+00  0.0000E+00
    -15.022  0.0000E+00  0.0000E+00
    -14.935  0.0000E+00  0.0000E+00
    -14.848  0.0000E+00  0.0000E+00
    -14.760  0.0000E+00  0.0000E+00
    -14.673  0.0000E+00  0.0000E+00
    -14.586  0.0000E+00  0.0000E+00
    -14.498  0.5973E-03  0.1703E-05
    -14.411  0.3376E-01  0.1594E-02
    -14.324  0.5570E-01  0.5374E-02
    -14.236  0.1174E+00  0.1271E-01
    -14.149  0.7104E-01  0.2014E-01
    -14.062  0.1898E+00  0.3260E-01
    -13.974  0.1932E+00  0.4257E-01
    -13.887  0.2254E+00  0.6800E-01
    -13.800  0.3117E+00  0.9781E-01
    -13.712  0.6019E+00  0.1275E+00
    -13.625  0.0000E+00  0.1600E+00
    -13.538  0.0000E+00  0.1600E+00
    -13.450  0.0000E+00  0.1600E+00
    -13.363  0.0000E+00  0.1600E+00
    -13.276  0.0000E+00  0.1600E+00
    -13.188  0.0000E+00  0.1600E+00
    -13.101  0.0000E+00  0.1600E+00
    -13.014  0.0000E+00  0.1600E+00
    -12.926  0.0000E+00  0.1600E+00
    -12.839  0.0000E+00  0.1600E+00
    -12.752  0.0000E+00  0.1600E+00
    -12.664  0.0000E+00  0.1600E+00
    -12.577  0.0000E+00  0.1600E+00
    -12.490  0.0000E+00  0.1600E+00
    -12.402  0.0000E+00  0.1600E+00
    -12.315  0.0000E+00  0.1600E+00
    -12.228  0.0000E+00  0.1600E+00
    -12.140  0.0000E+00  0.1600E+00
    -12.053  0.0000E+00  0.1600E+00
    -11.966  0.0000E+00  0.1600E+00
    -11.878  0.0000E+00  0.1600E+00
    -11.791  0.0000E+00  0.1600E+00
    -11.704  0.0000E+00  0.1600E+00
    -11.616  0.0000E+00  0.1600E+00
    -11.529  0.0000E+00  0.1600E+00
    -11.442  0.0000E+00  0.1600E+00
    -11.354  0.0000E+00  0.1600E+00
    -11.267  0.0000E+00  0.1600E+00
    -11.180  0.0000E+00  0.1600E+00
    -11.092  0.0000E+00  0.1600E+00
    -11.005  0.0000E+00  0.1600E+00
    -10.918  0.0000E+00  0.1600E+00
    -10.830  0.0000E+00  0.1600E+00
    -10.743  0.0000E+00  0.1600E+00
    -10.656  0.0000E+00  0.1600E+00
    -10.568  0.0000E+00  0.1600E+00
    -10.481  0.0000E+00  0.1600E+00
    -10.394  0.0000E+00  0.1600E+00
    -10.306  0.0000E+00  0.1600E+00
    -10.219  0.0000E+00  0.1600E+00
    -10.132  0.0000E+00  0.1600E+00
    -10.045  0.0000E+00  0.1600E+00
     -9.957  0.0000E+00  0.1600E+00
     -9.870  0.0000E+00  0.1600E+00
     -9.783  0.0000E+00  0.1600E+00
     -9.695  0.0000E+00  0.1600E+00
     -9.608  0.0000E+00  0.1600E+00
     -9.521  0.0000E+00  0.1600E+00
     -9.433  0.0000E+00  0.1600E+00
     -9.346  0.0000E+00  0.1600E+00
     -9.259  0.0000E+00  0.1600E+00
     -9.171  0.0000E+00  0.1600E+00
     -9.084  0.0000E+00  0.1600E+00
     -8.997  0.0000E+00  0.1600E+00
     -8.909  0.0000E+00  0.1600E+00
     -8.822  0.0000E+00  0.1600E+00
     -8.735  0.0000E+00  0.1600E+00
     -8.647  0.0000E+00  0.1600E+00
     -8.560  0.0000E+00  0.1600E+00
     -8.473  0.0000E+00  0.1600E+00
     -8.385  0.0000E+00  0.1600E+00
     -8.298  0.0000E+00  0.1600E+00
     -8.211  0.0000E+00  0.1600E+00
     -8.123  0.0000E+00  0.1600E+00
     -8.036  0.0000E+00  0.1600E+00
     -7.949  0.0000E+00  0.1600E+00
     -7.861  0.0000E+00  0.1600E+00
     -7.774  0.0000E+00  0.1600E+00
     -7.687  0.0000E+00  0.1600E+00
     -7.599  0.0000E+00  0.1600E+00
     -7.512  0.0000E+00  0.1600E+00
     -7.425  0.8016E-07  0.1600E+00
     -7.337  0.7473E-01  0.1622E+00
     -7.250  0.1436E+00  0.1731E+00
     -7.163  0.2012E+00  0.1870E+00
     -7.075  0.2498E+00  0.2072E+00
     -6.988  0.2578E+00  0.2310E+00
     -6.901  0.1905E+00  0.2510E+00
     -6.813  0.2288E+00  0.2680E+00
     -6.726  0.1434E+00  0.2849E+00
     -6.639  0.1907E+00  0.2998E+00
     -6.551  0.1085E+00  0.3113E+00
     -6.464  0.1478E+00  0.3227E+00
     -6.377  0.2266E+00  0.3384E+00
     -6.289  0.2028E+00  0.3560E+00
     -6.202  0.1916E+00  0.3734E+00
     -6.115  0.2930E+00  0.3939E+00
     -6.027  0.4401E+00  0.4354E+00
     -5.940  0.3286E+00  0.4724E+00
     -5.853  0.5430E+00  0.5150E+00
     -5.765  0.4820E+00  0.5633E+00
     -5.678  0.4578E+00  0.6079E+00
     -5.591  0.1786E+00  0.6354E+00
     -5.503  0.0000E+00  0.6400E+00
     -5.416  0.0000E+00  0.6400E+00
     -5.329  0.0000E+00  0.6400E+00
     -5.241  0.0000E+00  0.6400E+00
     -5.154  0.0000E+00  0.6400E+00
     -5.067  0.0000E+00  0.6400E+00
     -4.979  0.0000E+00  0.6400E+00
     -4.892  0.0000E+00  0.6400E+00
     -4.805  0.0000E+00  0.6400E+00
     -4.717  0.0000E+00  0.6400E+00
     -4.630  0.0000E+00  0.6400E+00
     -4.543  0.0000E+00  0.6400E+00
     -4.455  0.0000E+00  0.6400E+00
     -4.368  0.0000E+00  0.6400E+00
     -4.281  0.0000E+00  0.6400E+00
     -4.194  0.0000E+00  0.6400E+00
     -4.106  0.0000E+00  0.6400E+00
     -4.019  0.0000E+00  0.6400E+00
     -3.932  0.0000E+00  0.6400E+00
     -3.844  0.0000E+00  0.6400E+00
     -3.757  0.0000E+00  0.6400E+00
     -3.670  0.0000E+00  0.6400E+00
     -3.582  0.0000E+00  0.6400E+00
     -3.495  0.0000E+00  0.6400E+00
     -3.408  0.0000E+00  0.6400E+00
     -3.320  0.0000E+00  0.6400E+00
     -3.233  0.0000E+00  0.6400E+00
     -3.146  0.0000E+00  0.6400E+00
     -3.058  0.0000E+00  0.6400E+00
     -2.971  0.0000E+00  0.6400E+00
     -2.884  0.0000E+00  0.6400E+00
     -2.796  0.0000E+00  0.6400E+00
     -2.709  0.0000E+00  0.6400E+00
     -2.622  0.0000E+00  0.6400E+00
     -2.534  0.0000E+00  0.6400E+00
     -2.447  0.0000E+00  0.6400E+00
     -2.360  0.0000E+00  0.6400E+00
     -2.272  0.0000E+00  0.6400E+00
     -2.185  0.0000E+00  0.6400E+00
     -2.098  0.0000E+00  0.6400E+00
     -2.010  0.0000E+00  0.6400E+00
     -1.923  0.0000E+00  0.6400E+00
     -1.836  0.0000E+00  0.6400E+00
     -1.748  0.0000E+00  0.6400E+00
     -1.661  0.0000E+00  0.6400E+00
     -1.574  0.0000E+00  0.6400E+00
     -1.486  0.0000E+00  0.6400E+00
     -1.399  0.0000E+00  0.6400E+00
     -1.312  0.0000E+00  0.6400E+00
     -1.224  0.0000E+00  0.6400E+00
     -1.137  0.0000E+00  0.6400E+00
     -1.050  0.0000E+00  0.6400E+00
     -0.962  0.0000E+00  0.6400E+00
     -0.875  0.0000E+00  0.6400E+00
     -0.788  0.0000E+00  0.6400E+00
     -0.700  0.0000E+00  0.6400E+00
     -0.613  0.0000E+00  0.6400E+00
     -0.526  0.0000E+00  0.6400E+00
     -0.438  0.0000E+00  0.6400E+00
     -0.351  0.0000E+00  0.6400E+00
     -0.264  0.0000E+00  0.6400E+00
     -0.176  0.0000E+00  0.6400E+00
     -0.089  0.0000E+00  0.6400E+00
     -0.002  0.0000E+00  0.6400E+00
      0.086  0.0000E+00  0.6400E+00
      0.173  0.0000E+00  0.6400E+00
      0.260  0.0000E+00  0.6400E+00
      0.348  0.0000E+00  0.6400E+00
      0.435  0.0000E+00  0.6400E+00
      0.522  0.0000E+00  0.6400E+00
      0.610  0.0000E+00  0.6400E+00
      0.697  0.0000E+00  0.6400E+00
      0.784  0.0000E+00  0.6400E+00
      0.872  0.0000E+00  0.6400E+00
      0.959  0.0000E+00  0.6400E+00
      1.046  0.0000E+00  0.6400E+00
      1.134  0.0000E+00  0.6400E+00
      1.221  0.0000E+00  0.6400E+00
      1.308  0.0000E+00  0.6400E+00
      1.396  0.0000E+00  0.6400E+00
      1.483  0.0000E+00  0.6400E+00
      1.570  0.0000E+00  0.6400E+00
      1.657  0.0000E+00  0.6400E+00
      1.745  0.0000E+00  0.6400E+00
      1.832  0.0000E+00  0.6400E+00
      1.919  0.0000E+00  0.6400E+00
      2.007  0.0000E+00  0.6400E+00
      2.094  0.0000E+00  0.6400E+00
      2.181  0.0000E+00  0.6400E+00
      2.269  0.2905E-04  0.6400E+00
      2.356  0.9432E-03  0.6400E+00
      2.443  0.2942E-02  0.6402E+00
      2.531  0.5463E-02  0.6406E+00
      2.618  0.7099E-02  0.6411E+00
      2.705  0.8040E-02  0.6418E+00
      2.793  0.9116E-02  0.6425E+00
      2.880  0.1052E-01  0.6434E+00
      2.967  0.1188E-01  0.6444E+00
      3.055  0.1391E-01  0.6455E+00
      3.142  0.1681E-01  0.6468E+00
      3.229  0.2151E-01  0.6485E+00
      3.317  0.2683E-01  0.6506E+00
      3.404  0.3347E-01  0.6533E+00
      3.491  0.2985E-01  0.6561E+00
      3.579  0.2428E-01  0.6584E+00
      3.666  0.2649E-01  0.6606E+00
      3.753  0.4289E-01  0.6634E+00
      3.841  0.7038E-01  0.6683E+00
      3.928  0.8348E-01  0.6753E+00
      4.015  0.8018E-01  0.6826E+00
      4.103  0.1199E+00  0.6919E+00
      4.190  0.1158E+00  0.7018E+00
      4.277  0.9304E-01  0.7114E+00
      4.365  0.8403E-01  0.7186E+00
      4.452  0.7546E-01  0.7259E+00
      4.539  0.7582E-01  0.7324E+00
      4.627  0.7263E-01  0.7388E+00
      4.714  0.1009E+00  0.7464E+00
      4.801  0.1277E+00  0.7569E+00
      4.889  0.1586E+00  0.7690E+00
      4.976  0.1682E+00  0.7826E+00
      5.063  0.1127E+00  0.7962E+00
      5.151  0.1657E+00  0.8080E+00
      5.238  0.1247E+00  0.8206E+00
      5.325  0.9286E-01  0.8306E+00
      5.413  0.6875E-01  0.8376E+00
      5.500  0.6960E-01  0.8435E+00
      5.587  0.1161E+00  0.8525E+00
      5.675  0.1706E+00  0.8656E+00
      5.762  0.5901E-01  0.8745E+00
      5.849  0.5820E-01  0.8787E+00
      5.937  0.1540E+00  0.8881E+00
      6.024  0.1457E+00  0.9024E+00
      6.111  0.1103E+00  0.9137E+00
      6.199  0.1449E+00  0.9242E+00
      6.286  0.1113E+00  0.9359E+00
      6.373  0.7623E-01  0.9444E+00
      6.461  0.5992E-01  0.9498E+00
      6.548  0.4971E-01  0.9550E+00
      6.635  0.2406E+00  0.9659E+00
      6.723  0.1410E+00  0.9830E+00
      6.810  0.1150E+00  0.9946E+00
      6.897  0.1676E+00  0.1004E+01
      6.985  0.1218E+00  0.1018E+01
      7.072  0.1041E+00  0.1028E+01
      7.159  0.6965E-01  0.1035E+01
      7.247  0.3476E-01  0.1040E+01
      7.334  0.1114E+00  0.1046E+01
      7.421  0.6658E-01  0.1054E+01
      7.508  0.2976E-01  0.1058E+01
      7.596  0.7697E-02  0.1060E+01
      7.683  0.8539E-04  0.1060E+01
      7.770  0.0000E+00  0.1060E+01
      7.858  0.0000E+00  0.1060E+01
      7.945  0.0000E+00  0.1060E+01
      8.032  0.0000E+00  0.1060E+01
      8.120  0.0000E+00  0.1060E+01
      8.207  0.0000E+00  0.1060E+01
      8.294  0.0000E+00  0.1060E+01
      8.382  0.0000E+00  0.1060E+01
      8.469  0.0000E+00  0.1060E+01
      8.556  0.0000E+00  0.1060E+01
      8.644  0.0000E+00  0.1060E+01
      8.731  0.0000E+00  0.1060E+01
      8.818  0.0000E+00  0.1060E+01
      8.906  0.0000E+00  0.1060E+01
      8.993  0.0000E+00  0.1060E+01
      9.080  0.0000E+00  0.1060E+01
      9.168  0.0000E+00  0.1060E+01
      9.255  0.0000E+00  0.1060E+01
      9.342  0.0000E+00  0.1060E+01
      9.430  0.0000E+00  0.1060E+01
      9.517  0.0000E+00  0.1060E+01
      9.604  0.0000E+00  0.1060E+01
      9.692  0.0000E+00  0.1060E+01
