    2    2  200    1
  0.5318565E+01  0.2468576E-09  0.2468576E-09  0.2468576E-09  0.5000000E-15
  1.000000000000000E-004
  CAR 
 diamond                                 
      8    194      8
 
  0.0000000E+00  0.0000000E+00  0.0000000E+00  0.8680556E-03
    1      -11.649199
    2       10.709247
    3       10.709248
    4       10.709248
    5       16.476921
    6       16.476921
    7       16.476922
    8       25.543939
 
  0.8333333E-01  0.0000000E+00 -0.6938894E-17  0.3472222E-02
    1      -11.448413
    2        9.417061
    3       10.362723
    4       10.362724
    5       16.931031
    6       16.931032
    7       17.270876
    8       25.657530
 
  0.1666667E+00  0.0000000E+00 -0.6938894E-17  0.3472222E-02
    1      -10.848231
    2        6.766840
    3        9.615418
    4        9.615419
    5       17.908952
    6       17.908953
    7       18.522944
    8       25.975678
 
  0.2500000E+00 -0.1387779E-16 -0.2775558E-16  0.6944444E-02
    1       -9.856199
    2        3.803683
    3        8.849861
    4        8.849862
    5       18.803258
    6       18.803259
    7       19.458004
    8       26.405480
 
  0.3333333E+00  0.0000000E+00 -0.2775558E-16  0.3472222E-02
    1       -8.491057
    2        0.895947
    3        8.244471
    4        8.244472
    5       19.287532
    6       19.287534
    7       20.038055
    8       26.772453
 
  0.4166667E+00  0.0000000E+00 -0.2775558E-16  0.3472222E-02
    1       -6.816784
    2       -1.746899
    3        7.866493
    4        7.866494
    5       19.425352
    6       19.425354
    7       20.349152
    8       26.952030
 
  0.5000000E+00 -0.2775558E-16 -0.5551115E-16  0.3472222E-02
    1       -5.495629
    2       -3.397390
    3        7.738685
    4        7.738686
    5       19.437713
    6       19.437715
    7       20.447321
    8       26.991399
 
  0.8333333E-01  0.8333333E-01 -0.6938894E-17  0.1736111E-02
    1      -11.381542
    2        9.727220
    3        9.727220
    4       10.096922
    5       16.280035
    6       17.695302
    7       17.695302
    8       25.570051
 
  0.1666667E+00  0.8333333E-01 -0.1387779E-16  0.3472222E-02
    1      -10.914617
    2        7.668486
    3        8.871551
    4        9.734359
    5       16.600789
    6       18.839558
    7       18.898183
    8       25.442733
 
  0.2500000E+00  0.8333333E-01 -0.1387779E-16  0.1041667E-01
    1      -10.053290
    2        4.857818
    3        8.108886
    4        9.029391
    5       17.504375
    6       19.833075
    7       19.918484
    8       25.378307
 
  0.3333333E+00  0.8333333E-01  0.0000000E+00  0.6944444E-02
    1       -8.811661
    2        1.959888
    3        7.576801
    4        8.236723
    5       18.308563
    6       20.336202
    7       20.570769
    8       25.696208
 
  0.4166667E+00  0.8333333E-01 -0.2775558E-16  0.3472222E-02
    1       -7.230036
    2       -0.766571
    3        7.325531
    4        7.555080
    5       18.762225
    6       20.354383
    7       20.930258
    8       26.391983
 
  0.5000000E+00  0.8333333E-01 -0.5551115E-16  0.1041667E-01
    1       -5.570566
    2       -2.962152
    3        7.075818
    4        7.364143
    5       19.052055
    6       20.122883
    7       21.069058
    8       26.954305
 
 -0.4166667E+00  0.8333333E-01  0.4163336E-16  0.6944444E-02
    1       -6.074449
    2       -2.348737
    3        6.847924
    4        7.678389
    5       19.362054
    6       19.814524
    7       21.011216
    8       27.005472
 
 -0.3333333E+00  0.8333333E-01  0.4163336E-16  0.3472222E-02
    1       -7.790182
    2        0.115454
    3        6.899261
    4        8.234926
    5       19.412302
    6       19.659030
    7       20.734199
    8       26.575398
 
 -0.2500000E+00  0.8333333E-01  0.1387779E-16  0.1041667E-01
    1       -9.266588
    2        2.925683
    3        7.240296
    4        8.973310
    5       18.763104
    6       19.699099
    7       20.155865
    8       26.044563
 
 -0.1666667E+00  0.8333333E-01  0.1734723E-16  0.6944444E-02
    1      -10.383755
    2        5.829818
    3        7.860985
    4        9.771893
    5       17.841102
    6       19.098667
    7       19.313973
    8       25.787773
 
 -0.8333333E-01  0.8333333E-01  0.7152790E-17  0.1736111E-02
    1      -11.114542
    2        8.367292
    3        8.839942
    4       10.366660
    5       17.025952
    6       17.924213
    7       18.293502
    8       25.720453
 
  0.1666667E+00  0.1666667E+00  0.0000000E+00  0.1736111E-02
    1      -10.581997
    2        7.955324
    3        7.955324
    4        8.454693
    5       15.810603
    6       20.157138
    7       20.157138
    8       24.302811
 
  0.2500000E+00  0.1666667E+00  0.0000000E+00  0.1041667E-01
    1       -9.854449
    2        5.834695
    3        7.159462
    4        7.945787
    5       16.092277
    6       21.359833
    7       21.365916
    8       23.249620
 
  0.3333333E+00  0.1666667E+00 -0.2775558E-16  0.3472222E-02
    1       -8.743333
    2        3.160917
    3        6.620317
    4        7.139901
    5       16.955425
    6       22.081047
    7       22.148816
    8       23.017002
 
  0.4166667E+00  0.1666667E+00 -0.2775558E-16  0.6944444E-02
    1       -7.277590
    2        0.484814
    3        6.243294
    4        6.392622
    5       17.626555
    6       22.191450
    7       22.591289
    8       23.956601
 
  0.5000000E+00  0.1666667E+00 -0.2775558E-16  0.1041667E-01
    1       -5.583175
    2       -1.897533
    3        5.480138
    4        6.489016
    5       18.048296
    6       21.880641
    7       22.786430
    8       25.650312
 
 -0.4166667E+00  0.1666667E+00  0.4163336E-16  0.3472222E-02
    1       -5.100018
    2       -2.471333
    3        4.959800
    4        6.893788
    5       18.510009
    6       21.357713
    7       22.769576
    8       26.928268
 
 -0.3333333E+00  0.1666667E+00  0.1387779E-16  0.6944444E-02
    1       -6.730248
    2       -0.322734
    3        4.740934
    4        7.562339
    5       19.095196
    6       20.667463
    7       22.515516
    8       26.495509
 
 -0.2500000E+00  0.1666667E+00  0.6938894E-17  0.1041667E-01
    1       -8.295233
    2        2.313095
    3        4.865309
    4        8.406204
    5       19.644472
    6       19.733495
    7       21.825161
    8       25.572273
 
 -0.1666667E+00  0.1666667E+00  0.1419745E-16  0.1736111E-02
    1       -9.527549
    2        4.785789
    3        5.598720
    4        9.251100
    5       18.635296
    6       19.801290
    7       20.551144
    8       25.395614
 
  0.2500000E+00  0.2500000E+00 -0.2775558E-16  0.5208333E-02
    1       -9.262071
    2        6.115579
    3        6.311658
    4        6.311659
    5       15.315201
    6       21.370083
    7       22.890492
    8       22.890492
 
  0.3333333E+00  0.2500000E+00 -0.2775558E-16  0.1041667E-01
    1       -8.285417
    2        4.056222
    3        5.718604
    4        5.719063
    5       15.659017
    6       20.377719
    7       23.972724
    8       24.012886
 
  0.4166667E+00  0.2500000E+00 -0.2775558E-16  0.1041667E-01
    1       -6.947420
    2        1.733528
    3        4.665416
    4        5.447974
    5       16.463047
    6       20.751667
    7       24.367817
    8       24.651375
 
  0.5000000E+00  0.2500000E+00 -0.2775558E-16  0.2083333E-01
    1       -5.323410
    2       -0.555357
    3        3.624181
    4        5.519138
    5       16.983919
    6       22.622031
    7       24.141726
    8       24.929337
 
 -0.4166667E+00  0.2500000E+00  0.4163336E-16  0.1041667E-01
    1       -4.106012
    2       -1.977433
    3        2.832488
    4        5.922588
    5       17.472133
    6       23.491101
    7       24.957944
    8       25.204262
 
 -0.3333333E+00  0.2500000E+00  0.6938894E-17  0.1041667E-01
    1       -5.358765
    2       -0.419939
    3        2.392673
    4        6.615820
    5       18.147440
    6       22.497343
    7       24.788796
    8       26.517544
 
 -0.2500000E+00  0.2500000E+00  0.5335545E-18  0.1041667E-01
    1       -6.967206
    2        1.678512
    3        2.647904
    4        7.506419
    5       18.962471
    6       21.167329
    7       23.757262
    8       25.600004
 
  0.3333333E+00  0.3333333E+00 -0.8326673E-16  0.1736111E-02
    1       -7.445017
    2        3.341487
    3        5.054211
    4        5.054211
    5       15.012658
    6       18.672019
    7       25.520466
    8       25.520466
 
  0.4166667E+00  0.3333333E+00  0.0000000E+00  0.3472222E-02
    1       -6.241139
    2        1.765290
    3        4.095412
    4        4.707978
    5       15.478403
    6       18.152803
    7       26.346497
    8       26.450883
 
  0.5000000E+00  0.3333333E+00  0.0000000E+00  0.1041667E-01
    1       -4.726378
    2        0.157952
    3        2.567916
    4        4.711042
    5       16.139665
    6       19.370887
    7       26.341180
    8       26.864543
 
 -0.4166667E+00  0.3333333E+00  0.6938894E-17  0.6944444E-02
    1       -3.221416
    2       -1.234290
    3        1.230970
    4        5.061232
    5       16.603844
    6       22.004004
    7       25.617295
    8       26.948670
 
 -0.3333333E+00  0.3333333E+00  0.2861116E-16  0.1736111E-02
    1       -3.816729
    2       -0.633347
    3        0.733862
    4        5.723916
    5       17.259749
    6       24.285081
    7       24.994381
    8       26.732345
 
  0.4166667E+00  0.4166667E+00 -0.1110223E-15  0.1736111E-02
    1       -5.173482
    2        0.380218
    3        4.274594
    4        4.274594
    5       15.064313
    6       16.759668
    7       27.636853
    8       27.636853
 
  0.5000000E+00  0.4166667E+00 -0.1110223E-15  0.1041667E-01
    1       -3.784336
    2       -1.032263
    3        3.421066
    4        4.190060
    5       15.626031
    6       16.791759
    7       27.935055
    8       28.110883
 
 -0.4166667E+00  0.4166667E+00  0.2871692E-16  0.1736111E-02
    1       -2.373321
    2       -2.047477
    3        1.904566
    4        4.460605
    5       16.029816
    6       18.911911
    7       27.211257
    8       27.941785
 
  0.5000000E+00  0.5000000E+00 -0.5551115E-16  0.2604167E-02
    1       -2.522654
    2       -2.522654
    3        4.011277
    4        4.011277
    5       15.602228
    6       15.602228
    7       28.514390
    8       28.514390
 
  0.0000000E+00  0.0000000E+00  0.1250000E+00  0.1736111E-02
    1      -11.197937
    2        8.170324
    3       10.010159
    4       10.010160
    5       17.396016
    6       17.396017
    7       17.917357
    8       25.794687
 
  0.8333333E-01  0.0000000E+00  0.1250000E+00  0.3472222E-02
    1      -11.197870
    2        8.886774
    3        9.302066
    4        9.946606
    5       16.322687
    6       18.255790
    7       18.282786
    8       25.511306
 
  0.1666667E+00  0.0000000E+00  0.1250000E+00  0.3472222E-02
    1      -10.798056
    2        7.974068
    3        8.411983
    4        9.169412
    5       16.085119
    6       19.482620
    7       19.487804
    8       24.912899
 
  0.2500000E+00 -0.1387779E-16  0.1250000E+00  0.5208333E-02
    1      -10.003347
    2        5.381516
    3        7.636328
    4        8.603849
    5       16.769713
    6       20.570240
    7       20.577674
    8       24.350774
 
  0.3333333E+00  0.0000000E+00  0.1250000E+00  0.3472222E-02
    1       -8.826320
    2        2.558906
    3        7.108857
    4        7.779771
    5       17.651034
    6       21.157398
    7       21.286196
    8       24.435757
 
  0.4166667E+00  0.0000000E+00  0.1250000E+00  0.3472222E-02
    1       -7.300663
    2       -0.165088
    3        6.880672
    4        6.980052
    5       18.219515
    6       21.195664
    7       21.675830
    8       25.377835
 
  0.5000000E+00 -0.2775558E-16  0.1250000E+00  0.5208333E-02
    1       -5.602581
    2       -2.486085
    3        6.351423
    4        6.961511
    5       18.587970
    6       20.902544
    7       21.833567
    8       26.575619
 
 -0.4166667E+00  0.0000000E+00  0.1250000E+00  0.3472222E-02
    1       -5.605905
    2       -2.478258
    3        5.969694
    4        7.334933
    5       18.996209
    6       20.473911
    7       21.793045
    8       27.050285
 
 -0.3333333E+00  0.0000000E+00  0.1250000E+00  0.3472222E-02
    1       -7.303051
    2       -0.148140
    3        5.878109
    4        7.959742
    5       19.466502
    6       19.927282
    7       21.527413
    8       26.501124
 
 -0.2500000E+00  0.1387779E-16  0.1250000E+00  0.5208333E-02
    1       -8.827554
    2        2.585663
    3        6.100468
    4        8.758205
    5       19.148687
    6       19.786285
    7       20.909132
    8       25.764955
 
 -0.1666667E+00  0.0000000E+00  0.1250000E+00  0.3472222E-02
    1      -10.003935
    2        5.385515
    3        6.671952
    4        9.578342
    5       18.159491
    6       19.624660
    7       19.823927
    8       25.567227
 
 -0.8333333E-01  0.0000000E+00  0.1250000E+00  0.3472222E-02
    1      -10.798306
    2        7.214073
    3        8.274294
    4       10.119358
    5       17.380949
    6       18.521987
    7       18.850813
    8       25.746520
 
  0.8333333E-01  0.8333333E-01  0.1250000E+00  0.1736111E-02
    1      -11.331454
    2        8.990554
    3        9.718692
    4       10.457847
    5       16.859604
    6       17.391773
    7       17.696486
    8       25.692062
 
  0.1666667E+00  0.8333333E-01  0.1250000E+00  0.3472222E-02
    1      -11.064527
    2        8.110233
    3        8.970261
    4       10.154908
    5       16.818306
    6       18.258740
    7       18.455335
    8       25.648710
 
  0.2500000E+00  0.8333333E-01  0.1250000E+00  0.6944444E-02
    1      -10.400199
    2        6.292493
    3        7.455237
    4        9.716581
    5       17.443598
    6       19.449875
    7       19.495468
    8       25.457137
 
  0.3333333E+00  0.8333333E-01  0.1250000E+00  0.3472222E-02
    1       -9.347773
    2        3.478226
    3        6.785033
    4        8.940180
    5       18.404729
    6       19.958556
    7       20.565834
    8       25.490024
 
  0.4166667E+00  0.8333333E-01  0.1250000E+00  0.3472222E-02
    1       -7.930463
    2        0.667252
    3        6.426834
    4        8.143891
    5       19.125514
    6       19.960440
    7       21.242772
    8       26.085869
 
  0.5000000E+00  0.8333333E-01  0.1250000E+00  0.6944444E-02
    1       -6.236356
    2       -1.866275
    3        6.358577
    4        7.509776
    5       19.291001
    6       19.952199
    7       21.568343
    8       26.839316
 
 -0.4166667E+00  0.8333333E-01  0.1250000E+00  0.3472222E-02
    1       -5.284374
    2       -3.033509
    3        6.516039
    4        7.174670
    5       19.047325
    6       20.197444
    7       21.661224
    8       26.967771
 
 -0.3333333E+00  0.8333333E-01  0.1250000E+00  0.3472222E-02
    1       -6.815995
    2       -1.078102
    3        6.682928
    4        7.369870
    5       18.754465
    6       20.455754
    7       21.558842
    8       26.246736
 
 -0.2500000E+00  0.8333333E-01  0.1250000E+00  0.6944444E-02
    1       -8.440194
    2        1.577389
    3        6.908098
    4        8.013078
    5       18.303242
    6       20.552215
    7       21.222651
    8       25.308200
 
 -0.1666667E+00  0.8333333E-01  0.1250000E+00  0.3472222E-02
    1       -9.740448
    2        4.423010
    3        7.378587
    4        8.813647
    5       17.502165
    6       20.260400
    7       20.538228
    8       24.906904
 
 -0.8333333E-01  0.8333333E-01  0.1250000E+00  0.3472222E-02
    1      -10.665266
    2        7.184692
    3        8.110916
    4        9.520883
    5       16.608790
    6       19.446152
    7       19.466413
    8       25.139446
 
  0.1666667E+00  0.1666667E+00  0.1250000E+00  0.1736111E-02
    1      -10.931352
    2        7.242205
    3        9.291194
    4        9.908244
    5       17.251258
    6       18.292420
    7       18.533098
    8       25.809367
 
  0.3333333E+00  0.1666667E+00  0.1250000E+00  0.3472222E-02
    1       -9.478285
    2        4.506227
    3        5.868087
    4        9.079807
    5       18.341272
    6       19.977357
    7       20.815973
    8       25.123052
 
  0.4166667E+00  0.1666667E+00  0.1250000E+00  0.3472222E-02
    1       -8.183264
    2        1.769508
    3        5.407958
    4        8.228829
    5       19.304821
    6       19.906959
    7       21.844325
    8       25.497777
 
  0.5000000E+00  0.1666667E+00  0.1250000E+00  0.6944444E-02
    1       -6.568433
    2       -0.849012
    3        5.312409
    4        7.442765
    5       19.269274
    6       20.229283
    7       22.374928
    8       26.495251
 
 -0.4166667E+00  0.1666667E+00  0.1250000E+00  0.3472222E-02
    1       -5.051237
    2       -2.785896
    3        5.514466
    4        6.879490
    5       18.799698
    6       20.730086
    7       22.584320
    8       26.923971
 
 -0.3333333E+00  0.1666667E+00  0.1250000E+00  0.3472222E-02
    1       -5.987723
    2       -1.648018
    3        5.903648
    4        6.688408
    5       18.407975
    6       21.115753
    7       22.581816
    8       25.881966
 
 -0.2500000E+00  0.1666667E+00  0.1250000E+00  0.6944444E-02
    1       -7.672745
    2        0.840387
    3        6.224644
    4        7.102218
    5       17.981378
    6       21.329386
    7       22.353875
    8       24.449139
 
 -0.1666667E+00  0.1666667E+00  0.1250000E+00  0.3472222E-02
    1       -9.085364
    2        3.576087
    3        6.607240
    4        7.892365
    5       17.246195
    6       21.219843
    7       21.787529
    8       23.713983
 
 -0.8333333E-01  0.1666667E+00  0.1250000E+00  0.3472222E-02
    1      -10.135121
    2        6.267018
    3        7.246861
    4        8.640514
    5       16.360900
    6       20.601005
    7       20.776266
    8       24.024099
 
  0.3333333E+00  0.2500000E+00  0.1250000E+00  0.6944444E-02
    1       -9.215338
    2        4.532687
    3        5.826243
    4        8.027152
    5       17.066600
    6       21.203631
    7       22.129387
    8       23.305125
 
  0.4166667E+00  0.2500000E+00  0.1250000E+00  0.6944444E-02
    1       -8.050546
    2        2.910767
    3        4.398545
    4        7.232597
    5       18.116654
    6       21.064553
    7       23.186123
    8       23.579852
 
  0.5000000E+00  0.2500000E+00  0.1250000E+00  0.1041667E-01
    1       -6.546640
    2        0.421935
    3        4.108107
    4        6.373043
    5       18.968679
    6       20.780332
    7       23.935552
    8       24.713822
 
 -0.4166667E+00  0.2500000E+00  0.1250000E+00  0.6944444E-02
    1       -4.888484
    2       -1.793185
    3        4.090333
    4        5.794147
    5       19.202160
    6       20.713495
    7       24.587275
    8       26.019811
 
  0.3333333E+00  0.3333333E+00  0.1250000E+00  0.1736111E-02
    1       -8.562831
    2        3.703713
    3        6.148290
    4        6.412408
    5       16.271392
    6       21.595081
    7       23.040461
    8       23.112116
 
  0.4166667E+00  0.3333333E+00  0.1250000E+00  0.3472222E-02
    1       -7.533023
    2        2.906400
    3        4.438665
    4        5.815374
    5       16.718094
    6       20.614158
    7       23.454792
    8       24.873313
 
  0.5000000E+00  0.3333333E+00  0.1250000E+00  0.6944444E-02
    1       -6.155648
    2        1.485284
    3        3.238346
    4        4.950120
    5       17.911520
    6       20.615295
    7       23.444189
    8       26.146585
 
 -0.4166667E+00  0.3333333E+00  0.1250000E+00  0.3472222E-02
    1       -4.533996
    2       -0.521965
    3        2.690375
    4        4.453208
    5       18.612566
    6       21.866741
    7       23.561567
    8       26.484648
 
 -0.3333333E+00  0.3333333E+00  0.1250000E+00  0.3472222E-02
    1       -3.679501
    2       -1.468762
    3        2.194162
    4        4.657437
    5       19.063912
    6       22.036052
    7       25.250751
    8       25.658046
 
 -0.2500000E+00  0.3333333E+00  0.1250000E+00  0.6944444E-02
    1       -5.112140
    2        0.230436
    3        1.974142
    4        5.358561
    5       19.683226
    6       21.073150
    7       24.298530
    8       26.231797
 
 -0.1666667E+00  0.3333333E+00  0.1250000E+00  0.3472222E-02
    1       -6.664547
    2        1.463293
    3        3.085019
    4        6.310574
    5       19.424018
    6       20.489521
    7       23.611689
    8       25.048237
 
 -0.8333333E-01  0.3333333E+00  0.1250000E+00  0.3472222E-02
    1       -7.924053
    2        1.900581
    3        5.336238
    4        7.193456
    5       18.003376
    6       21.208808
    7       23.050472
    8       23.705978
 
  0.4166667E+00  0.4166667E+00  0.1250000E+00  0.1736111E-02
    1       -6.640732
    2        2.034960
    3        4.138318
    4        5.044174
    5       15.937124
    6       19.327027
    7       25.414586
    8       25.608714
 
  0.5000000E+00  0.4166667E+00  0.1250000E+00  0.6944444E-02
    1       -5.398933
    2        0.965432
    3        3.339801
    4        4.183299
    5       16.613769
    6       18.761315
    7       25.588268
    8       27.092849
 
 -0.4166667E+00  0.4166667E+00  0.1250000E+00  0.3472222E-02
    1       -3.877353
    2       -0.271600
    3        2.407466
    4        3.419839
    5       17.919833
    6       19.431654
    7       25.332595
    8       27.325345
 
 -0.3333333E+00  0.4166667E+00  0.1250000E+00  0.3472222E-02
    1       -2.576176
    2       -1.259943
    3        1.130766
    4        3.720261
    5       18.432126
    6       21.974272
    7       24.755681
    8       26.098621
 
 -0.2500000E+00  0.4166667E+00  0.1250000E+00  0.6944444E-02
    1       -3.556130
    2       -0.733315
    3        1.195756
    4        4.471015
    5       19.018501
    6       22.679828
    7       25.143144
    8       25.233252
 
 -0.1666667E+00  0.4166667E+00  0.1250000E+00  0.3472222E-02
    1       -5.026389
    2       -0.787487
    3        3.031834
    4        5.495364
    5       19.522778
    6       20.842927
    7       24.723938
    8       25.945531
 
 -0.8333333E-01  0.4166667E+00  0.1250000E+00  0.3472222E-02
    1       -6.316047
    2       -0.655697
    3        5.112598
    4        6.496096
    5       18.562881
    6       21.007240
    7       23.518035
    8       25.077578
 
  0.5000000E+00  0.5000000E+00  0.1250000E+00  0.5208333E-02
    1       -4.297701
    2       -0.307503
    3        2.890427
    4        4.410126
    5       15.836698
    6       17.950297
    7       27.244698
    8       27.593273
 
 -0.4166667E+00  0.5000000E+00  0.1250000E+00  0.6944444E-02
    1       -2.906791
    2       -1.579335
    3        2.797590
    4        3.623743
    5       16.764966
    6       17.758748
    7       27.310601
    8       27.794160
 
 -0.3333333E+00  0.5000000E+00  0.1250000E+00  0.6944444E-02
    1       -2.652169
    2       -1.412195
    3        2.202188
    4        3.157186
    5       17.970378
    6       19.133059
    7       26.236308
    8       27.028233
 
 -0.2500000E+00  0.5000000E+00  0.1250000E+00  0.1041667E-01
    1       -3.475560
    2       -0.887681
    3        1.800861
    4        3.941175
    5       18.494064
    6       21.998598
    7       24.048966
    8       26.557312
 
 -0.1666667E+00  0.5000000E+00  0.1250000E+00  0.6944444E-02
    1       -4.121426
    2       -1.876953
    3        3.247382
    4        5.080521
    5       19.137744
    6       21.297772
    7       25.191067
    8       25.903262
 
 -0.8333333E-01  0.5000000E+00  0.1250000E+00  0.6944444E-02
    1       -4.815525
    2       -2.550127
    3        4.927309
    4        6.288337
    5       18.897178
    6       20.720779
    7       23.655887
    8       26.540006
 
 -0.4166667E+00 -0.4166667E+00  0.1250000E+00  0.1736111E-02
    1       -3.005077
    2       -1.651719
    3        2.681551
    4        4.281682
    5       15.841702
    6       17.650429
    7       27.694764
    8       28.107364
 
 -0.3333333E+00 -0.4166667E+00  0.1250000E+00  0.3472222E-02
    1       -4.188388
    2       -0.264149
    3        2.978358
    4        3.798605
    5       16.673517
    6       18.133915
    7       26.554708
    8       27.697853
 
 -0.2500000E+00 -0.4166667E+00  0.1250000E+00  0.6944444E-02
    1       -5.055973
    2        0.696486
    3        2.775125
    4        4.014210
    5       17.888322
    6       19.950479
    7       24.360385
    8       27.019584
 
 -0.1666667E+00 -0.4166667E+00  0.1250000E+00  0.3472222E-02
    1       -5.576176
    2       -0.097553
    3        3.460176
    4        5.314770
    5       18.776538
    6       21.385363
    7       23.628633
    8       25.721764
 
 -0.8333333E-01 -0.4166667E+00  0.1250000E+00  0.3472222E-02
    1       -5.747405
    2       -1.412097
    3        4.735380
    4        6.664777
    5       19.223312
    6       20.384378
    7       23.518111
    8       26.264805
 
 -0.3333333E+00 -0.3333333E+00  0.1250000E+00  0.1736111E-02
    1       -5.516155
    2        0.959134
    3        3.352249
    4        4.665318
    5       15.859808
    6       18.518077
    7       26.442942
    8       26.710673
 
 -0.2500000E+00 -0.3333333E+00  0.1250000E+00  0.6944444E-02
    1       -6.518215
    2        2.022375
    3        3.847636
    4        4.852166
    5       16.628340
    6       19.594866
    7       24.529718
    8       26.099493
 
 -0.1666667E+00 -0.3333333E+00  0.1250000E+00  0.3472222E-02
    1       -7.157801
    2        2.193512
    3        3.777425
    4        6.081289
    5       17.992216
    6       21.210307
    7       22.831852
    8       24.933980
 
 -0.8333333E-01 -0.3333333E+00  0.1250000E+00  0.3472222E-02
    1       -7.420217
    2        1.045208
    3        4.742650
    4        7.398358
    5       19.162678
    6       20.262552
    7       23.078342
    8       24.908702
 
 -0.2500000E+00 -0.2500000E+00  0.1250000E+00  0.5208333E-02
    1       -7.659136
    2        2.908443
    3        5.216173
    4        5.541242
    5       16.076165
    6       20.361406
    7       24.258772
    8       24.386849
 
 -0.1666667E+00 -0.2500000E+00  0.1250000E+00  0.6944444E-02
    1       -8.434220
    2        3.715473
    3        5.096308
    4        6.928619
    5       16.870759
    6       21.664483
    7       22.541394
    8       23.525875
 
 -0.8333333E-01 -0.2500000E+00  0.1250000E+00  0.6944444E-02
    1       -8.825878
    2        3.678400
    3        5.100207
    4        8.268484
    5       18.255554
    6       20.493293
    7       22.144922
    8       24.195659
 
 -0.1666667E+00 -0.1666667E+00  0.1250000E+00  0.1736111E-02
    1       -9.345684
    2        4.516835
    3        6.853096
    4        7.575118
    5       16.509204
    6       21.800728
    7       21.809519
    8       22.992373
 
 -0.8333333E-01 -0.1666667E+00  0.1250000E+00  0.3472222E-02
    1       -9.871752
    2        5.391476
    3        6.621260
    4        8.989785
    5       17.276160
    6       20.284935
    7       20.750980
    8       24.557194
 
 -0.8333333E-01 -0.8333333E-01  0.1250000E+00  0.1736111E-02
    1      -10.532661
    2        6.297335
    3        8.467087
    4        9.412207
    5       17.027470
    6       19.382962
    7       19.454308
    8       25.384250
 
  0.1666667E+00  0.8333333E-01  0.2500000E+00  0.3472222E-02
    1      -10.317239
    2        6.538447
    3        7.163827
    4        9.307261
    5       16.856576
    6       19.939563
    7       20.111513
    8       24.811653
 
  0.3333333E+00  0.8333333E-01  0.2500000E+00  0.6944444E-02
    1       -9.002043
    2        4.749771
    3        5.579464
    4        7.309267
    5       16.408822
    6       21.880780
    7       22.373743
    8       22.882560
 
  0.4166667E+00  0.8333333E-01  0.2500000E+00  0.6944444E-02
    1       -7.776479
    2        2.494407
    3        4.819705
    4        6.510940
    5       17.362522
    6       21.620454
    7       22.732545
    8       24.042823
 
  0.5000000E+00  0.8333333E-01  0.2500000E+00  0.2083333E-01
    1       -6.223553
    2        0.018200
    3        4.437080
    4        5.834470
    5       18.055462
    6       21.806330
    7       23.599192
    8       24.694525
 
 -0.4166667E+00  0.8333333E-01  0.2500000E+00  0.1388889E-01
    1       -4.621730
    2       -2.029918
    3        4.020779
    4        5.725066
    5       18.479256
    6       21.592891
    7       24.647420
    8       25.663530
 
 -0.3333333E+00  0.8333333E-01  0.2500000E+00  0.6944444E-02
    1       -5.113064
    2       -1.427243
    3        3.655696
    4        6.166445
    5       18.979234
    6       21.075367
    7       24.512454
    8       26.338906
 
 -0.2500000E+00  0.8333333E-01  0.2500000E+00  0.2083333E-01
    1       -6.779599
    2        0.889501
    3        3.556927
    4        6.941326
    5       19.585993
    6       20.245650
    7       24.028853
    8       24.969610
 
 -0.1666667E+00  0.8333333E-01  0.2500000E+00  0.6944444E-02
    1       -8.228815
    2        3.159536
    3        4.091498
    4        7.850466
    5       18.872083
    6       20.332127
    7       22.949472
    8       24.137863
 
 -0.8333333E-01  0.8333333E-01  0.2500000E+00  0.6944444E-02
    1       -9.330697
    2        4.037441
    3        6.288380
    4        8.599303
    5       17.767507
    6       20.477723
    7       21.317474
    8       24.474624
 
  0.4166667E+00  0.3333333E+00  0.2500000E+00  0.6944444E-02
    1       -7.975332
    2        1.271974
    3        5.888541
    4        7.769594