diamond                                 
           1
    11.046858    0.000000    0.000000
     0.000000    7.726922    0.000000
     0.000000    0.000000    7.722110
   H    C 
  64  16
Direct configuration=     1
   0.07280000  0.78549999  0.18230000
   0.92720002  0.21450001  0.81770003
   0.92720002  0.71450001  0.68229997
   0.07280000  0.28549999  0.31770000
   0.92720002  0.28549999  0.31770000
   0.07280000  0.71450001  0.68229997
   0.07280000  0.21450001  0.81770003
   0.92720002  0.78549999  0.18230000
   0.57279998  0.28549999  0.18230000
   0.42719999  0.71450001  0.81770003
   0.42719999  0.21450001  0.68229997
   0.57279998  0.78549999  0.31770000
   0.42719999  0.78549999  0.31770000
   0.57279998  0.21450001  0.68229997
   0.57279998  0.71450001  0.81770003
   0.42719999  0.28549999  0.18230000
   0.80100000  0.57950002  0.93360001
   0.19900000  0.42049998  0.06639999
   0.19900000  0.92049998  0.43360001
   0.80100000  0.07950002  0.56639999
   0.19900000  0.07950002  0.56639999
   0.80100000  0.92049998  0.43360001
   0.80100000  0.42049998  0.06639999
   0.19900000  0.57950002  0.93360001
   0.30100000  0.07950002  0.93360001
   0.69900000  0.92049998  0.06639999
   0.69900000  0.42049998  0.43360001
   0.30100000  0.57950002  0.56639999
   0.69900000  0.57950002  0.56639999
   0.30100000  0.42049998  0.43360001
   0.30100000  0.92049998  0.06639999
   0.69900000  0.07950002  0.93360001
   0.69859999  0.56629997  0.07959998
   0.30140001  0.43370003  0.92040002
   0.30140001  0.93370003  0.57959998
   0.69859999  0.06629997  0.42040002
   0.30140001  0.06629997  0.42040002
   0.69859999  0.93370003  0.57959998
   0.69859999  0.43370003  0.92040002
   0.30140001  0.56629997  0.07959998
   0.19859999  0.06629997  0.07959998
   0.80140001  0.93370003  0.92040002
   0.80140001  0.43370003  0.57959998
   0.19859999  0.56629997  0.42040002
   0.80140001  0.56629997  0.42040002
   0.19859999  0.43370003  0.57959998
   0.19859999  0.93370003  0.92040002
   0.80140001  0.06629997  0.07959998
   0.00000000  0.60589999  0.19920000
   0.00000000  0.39410001  0.80079997
   0.00000000  0.89410001  0.69920003
   0.00000000  0.10589999  0.30080000
   0.50000000  0.10589999  0.19920000
   0.50000000  0.89410001  0.80079997
   0.50000000  0.39410001  0.69920003
   0.50000000  0.60589999  0.30080000
   0.00000000  0.74159998  0.78549999
   0.00000000  0.25840002  0.21450001
   0.00000000  0.75840002  0.28549999
   0.00000000  0.24159998  0.71450001
   0.50000000  0.24159998  0.78549999
   0.50000000  0.75840002  0.21450001
   0.50000000  0.25840002  0.28549999
   0.50000000  0.74159998  0.71450001
   0.00000000  0.72960001  0.23029999
   0.00000000  0.27039999  0.76969999
   0.00000000  0.77039999  0.73030001
   0.00000000  0.22960001  0.26969999
   0.50000000  0.22960001  0.23029999
   0.50000000  0.77039999  0.76969999
   0.50000000  0.27039999  0.73030001
   0.50000000  0.72960001  0.26969999
   0.74980003  0.50000000  0.00000000
   0.25019997  0.50000000  0.00000000
   0.25019997  0.00000000  0.50000000
   0.74980003  0.00000000  0.50000000
   0.24980003  0.00000000  0.00000000
   0.75019997  0.00000000  0.00000000
   0.75019997  0.50000000  0.50000000
   0.24980003  0.50000000  0.50000000
Direct configuration=     2
   0.08869723  0.79609753  0.16390792
   0.91130280  0.20390247  0.83609211
   0.91130280  0.70390247  0.66390789
   0.08869723  0.29609753  0.33609208
   0.91130280  0.29609753  0.33609208
   0.08869723  0.70390247  0.66390789
   0.08869723  0.20390247  0.83609211
   0.91130280  0.79609753  0.16390792
   0.58869720  0.29609753  0.16390792
   0.41130277  0.70390247  0.83609211
   0.41130277  0.20390247  0.66390789
   0.58869720  0.79609753  0.33609208
   0.41130277  0.79609753  0.33609208
   0.58869720  0.20390247  0.66390789
   0.58869720  0.70390247  0.83609211
   0.41130277  0.29609753  0.16390792
   0.81419585  0.59996938  0.91661570
   0.18580415  0.40003062  0.08338430
   0.18580415  0.90003062  0.41661570
   0.81419585  0.09996938  0.58338430
   0.18580415  0.09996938  0.58338430
   0.81419585  0.90003062  0.41661570
   0.81419585  0.40003062  0.08338430
   0.18580415  0.59996938  0.91661570
   0.31419585  0.09996938  0.91661570
   0.68580415  0.90003062  0.08338430
   0.68580415  0.40003062  0.41661570
   0.31419585  0.59996938  0.58338430
   0.68580415  0.59996938  0.58338430
   0.31419585  0.40003062  0.41661570
   0.31419585  0.90003062  0.08338430
   0.68580415  0.09996938  0.91661570
   0.68541828  0.58336842  0.09998707
   0.31458172  0.41663158  0.90001293
   0.31458172  0.91663158  0.59998707
   0.68541828  0.08336842  0.40001293
   0.31458172  0.08336842  0.40001293
   0.68541828  0.91663158  0.59998707
   0.68541828  0.41663158  0.90001293
   0.31458172  0.58336842  0.09998707
   0.18541828  0.08336842  0.09998707
   0.81458172  0.91663158  0.90001293
   0.81458172  0.41663158  0.59998707
   0.18541828  0.58336842  0.40001293
   0.81458172  0.58336842  0.40001293
   0.18541828  0.41663158  0.59998707
   0.18541828  0.91663158  0.90001293
   0.81458172  0.08336842  0.09998707
   0.00000000  0.58011372  0.19833289
   0.00000000  0.41988628  0.80166708
   0.00000000  0.91988628  0.69833292
   0.00000000  0.08011372  0.30166711
   0.50000000  0.08011372  0.19833289
   0.50000000  0.91988628  0.80166708
   0.50000000  0.41988628  0.69833292
   0.50000000  0.58011372  0.30166711
   0.00000000  0.21413585  0.85658650
   0.00000000  0.78586415 -0.85658650
   0.00000000  0.28586415  0.35658650
   0.00000000 -0.28586415 -0.35658650
   0.50000000 -0.28586415  0.85658650
   0.50000000  0.28586415 -0.85658650
   0.50000000  0.78586415  0.35658650
   0.50000000  0.21413585 -0.35658650
   0.00000000  0.20669677 -0.80317442
   0.00000000  0.79330323  0.80317441
   0.00000000  0.29330323 -0.30317441
   0.00000000 -0.29330323  0.30317441
   0.50000000 -0.29330323 -0.80317442
   0.50000000  0.29330323  0.80317441
   0.50000000  0.79330323 -0.30317441
   0.50000000  0.20669677  0.30317441
   0.74981633  0.50000000  0.00000000
   0.25018367  0.50000000  0.00000000
   0.25018367  0.00000000  0.50000000
   0.74981633  0.00000000  0.50000000
   0.24981633  0.00000000  0.00000000
   0.75018367  0.00000000  0.00000000
   0.75018367  0.50000000  0.50000000
   0.24981633  0.50000000  0.50000000
Direct configuration=     3
   0.08847055  0.79594641  0.16417017
   0.91152948  0.20405359  0.83582985
   0.91152948  0.70405359  0.66417015
   0.08847055  0.29594641  0.33582983
   0.91152948  0.29594641  0.33582983
   0.08847055  0.70405359  0.66417015
   0.08847055  0.20405359  0.83582985
   0.91152948  0.79594641  0.16417017
   0.58847052  0.29594641  0.16417017
   0.41152945  0.70405359  0.83582985
   0.41152945  0.20405359  0.66417015
   0.58847052  0.79594641  0.33582983
   0.41152945  0.79594641  0.33582983
   0.58847052  0.20405359  0.66417015
   0.58847052  0.70405359  0.83582985
   0.41152945  0.29594641  0.16417017
   0.81400769  0.59967750  0.91685788
   0.18599231  0.40032250  0.08314212
   0.18599231  0.90032250  0.41685788
   0.81400769  0.09967750  0.58314212
   0.18599231  0.09967750  0.58314212
   0.81400769  0.90032250  0.41685788
   0.81400769  0.40032250  0.08314212
   0.18599231  0.59967750  0.91685788
   0.31400769  0.09967750  0.91685788
   0.68599231  0.90032250  0.08314212
   0.68599231  0.40032250  0.41685788
   0.31400769  0.59967750  0.58314212
   0.68599231  0.59967750  0.58314212
   0.31400769  0.40032250  0.41685788
   0.31400769  0.90032250  0.08314212
   0.68599231  0.09967750  0.91685788
   0.68560624  0.58312504  0.09969637
   0.31439376  0.41687496  0.90030363
   0.31439376  0.91687496  0.59969637
   0.68560624  0.08312504  0.40030363
   0.31439376  0.08312504  0.40030363
   0.68560624  0.91687496  0.59969637
   0.68560624  0.41687496  0.90030363
   0.31439376  0.58312504  0.09969637
   0.18560624  0.08312504  0.09969637
   0.81439376  0.91687496  0.90030363
   0.81439376  0.41687496  0.59969637
   0.18560624  0.58312504  0.40030363
   0.81439376  0.58312504  0.40030363
   0.18560624  0.41687496  0.59969637
   0.18560624  0.91687496  0.90030363
   0.81439376  0.08312504  0.09969637
   0.00000000  0.58048141  0.19834526
   0.00000000  0.41951859  0.80165471
   0.00000000  0.91951859  0.69834529
   0.00000000  0.08048141  0.30165474
   0.50000000  0.08048141  0.19834526
   0.50000000  0.91951859  0.80165471
   0.50000000  0.41951859  0.69834529
   0.50000000  0.58048141  0.30165474
   0.00000000  0.22165700  0.84131378
   0.00000000  0.77834300 -0.84131378
   0.00000000  0.27834300  0.34131378
   0.00000000 -0.27834300 -0.34131378
   0.50000000 -0.27834300  0.84131378
   0.50000000  0.27834300 -0.84131378
   0.50000000  0.77834300  0.34131378
   0.50000000  0.22165700 -0.34131378
   0.00000000  0.21415290 -0.78843802
   0.00000000  0.78584710  0.78843801
   0.00000000  0.28584710 -0.28843801
   0.00000000 -0.28584710  0.28843801
   0.50000000 -0.28584710 -0.78843802
   0.50000000  0.28584710  0.78843801
   0.50000000  0.78584710 -0.28843801
   0.50000000  0.21415290  0.28843801
   0.74981610  0.50000000  0.00000000
   0.25018390  0.50000000  0.00000000
   0.25018390  0.00000000  0.50000000
   0.74981610  0.00000000  0.50000000
   0.24981610  0.00000000  0.00000000
   0.75018390  0.00000000  0.00000000
   0.75018390  0.50000000  0.50000000
   0.24981610  0.50000000  0.50000000
Direct configuration=     4
   0.08853982  0.79599259  0.16409003
   0.91146021  0.20400741  0.83590999
   0.91146021  0.70400741  0.66409001
   0.08853982  0.29599259  0.33590997
   0.91146021  0.29599259  0.33590997
   0.08853982  0.70400741  0.66409001
   0.08853982  0.20400741  0.83590999
   0.91146021  0.79599259  0.16409003
   0.58853979  0.29599259  0.16409003
   0.41146018  0.70400741  0.83590999
   0.41146018  0.20400741  0.66409001
   0.58853979  0.79599259  0.33590997
   0.41146018  0.79599259  0.33590997
   0.58853979  0.20400741  0.66409001
   0.58853979  0.70400741  0.83590999
   0.41146018  0.29599259  0.16409003
   0.81406519  0.59976669  0.91678387
   0.18593481  0.40023331  0.08321613
   0.18593481  0.90023331  0.41678387
   0.81406519  0.09976669  0.58321613
   0.18593481  0.09976669  0.58321613
   0.81406519  0.90023331  0.41678387
   0.81406519  0.40023331  0.08321613
   0.18593481  0.59976669  0.91678387
   0.31406519  0.09976669  0.91678387
   0.68593481  0.90023331  0.08321613
   0.68593481  0.40023331  0.41678387
   0.31406519  0.59976669  0.58321613
   0.68593481  0.59976669  0.58321613
   0.31406519  0.40023331  0.41678387
   0.31406519  0.90023331  0.08321613
   0.68593481  0.09976669  0.91678387
   0.68554880  0.58319941  0.09978520
   0.31445120  0.41680059  0.90021480
   0.31445120  0.91680059  0.59978520
   0.68554880  0.08319941  0.40021480
   0.31445120  0.08319941  0.40021480
   0.68554880  0.91680059  0.59978520
   0.68554880  0.41680059  0.90021480
   0.31445120  0.58319941  0.09978520
   0.18554880  0.08319941  0.09978520
   0.81445120  0.91680059  0.90021480
   0.81445120  0.41680059  0.59978520
   0.18554880  0.58319941  0.40021480
   0.81445120  0.58319941  0.40021480
   0.18554880  0.41680059  0.59978520
   0.18554880  0.91680059  0.90021480
   0.81445120  0.08319941  0.09978520
   0.00000000  0.58036905  0.19834148
   0.00000000  0.41963095  0.80165849
   0.00000000  0.91963095  0.69834151
   0.00000000  0.08036905  0.30165852
   0.50000000  0.08036905  0.19834148
   0.50000000  0.91963095  0.80165849
   0.50000000  0.41963095  0.69834151
   0.50000000  0.58036905  0.30165852
   0.00000000  0.21935868  0.84598083
   0.00000000  0.78064132 -0.84598083
   0.00000000  0.28064132  0.34598083
   0.00000000 -0.28064132 -0.34598083
   0.50000000 -0.28064132  0.84598083
   0.50000000  0.28064132 -0.84598083
   0.50000000  0.78064132  0.34598083
   0.50000000  0.21935868 -0.34598083
   0.00000000  0.21187445 -0.79294118
   0.00000000  0.78812555  0.79294117
   0.00000000  0.28812555 -0.29294117
   0.00000000 -0.28812555  0.29294117
   0.50000000 -0.28812555 -0.79294118
   0.50000000  0.28812555  0.79294117
   0.50000000  0.78812555 -0.29294117
   0.50000000  0.21187445  0.29294117
   0.74981617  0.50000000  0.00000000
   0.25018383  0.50000000  0.00000000
   0.25018383  0.00000000  0.50000000
   0.74981617  0.00000000  0.50000000
   0.24981617  0.00000000  0.00000000
   0.75018383  0.00000000  0.00000000
   0.75018383  0.50000000  0.50000000
   0.24981617  0.50000000  0.50000000
Direct configuration=     5
   0.08851528  0.79597624  0.16411842
   0.91148474  0.20402376  0.83588161
   0.91148474  0.70402376  0.66411839
   0.08851528  0.29597624  0.33588158
   0.91148474  0.29597624  0.33588158
   0.08851528  0.70402376  0.66411839
   0.08851528  0.20402376  0.83588161
   0.91148474  0.79597624  0.16411842
   0.58851526  0.29597624  0.16411842
   0.41148471  0.70402376  0.83588161
   0.41148471  0.20402376  0.66411839
   0.58851526  0.79597624  0.33588158
   0.41148471  0.79597624  0.33588158
   0.58851526  0.20402376  0.66411839
   0.58851526  0.70402376  0.83588161
   0.41148471  0.29597624  0.16411842
   0.81404482  0.59973510  0.91681009
   0.18595518  0.40026490  0.08318991
   0.18595518  0.90026490  0.41681009
   0.81404482  0.09973510  0.58318991
   0.18595518  0.09973510  0.58318991
   0.81404482  0.90026490  0.41681009
   0.81404482  0.40026490  0.08318991
   0.18595518  0.59973510  0.91681009
   0.31404482  0.09973510  0.91681009
   0.68595518  0.90026490  0.08318991
   0.68595518  0.40026490  0.41681009
   0.31404482  0.59973510  0.58318991
   0.68595518  0.59973510  0.58318991
   0.31404482  0.40026490  0.41681009
   0.31404482  0.90026490  0.08318991
   0.68595518  0.09973510  0.91681009
   0.68556914  0.58317307  0.09975374
   0.31443086  0.41682693  0.90024626
   0.31443086  0.91682693  0.59975374
   0.68556914  0.08317307  0.40024626
   0.31443086  0.08317307  0.40024626
   0.68556914  0.91682693  0.59975374
   0.68556914  0.41682693  0.90024626
   0.31443086  0.58317307  0.09975374
   0.18556914  0.08317307  0.09975374
   0.81443086  0.91682693  0.90024626
   0.81443086  0.41682693  0.59975374
   0.18556914  0.58317307  0.40024626
   0.81443086  0.58317307  0.40024626
   0.18556914  0.41682693  0.59975374
   0.18556914  0.91682693  0.90024626
   0.81443086  0.08317307  0.09975374
   0.00000000  0.58040885  0.19834282
   0.00000000  0.41959115  0.80165715
   0.00000000  0.91959115  0.69834285
   0.00000000  0.08040885  0.30165718
   0.50000000  0.08040885  0.19834282
   0.50000000  0.91959115  0.80165715
   0.50000000  0.41959115  0.69834285
   0.50000000  0.58040885  0.30165718
   0.00000000  0.22017275  0.84432776
   0.00000000  0.77982725 -0.84432776
   0.00000000  0.27982725  0.34432776
   0.00000000 -0.27982725 -0.34432776
   0.50000000 -0.27982725  0.84432776
   0.50000000  0.27982725 -0.84432776
   0.50000000  0.77982725  0.34432776
   0.50000000  0.22017275 -0.34432776
   0.00000000  0.21268148 -0.79134616
   0.00000000  0.78731852  0.79134614
   0.00000000  0.28731852 -0.29134614
   0.00000000 -0.28731852  0.29134614
   0.50000000 -0.28731852 -0.79134616
   0.50000000  0.28731852  0.79134614
   0.50000000  0.78731852 -0.29134614
   0.50000000  0.21268148  0.29134614
   0.74981614  0.50000000  0.00000000
   0.25018386  0.50000000  0.00000000
   0.25018386  0.00000000  0.50000000
   0.74981614  0.00000000  0.50000000
   0.24981614  0.00000000  0.00000000
   0.75018386  0.00000000  0.00000000
   0.75018386  0.50000000  0.50000000
   0.24981614  0.50000000  0.50000000
Direct configuration=     6
   0.08851190  0.79597398  0.16412233
   0.91148812  0.20402602  0.83587770
   0.91148812  0.70402602  0.66412230
   0.08851190  0.29597398  0.33587767
   0.91148812  0.29597398  0.33587767
   0.08851190  0.70402602  0.66412230
   0.08851190  0.20402602  0.83587770
   0.91148812  0.79597398  0.16412233
   0.58851188  0.29597398  0.16412233
   0.41148810  0.70402602  0.83587770
   0.41148810  0.20402602  0.66412230
   0.58851188  0.79597398  0.33587767
   0.41148810  0.79597398  0.33587767
   0.58851188  0.20402602  0.66412230
   0.58851188  0.70402602  0.83587770
   0.41148810  0.29597398  0.16412233
   0.81404202  0.59973075  0.91681370
   0.18595798  0.40026925  0.08318630
   0.18595798  0.90026925  0.41681370
   0.81404202  0.09973075  0.58318630
   0.18595798  0.09973075  0.58318630
   0.81404202  0.90026925  0.41681370
   0.81404202  0.40026925  0.08318630
   0.18595798  0.59973075  0.91681370
   0.31404202  0.09973075  0.91681370
   0.68595798  0.90026925  0.08318630
   0.68595798  0.40026925  0.41681370
   0.31404202  0.59973075  0.58318630
   0.68595798  0.59973075  0.58318630
   0.31404202  0.40026925  0.41681370
   0.31404202  0.90026925  0.08318630
   0.68595798  0.09973075  0.91681370
   0.68557195  0.58316944  0.09974940
   0.31442805  0.41683056  0.90025060
   0.31442805  0.91683056  0.59974940
   0.68557195  0.08316944  0.40025060
   0.31442805  0.08316944  0.40025060
   0.68557195  0.91683056  0.59974940
   0.68557195  0.41683056  0.90025060
   0.31442805  0.58316944  0.09974940
   0.18557195  0.08316944  0.09974940
   0.81442805  0.91683056  0.90025060
   0.81442805  0.41683056  0.59974940
   0.18557195  0.58316944  0.40025060
   0.81442805  0.58316944  0.40025060
   0.18557195  0.41683056  0.59974940
   0.18557195  0.91683056  0.90025060
   0.81442805  0.08316944  0.09974940
   0.00000000  0.58041433  0.19834300
   0.00000000  0.41958567  0.80165697
   0.00000000  0.91958567  0.69834303
   0.00000000  0.08041433  0.30165700
   0.50000000  0.08041433  0.19834300
   0.50000000  0.91958567  0.80165697
   0.50000000  0.41958567  0.69834303
   0.50000000  0.58041433  0.30165700
   0.00000000  0.22028498  0.84409987
   0.00000000  0.77971502 -0.84409987
   0.00000000  0.27971502  0.34409987
   0.00000000 -0.27971502 -0.34409987
   0.50000000 -0.27971502  0.84409987
   0.50000000  0.27971502 -0.84409987
   0.50000000  0.77971502  0.34409987
   0.50000000  0.22028498 -0.34409987
   0.00000000  0.21279273 -0.79112627
   0.00000000  0.78720727  0.79112626
   0.00000000  0.28720727 -0.29112626
   0.00000000 -0.28720727  0.29112626
   0.50000000 -0.28720727 -0.79112627
   0.50000000  0.28720727  0.79112626
   0.50000000  0.78720727 -0.29112626
   0.50000000  0.21279273  0.29112626
   0.74981614  0.50000000  0.00000000
   0.25018386  0.50000000  0.00000000
   0.25018386  0.00000000  0.50000000
   0.74981614  0.00000000  0.50000000
   0.24981614  0.00000000  0.00000000
   0.75018386  0.00000000  0.00000000
   0.75018386  0.50000000  0.50000000
   0.24981614  0.50000000  0.50000000
Direct configuration=     7
   0.08818864  0.78861846  0.17746566
   0.91181139  0.21138154  0.82253437
   0.91181139  0.71138154  0.67746563
   0.08818864  0.28861846  0.32253434
   0.91181139  0.28861846  0.32253434
   0.08818864  0.71138154  0.67746563
   0.08818864  0.21138154  0.82253437
   0.91181139  0.78861846  0.17746566
   0.58818861  0.28861846  0.17746566
   0.41181136  0.71138154  0.82253437
   0.41181136  0.21138154  0.67746563
   0.58818861  0.78861846  0.32253434
   0.41181136  0.78861846  0.32253434
   0.58818861  0.21138154  0.67746563
   0.58818861  0.71138154  0.82253437
   0.41181136  0.28861846  0.17746566
   0.80676201  0.58808201  0.92670555
   0.19323799  0.41191799  0.07329445
   0.19323799  0.91191799  0.42670555
   0.80676201  0.08808201  0.57329445
   0.19323799  0.08808201  0.57329445
   0.80676201  0.91191799  0.42670555
   0.80676201  0.41191799  0.07329445
   0.19323799  0.58808201  0.92670555
   0.30676201  0.08808201  0.92670555
   0.69323799  0.91191799  0.07329445
   0.69323799  0.41191799  0.42670555
   0.30676201  0.58808201  0.57329445
   0.69323799  0.58808201  0.57329445
   0.30676201  0.41191799  0.42670555
   0.30676201  0.91191799  0.07329445
   0.69323799  0.08808201  0.92670555
   0.69292793  0.57369045  0.08817424
   0.30707207  0.42630955  0.91182576
   0.30707207  0.92630955  0.58817424
   0.69292793  0.07369045  0.41182576
   0.30707207  0.07369045  0.41182576
   0.69292793  0.92630955  0.58817424
   0.69292793  0.42630955  0.91182576
   0.30707207  0.57369045  0.08817424
   0.19292793  0.07369045  0.08817424
   0.80707207  0.92630955  0.91182576
   0.80707207  0.42630955  0.58817424
   0.19292793  0.57369045  0.41182576
   0.80707207  0.57369045  0.41182576
   0.19292793  0.42630955  0.58817424
   0.19292793  0.92630955  0.91182576
   0.80707207  0.07369045  0.08817424
   0.00000000  0.59063253  0.20934424
   0.00000000  0.40936747  0.79065573
   0.00000000  0.90936747  0.70934427
   0.00000000  0.09063253  0.29065576
   0.50000000  0.09063253  0.20934424
   0.50000000  0.90936747  0.79065573
   0.50000000  0.40936747  0.70934427
   0.50000000  0.59063253  0.29065576
   0.00000000  0.21079253  0.86260175
   0.00000000  0.78920747 -0.86260175
   0.00000000  0.28920747  0.36260175
   0.00000000 -0.28920747 -0.36260175
   0.50000000 -0.28920747  0.86260175
   0.50000000  0.28920747 -0.86260175
   0.50000000  0.78920747  0.36260175
   0.50000000  0.21079253 -0.36260175
   0.00000000  0.20756745 -0.77052301
   0.00000000  0.79243255  0.77052300
   0.00000000  0.29243255 -0.27052300
   0.00000000 -0.29243255  0.27052300
   0.50000000 -0.29243255 -0.77052301
   0.50000000  0.29243255  0.77052300
   0.50000000  0.79243255 -0.27052300
   0.50000000  0.20756745  0.27052300
   0.74977153  0.50000000  0.00000000
   0.25022847  0.50000000  0.00000000
   0.25022847  0.00000000  0.50000000
   0.74977153  0.00000000  0.50000000
   0.24977153  0.00000000  0.00000000
   0.75022847  0.00000000  0.00000000
   0.75022847  0.50000000  0.50000000
   0.24977153  0.50000000  0.50000000
Direct configuration=     8
   0.08817546  0.78831861  0.17800959
   0.91182456  0.21168139  0.82199044
   0.91182456  0.71168139  0.67800956
   0.08817546  0.28831861  0.32199041
   0.91182456  0.28831861  0.32199041
   0.08817546  0.71168139  0.67800956
   0.08817546  0.21168139  0.82199044
   0.91182456  0.78831861  0.17800959
   0.58817544  0.28831861  0.17800959
   0.41182453  0.71168139  0.82199044
   0.41182453  0.21168139  0.67800956
   0.58817544  0.78831861  0.32199041
   0.41182453  0.78831861  0.32199041
   0.58817544  0.21168139  0.67800956
   0.58817544  0.71168139  0.82199044
   0.41182453  0.28831861  0.17800959
   0.80646525  0.58760716  0.92710879
   0.19353475  0.41239284  0.07289121
   0.19353475  0.91239284  0.42710879
   0.80646525  0.08760716  0.57289121
   0.19353475  0.08760716  0.57289121
   0.80646525  0.91239284  0.42710879
   0.80646525  0.41239284  0.07289121
   0.19353475  0.58760716  0.92710879
   0.30646525  0.08760716  0.92710879
   0.69353475  0.91239284  0.07289121
   0.69353475  0.41239284  0.42710879
   0.30646525  0.58760716  0.57289121
   0.69353475  0.58760716  0.57289121
   0.30646525  0.41239284  0.42710879
   0.30646525  0.91239284  0.07289121
   0.69353475  0.08760716  0.92710879
   0.69322779  0.57330404  0.08770238
   0.30677221  0.42669596  0.91229762
   0.30677221  0.92669596  0.58770238
   0.69322779  0.07330404  0.41229762
   0.30677221  0.07330404  0.41229762
   0.69322779  0.92669596  0.58770238
   0.69322779  0.42669596  0.91229762
   0.30677221  0.57330404  0.08770238
   0.19322779  0.07330404  0.08770238
   0.80677221  0.92669596  0.91229762
   0.80677221  0.42669596  0.58770238
   0.19322779  0.57330404  0.41229762
   0.80677221  0.57330404  0.41229762
   0.19322779  0.42669596  0.58770238
   0.19322779  0.92669596  0.91229762
   0.80677221  0.07330404  0.08770238
   0.00000000  0.59104907  0.20979270
   0.00000000  0.40895093  0.79020727
   0.00000000  0.90895093  0.70979273
   0.00000000  0.09104907  0.29020730
   0.50000000  0.09104907  0.20979270
   0.50000000  0.90895093  0.79020727
   0.50000000  0.40895093  0.70979273
   0.50000000  0.59104907  0.29020730
   0.00000000  0.21040557  0.86335597
   0.00000000  0.78959443 -0.86335597
   0.00000000  0.28959443  0.36335597
   0.00000000 -0.28959443 -0.36335597
   0.50000000 -0.28959443  0.86335597
   0.50000000  0.28959443 -0.86335597
   0.50000000  0.78959443  0.36335597
   0.50000000  0.21040557 -0.36335597
   0.00000000  0.20735444 -0.76968313
   0.00000000  0.79264556  0.76968311
   0.00000000  0.29264556 -0.26968311
   0.00000000 -0.29264556  0.26968311
   0.50000000 -0.29264556 -0.76968313
   0.50000000  0.29264556  0.76968311
   0.50000000  0.79264556 -0.26968311
   0.50000000  0.20735444  0.26968311
   0.74976971  0.50000000  0.00000000
   0.25023029  0.50000000  0.00000000
   0.25023029  0.00000000  0.50000000
   0.74976971  0.00000000  0.50000000
   0.24976971  0.00000000  0.00000000
   0.75023029  0.00000000  0.00000000
   0.75023029  0.50000000  0.50000000
   0.24976971  0.50000000  0.50000000
Direct configuration=     9
   0.08640358  0.77964746  0.19264348
   0.91359645  0.22035254  0.80735655
   0.91359645  0.72035254  0.69264345
   0.08640358  0.27964746  0.30735652
   0.91359645  0.27964746  0.30735652
   0.08640358  0.72035254  0.69264345
   0.08640358  0.22035254  0.80735655
   0.91359645  0.77964746  0.19264348
   0.58640355  0.27964746  0.19264348
   0.41359642  0.72035254  0.80735655
   0.41359642  0.22035254  0.69264345
   0.58640355  0.77964746  0.30735652
   0.41359642  0.77964746  0.30735652
   0.58640355  0.22035254  0.69264345
   0.58640355  0.72035254  0.80735655
   0.41359642  0.27964746  0.19264348
   0.80348648  0.58263412  0.93145746
   0.19651352  0.41736588  0.06854254
   0.19651352  0.91736588  0.43145746
   0.80348648  0.08263412  0.56854254
   0.19651352  0.08263412  0.56854254
   0.80348648  0.91736588  0.43145746
   0.80348648  0.41736588  0.06854254
   0.19651352  0.58263412  0.93145746
   0.30348648  0.08263412  0.93145746
   0.69651352  0.91736588  0.06854254
   0.69651352  0.41736588  0.43145746
   0.30348648  0.58263412  0.56854254
   0.69651352  0.58263412  0.56854254
   0.30348648  0.41736588  0.43145746
   0.30348648  0.91736588  0.06854254
   0.69651352  0.08263412  0.93145746
   0.69637892  0.56930263  0.08265176
   0.30362108  0.43069737  0.91734824
   0.30362108  0.93069737  0.58265176
   0.69637892  0.06930263  0.41734824
   0.30362108  0.06930263  0.41734824
   0.69637892  0.93069737  0.58265176
   0.69637892  0.43069737  0.91734824
   0.30362108  0.56930263  0.08265176
   0.19637892  0.06930263  0.08265176
   0.80362108  0.93069737  0.91734824
   0.80362108  0.43069737  0.58265176
   0.19637892  0.56930263  0.41734824
   0.80362108  0.56930263  0.41734824
   0.19637892  0.43069737  0.58265176
   0.19637892  0.93069737  0.91734824
   0.80362108  0.06930263  0.08265176
   0.00000000  0.58400477  0.20871196
   0.00000000  0.41599523  0.79128801
   0.00000000  0.91599523  0.70871199
   0.00000000  0.08400477  0.29128804
   0.50000000  0.08400477  0.20871196
   0.50000000  0.91599523  0.79128801
   0.50000000  0.41599523  0.70871199
   0.50000000  0.58400477  0.29128804
   0.00000000  0.20516203  0.87941985
   0.00000000  0.79483797 -0.87941985
   0.00000000  0.29483797  0.37941985
   0.00000000 -0.29483797 -0.37941985
   0.50000000 -0.29483797  0.87941985
   0.50000000  0.29483797 -0.87941985
   0.50000000  0.79483797  0.37941985
   0.50000000  0.20516203 -0.37941985
   0.00000000  0.22610734 -0.75612883
   0.00000000  0.77389266  0.75612882
   0.00000000  0.27389266 -0.25612882
   0.00000000 -0.27389266  0.25612882
   0.50000000 -0.27389266 -0.75612883
   0.50000000  0.27389266  0.75612882
   0.50000000  0.77389266 -0.25612882
   0.50000000  0.22610734  0.25612882
   0.74961033  0.50000000  0.00000000
   0.25038967  0.50000000  0.00000000
   0.25038967  0.00000000  0.50000000
   0.74961033  0.00000000  0.50000000
   0.24961033  0.00000000  0.00000000
   0.75038967  0.00000000  0.00000000
   0.75038967  0.50000000  0.50000000
   0.24961033  0.50000000  0.50000000
Direct configuration=    10
   0.08654101  0.78032001  0.19150846
   0.91345902  0.21967999  0.80849157
   0.91345902  0.71967999  0.69150843
   0.08654101  0.28032001  0.30849154
   0.91345902  0.28032001  0.30849154
   0.08654101  0.71967999  0.69150843
   0.08654101  0.21967999  0.80849157
   0.91345902  0.78032001  0.19150846
   0.58654098  0.28032001  0.19150846
   0.41345899  0.71967999  0.80849157
   0.41345899  0.21967999  0.69150843
   0.58654098  0.78032001  0.30849154
   0.41345899  0.78032001  0.30849154
   0.58654098  0.21967999  0.69150843
   0.58654098  0.71967999  0.80849157
   0.41345899  0.28032001  0.19150846
   0.80371752  0.58301983  0.93112017
   0.19628248  0.41698017  0.06887983
   0.19628248  0.91698017  0.43112017
   0.80371752  0.08301983  0.56887983
   0.19628248  0.08301983  0.56887983
   0.80371752  0.91698017  0.43112017
   0.80371752  0.41698017  0.06887983
   0.19628248  0.58301983  0.93112017
   0.30371752  0.08301983  0.93112017
   0.69628248  0.91698017  0.06887983
   0.69628248  0.41698017  0.43112017
   0.30371752  0.58301983  0.56887983
   0.69628248  0.58301983  0.56887983
   0.30371752  0.41698017  0.43112017
   0.30371752  0.91698017  0.06887983
   0.69628248  0.08301983  0.93112017
   0.69613452  0.56961298  0.08304350
   0.30386548  0.43038702  0.91695650
   0.30386548  0.93038702  0.58304350
   0.69613452  0.06961298  0.41695650
   0.30386548  0.06961298  0.41695650
   0.69613452  0.93038702  0.58304350
   0.69613452  0.43038702  0.91695650
   0.30386548  0.56961298  0.08304350
   0.19613452  0.06961298  0.08304350
   0.80386548  0.93038702  0.91695650
   0.80386548  0.43038702  0.58304350
   0.19613452  0.56961298  0.41695650
   0.80386548  0.56961298  0.41695650
   0.19613452  0.43038702  0.58304350
   0.19613452  0.93038702  0.91695650
   0.80386548  0.06961298  0.08304350
   0.00000000  0.58455113  0.20879579
   0.00000000  0.41544887  0.79120418
   0.00000000  0.91544887  0.70879582
   0.00000000  0.08455113  0.29120421
   0.50000000  0.08455113  0.20879579
   0.50000000  0.91544887  0.79120418
   0.50000000  0.41544887  0.70879582
   0.50000000  0.58455113  0.29120421
   0.00000000  0.20556873  0.87817392