  32  32   0   0
  0.9341735E+01  0.4932875E-09  0.4932875E-09  0.1419195E-08  0.5000000E-15
  1.000000000000000E-004
  CAR 
 graphite                                
     14.52564449    -17.38645698  301      4.20001350      1.00000000
    -17.386  0.0000E+00  0.0000E+00
    -17.280  0.0000E+00  0.0000E+00
    -17.174  0.0000E+00  0.0000E+00
    -17.067  0.0000E+00  0.0000E+00
    -16.961  0.0000E+00  0.0000E+00
    -16.855  0.0000E+00  0.0000E+00
    -16.748  0.0000E+00  0.0000E+00
    -16.642  0.0000E+00  0.0000E+00
    -16.535  0.0000E+00  0.0000E+00
    -16.429  0.0000E+00  0.0000E+00
    -16.323  0.0000E+00  0.0000E+00
    -16.216  0.0000E+00  0.0000E+00
    -16.110  0.0000E+00  0.0000E+00
    -16.004  0.0000E+00  0.0000E+00
    -15.897  0.0000E+00  0.0000E+00
    -15.791  0.0000E+00  0.0000E+00
    -15.684  0.0000E+00  0.0000E+00
    -15.578  0.0000E+00  0.0000E+00
    -15.472  0.0000E+00  0.0000E+00
    -15.365  0.1378E+00  0.1099E-02
    -15.259  0.2369E+01  0.1165E+00
    -15.153  0.4348E+01  0.4890E+00
    -15.046  0.5024E+01  0.1012E+01
    -14.940  0.4850E+01  0.1511E+01
    -14.833  0.5163E+01  0.2047E+01
    -14.727  0.5044E+01  0.2593E+01
    -14.621  0.4779E+01  0.3114E+01
    -14.514  0.4828E+01  0.3621E+01
    -14.408  0.5042E+01  0.4146E+01
    -14.302  0.5255E+01  0.4694E+01
    -14.195  0.6982E+01  0.5307E+01
    -14.089  0.8176E+01  0.6120E+01
    -13.982  0.6426E+01  0.6981E+01
    -13.876  0.2674E+01  0.7451E+01
    -13.770  0.1892E+01  0.7676E+01
    -13.663  0.2156E+01  0.7888E+01
    -13.557  0.2507E+01  0.8136E+01
    -13.451  0.2859E+01  0.8421E+01
    -13.344  0.5575E+01  0.8792E+01
    -13.238  0.1049E+02  0.9873E+01
    -13.132  0.7556E+01  0.1087E+02
    -13.025  0.3972E+01  0.1136E+02
    -12.919  0.4068E+01  0.1179E+02
    -12.812  0.4165E+01  0.1223E+02
    -12.706  0.4279E+01  0.1268E+02
    -12.600  0.4408E+01  0.1314E+02
    -12.493  0.4530E+01  0.1361E+02
    -12.387  0.4652E+01  0.1410E+02
    -12.281  0.5249E+01  0.1461E+02
    -12.174  0.6219E+01  0.1522E+02
    -12.068  0.6271E+01  0.1591E+02
    -11.961  0.5703E+01  0.1655E+02
    -11.855  0.5363E+01  0.1713E+02
    -11.749  0.5514E+01  0.1771E+02
    -11.642  0.5675E+01  0.1831E+02
    -11.536  0.5837E+01  0.1892E+02
    -11.430  0.5999E+01  0.1955E+02
    -11.323  0.5674E+01  0.2018E+02
    -11.217  0.5280E+01  0.2076E+02
    -11.110  0.5328E+01  0.2132E+02
    -11.004  0.4736E+01  0.2187E+02
    -10.898  0.4260E+01  0.2233E+02
    -10.791  0.4979E+01  0.2283E+02
    -10.685  0.5155E+01  0.2337E+02
    -10.579  0.5330E+01  0.2392E+02
    -10.472  0.6861E+01  0.2453E+02
    -10.366  0.1189E+02  0.2550E+02
    -10.259  0.9634E+01  0.2664E+02
    -10.153  0.7374E+01  0.2755E+02
    -10.047  0.5183E+01  0.2821E+02
     -9.940  0.4469E+01  0.2871E+02
     -9.834  0.4027E+01  0.2917E+02
     -9.728  0.3586E+01  0.2957E+02
     -9.621  0.7784E+01  0.3014E+02
     -9.515  0.2104E+01  0.3081E+02
     -9.408  0.1905E+01  0.3103E+02
     -9.302  0.1707E+01  0.3122E+02
     -9.196  0.1509E+01  0.3139E+02
     -9.089  0.1310E+01  0.3154E+02
     -8.983  0.1299E+01  0.3167E+02
     -8.877  0.1792E+01  0.3184E+02
     -8.770  0.2288E+01  0.3205E+02
     -8.664  0.2784E+01  0.3232E+02
     -8.557  0.4995E+01  0.3269E+02
     -8.451  0.9430E+01  0.3346E+02
     -8.345  0.5321E+01  0.3446E+02
     -8.238  0.5044E+01  0.3498E+02
     -8.132  0.6162E+01  0.3558E+02
     -8.026  0.7280E+01  0.3629E+02
     -7.919  0.8399E+01  0.3713E+02
     -7.813  0.9517E+01  0.3808E+02
     -7.706  0.7395E+01  0.3905E+02
     -7.600  0.5559E+01  0.3967E+02
     -7.494  0.5590E+01  0.4027E+02
     -7.387  0.5597E+01  0.4086E+02
     -7.281  0.5449E+01  0.4145E+02
     -7.175  0.5289E+01  0.4202E+02
     -7.068  0.5146E+01  0.4258E+02
     -6.962  0.5028E+01  0.4312E+02
     -6.855  0.4910E+01  0.4365E+02
     -6.749  0.4792E+01  0.4416E+02
     -6.643  0.4673E+01  0.4467E+02
     -6.536  0.4555E+01  0.4516E+02
     -6.430  0.4437E+01  0.4564E+02
     -6.324  0.4420E+01  0.4610E+02
     -6.217  0.5025E+01  0.4661E+02
     -6.111  0.5597E+01  0.4717E+02
     -6.004  0.6169E+01  0.4780E+02
     -5.898  0.6741E+01  0.4848E+02
     -5.792  0.7313E+01  0.4923E+02
     -5.685  0.7886E+01  0.5004E+02
     -5.579  0.8458E+01  0.5091E+02
     -5.473  0.9030E+01  0.5184E+02
     -5.366  0.3832E+01  0.5247E+02
     -5.260  0.6339E+01  0.5297E+02
     -5.153  0.6670E+01  0.5372E+02
     -5.047  0.5264E+01  0.5436E+02
     -4.941  0.3858E+01  0.5484E+02
     -4.834  0.2452E+01  0.5518E+02
     -4.728  0.1090E+01  0.5537E+02
     -4.622  0.2207E+01  0.5553E+02
     -4.515  0.3619E+01  0.5584E+02
     -4.409  0.5031E+01  0.5630E+02
     -4.302  0.7336E+01  0.5691E+02
     -4.196  0.1143E+02  0.5801E+02
     -4.090  0.1055E+02  0.5918E+02
     -3.983  0.1083E+02  0.6028E+02
     -3.877  0.1088E+02  0.6146E+02
     -3.771  0.5400E+01  0.6222E+02
     -3.664  0.5631E+01  0.6280E+02
     -3.558  0.6462E+01  0.6344E+02
     -3.452  0.1011E+02  0.6427E+02
     -3.345  0.1528E+02  0.6562E+02
     -3.239  0.2856E+02  0.6767E+02
     -3.132  0.6540E+01  0.6900E+02
     -3.026  0.6674E+01  0.6970E+02
     -2.920  0.6994E+01  0.7043E+02
     -2.813  0.7555E+01  0.7119E+02
     -2.707  0.9253E+01  0.7208E+02
     -2.601  0.1690E+02  0.7366E+02
     -2.494  0.1452E+02  0.7532E+02
     -2.388  0.1186E+02  0.7678E+02
     -2.281  0.1548E+02  0.7803E+02
     -2.175  0.1597E+02  0.8126E+02
     -2.069  0.2034E+02  0.8305E+02
     -1.962  0.1247E+02  0.8494E+02
     -1.856  0.1388E+02  0.8633E+02
     -1.750  0.1494E+02  0.8789E+02
     -1.643  0.9301E+01  0.8923E+02
     -1.537  0.6497E+01  0.9006E+02
     -1.430  0.8243E+01  0.9083E+02
     -1.324  0.8363E+01  0.9174E+02
     -1.218  0.9233E+01  0.9267E+02
     -1.111  0.9836E+01  0.9370E+02
     -1.005  0.9520E+01  0.9472E+02
     -0.899  0.1095E+02  0.9580E+02
     -0.792  0.1191E+02  0.9760E+02
     -0.686  0.1119E+02  0.9885E+02
     -0.579  0.1155E+02  0.1001E+03
     -0.473  0.1178E+02  0.1013E+03
     -0.367  0.1037E+02  0.1025E+03
     -0.260  0.1008E+02  0.1036E+03
     -0.154  0.9823E+01  0.1046E+03
     -0.048  0.9591E+01  0.1057E+03
      0.059  0.9499E+01  0.1067E+03
      0.165  0.9543E+01  0.1077E+03
      0.272  0.9157E+01  0.1087E+03
      0.378  0.8995E+01  0.1096E+03
      0.484  0.9022E+01  0.1106E+03
      0.591  0.9794E+01  0.1116E+03
      0.697  0.9851E+01  0.1126E+03
      0.803  0.1020E+02  0.1137E+03
      0.910  0.1067E+02  0.1148E+03
      1.016  0.9634E+01  0.1159E+03
      1.123  0.8192E+01  0.1169E+03
      1.229  0.6667E+01  0.1177E+03
      1.335  0.5607E+01  0.1183E+03
      1.442  0.5010E+01  0.1189E+03
      1.548  0.3999E+01  0.1194E+03
      1.654  0.2952E+01  0.1197E+03
      1.761  0.3461E+01  0.1201E+03
      1.867  0.5303E+01  0.1205E+03
      1.974  0.7865E+01  0.1212E+03
      2.080  0.1489E+02  0.1223E+03
      2.186  0.7532E+01  0.1233E+03
      2.293  0.6431E+01  0.1240E+03
      2.399  0.5706E+01  0.1246E+03
      2.505  0.4698E+01  0.1252E+03
      2.612  0.3769E+01  0.1257E+03
      2.718  0.3291E+01  0.1260E+03
      2.825  0.2948E+01  0.1264E+03
      2.931  0.2592E+01  0.1267E+03
      3.037  0.2254E+01  0.1269E+03
      3.144  0.1930E+01  0.1271E+03
      3.250  0.1563E+01  0.1273E+03
      3.356  0.1363E+01  0.1275E+03
      3.463  0.1162E+01  0.1276E+03
      3.569  0.9606E+00  0.1277E+03
      3.676  0.7595E+00  0.1278E+03
      3.782  0.5618E+00  0.1279E+03
      3.888  0.3945E+00  0.1279E+03
      3.995  0.2458E+00  0.1280E+03
      4.101  0.1115E+00  0.1280E+03
      4.207  0.1599E-02  0.1280E+03
      4.314  0.1078E+00  0.1280E+03
      4.420  0.2295E+00  0.1280E+03
      4.527  0.3679E+00  0.1281E+03
      4.633  0.5269E+00  0.1281E+03
      4.739  0.7242E+00  0.1282E+03
      4.846  0.9404E+00  0.1283E+03
      4.952  0.1157E+01  0.1284E+03
      5.058  0.1373E+01  0.1285E+03
      5.165  0.1590E+01  0.1287E+03
      5.271  0.1807E+01  0.1288E+03
      5.378  0.2942E+01  0.1291E+03
      5.484  0.3834E+01  0.1294E+03
      5.590  0.4001E+01  0.1299E+03
      5.697  0.5380E+01  0.1303E+03
      5.803  0.8007E+01  0.1311E+03
      5.909  0.1250E+02  0.1321E+03
      6.016  0.9238E+01  0.1333E+03
      6.122  0.7239E+01  0.1342E+03
      6.228  0.6386E+01  0.1349E+03
      6.335  0.5986E+01  0.1355E+03
      6.441  0.5485E+01  0.1361E+03
      6.548  0.4675E+01  0.1367E+03
      6.654  0.4514E+01  0.1372E+03
      6.760  0.4042E+01  0.1376E+03
      6.867  0.3792E+01  0.1380E+03
      6.973  0.3983E+01  0.1384E+03
      7.079  0.4456E+01  0.1389E+03
      7.186  0.4782E+01  0.1394E+03
      7.292  0.4748E+01  0.1399E+03
      7.399  0.4656E+01  0.1404E+03
      7.505  0.4485E+01  0.1409E+03
      7.611  0.4313E+01  0.1414E+03
      7.718  0.4179E+01  0.1418E+03
      7.824  0.4094E+01  0.1422E+03
      7.930  0.4040E+01  0.1427E+03
      8.037  0.4004E+01  0.1431E+03
      8.143  0.4015E+01  0.1435E+03
      8.250  0.4288E+01  0.1440E+03
      8.356  0.4569E+01  0.1444E+03
      8.462  0.4286E+01  0.1449E+03
      8.569  0.4132E+01  0.1454E+03
      8.675  0.4059E+01  0.1458E+03
      8.781  0.3986E+01  0.1462E+03
      8.888  0.3867E+01  0.1467E+03
      8.994  0.3910E+01  0.1471E+03
      9.101  0.3966E+01  0.1475E+03
      9.207  0.4016E+01  0.1479E+03
      9.313  0.4067E+01  0.1483E+03
      9.420  0.4101E+01  0.1488E+03
      9.526  0.4135E+01  0.1492E+03
      9.632  0.4571E+01  0.1497E+03
      9.739  0.4754E+01  0.1502E+03
      9.845  0.4761E+01  0.1507E+03
      9.952  0.6488E+01  0.1513E+03
     10.058  0.5280E+01  0.1519E+03
     10.164  0.6078E+01  0.1525E+03
     10.271  0.5785E+01  0.1531E+03
     10.377  0.5787E+01  0.1537E+03
     10.483  0.5188E+01  0.1544E+03
     10.590  0.3446E+01  0.1548E+03
     10.696  0.3973E+01  0.1552E+03
     10.803  0.3234E+01  0.1556E+03
     10.909  0.2948E+01  0.1560E+03
     11.015  0.3045E+01  0.1563E+03
     11.122  0.3221E+01  0.1566E+03
     11.228  0.3338E+01  0.1570E+03
     11.334  0.3979E+01  0.1573E+03
     11.441  0.4624E+01  0.1578E+03
     11.547  0.8685E+01  0.1585E+03
     11.654  0.8556E+01  0.1593E+03
     11.760  0.9731E+01  0.1603E+03
     11.866  0.1173E+02  0.1614E+03
     11.973  0.1277E+02  0.1627E+03
     12.079  0.1273E+02  0.1641E+03
     12.185  0.1308E+02  0.1655E+03
     12.292  0.1156E+02  0.1668E+03
     12.398  0.5504E+01  0.1678E+03
     12.505  0.7513E-01  0.1680E+03
     12.611  0.0000E+00  0.1680E+03
     12.717  0.0000E+00  0.1680E+03
     12.824  0.0000E+00  0.1680E+03
     12.930  0.0000E+00  0.1680E+03
     13.036  0.0000E+00  0.1680E+03
     13.143  0.0000E+00  0.1680E+03
     13.249  0.0000E+00  0.1680E+03
     13.356  0.0000E+00  0.1680E+03
     13.462  0.0000E+00  0.1680E+03
     13.568  0.0000E+00  0.1680E+03
     13.675  0.0000E+00  0.1680E+03
     13.781  0.0000E+00  0.1680E+03
     13.887  0.0000E+00  0.1680E+03
     13.994  0.0000E+00  0.1680E+03
     14.100  0.0000E+00  0.1680E+03
     14.207  0.0000E+00  0.1680E+03
     14.313  0.0000E+00  0.1680E+03
     14.419  0.0000E+00  0.1680E+03
     14.526  0.0000E+00  0.1680E+03
