   32   32    1    1
  0.9341735E+01  0.4932875E-09  0.4932875E-09  0.1419195E-08  0.5000000E-15
  1.000000000000000E-004
  CAR 
 graphite                                
    128     76     84
 
  0.0000000E+00  0.0000000E+00  0.0000000E+00  0.6944444E-02
    1      -15.386457
    2      -15.292812
    3      -15.292304
    4      -15.194380
    5      -10.095123
    6      -10.081881
    7      -10.079135
    8      -10.059654
    9      -10.057490
   10      -10.045550
   11      -10.043337
   12      -10.043333
   13      -10.040356
   14      -10.025893
   15      -10.011074
   16      -10.008443
   17       -9.030401
   18       -9.028332
   19       -9.023844
   20       -9.009288
   21       -9.005460
   22       -9.005337
   23       -9.005331
   24       -9.002190
   25       -8.999227
   26       -8.976477
   27       -8.974528
   28       -8.970311
   29       -4.085993
   30       -3.416805
   31       -3.415464
   32       -2.621789
   33       -2.200822
   34       -2.198751
   35       -2.188569
   36       -2.185183
   37       -2.184104
   38       -2.184101
   39       -2.181159
   40       -2.173271
   41       -2.170467
   42       -2.168712
   43       -2.165866
   44       -2.155772
   45        1.186005
   46        1.194115
   47        1.195756
   48        1.198318
   49        1.199321
   50        1.201023
   51        1.202822
   52        1.211205
   53        1.557947
   54        1.566817
   55        1.568968
   56        1.835368
   57        1.838411
   58        1.850364
   59        1.851404
   60        1.851411
   61        1.854555
   62        2.051672
   63        2.072162
   64        2.074009
   65        5.704970
   66        5.707232
   67        5.718931
   68        5.858596
   69        5.864162
   70        5.864634
   71        5.865105
   72        5.867380
   73        5.872373
   74        6.247116
   75        6.249322
   76        6.251254
   77        8.091611
   78       10.316705
   79       10.319424
   80       11.458492
   81       11.462251
   82       11.492074
   83       11.587155
   84       11.588657
 
  0.1666667E+00  0.0000000E+00  0.0000000E+00  0.1388889E-01
    1      -15.221152
    2      -15.128543
    3      -15.128029
    4      -15.031209
    5      -11.377327
    6      -11.307860
    7      -11.307380
    8      -11.235561
    9      -10.510180
   10      -10.502190
   11      -10.450115
   12      -10.448831
   13      -10.441101
   14      -10.440931
   15      -10.387283
   16      -10.378734
   17       -8.390484
   18       -8.388277
   19       -8.342397
   20       -8.341736
   21       -8.339386
   22       -8.338782
   23       -8.290785
   24       -8.288210
   25       -7.549339
   26       -7.500879
   27       -7.498782
   28       -7.448769
   29       -3.885909
   30       -3.220953
   31       -3.219626
   32       -2.690191
   33       -2.678404
   34       -2.670300
   35       -2.669765
   36       -2.659247
   37       -2.656666
   38       -2.649674
   39       -2.637717
   40       -2.431647
   41       -2.036618
   42       -2.021785
   43       -2.019816
   44       -2.004719
   45        0.520061
   46        0.535910
   47        0.544108
   48        0.547966
   49        0.555843
   50        0.852599
   51        0.859516
   52        0.862626
   53        0.871868
   54        1.003551
   55        1.004980
   56        1.354437
   57        1.363137
   58        1.524647
   59        1.728918
   60        1.731764
   61        1.742000
   62        1.742465
   63        2.087443
   64        2.103685
   65        5.927606
   66        5.935982
   67        6.143694
   68        6.145428
   69        6.146469
   70        6.151164
   71        6.525743
   72        6.528075
   73        6.659341
   74        6.962307
   75        6.966324
   76        7.395009
   77        8.296208
   78       10.503994
   79       10.506691
   80       11.548532
   81       11.670634
   82       11.671277
   83       11.789991
   84       12.193007
 
  0.3333333E+00  0.0000000E+00  0.0000000E+00  0.1388889E-01
    1      -14.727296
    2      -14.637597
    3      -14.637063
    4      -14.543432
    5      -12.783702
    6      -12.705349
    7      -12.704785
    8      -12.623494
    9      -10.929726
   10      -10.925967
   11      -10.863467
   12      -10.862280
   13      -10.858921
   14      -10.858560
   15      -10.794002
   16      -10.790099
   17       -7.218459
   18       -7.212721
   19       -7.174440
   20       -7.173285
   21       -7.167995
   22       -7.167556
   23       -7.127816
   24       -7.122123
   25       -5.438096
   26       -5.398930
   27       -5.396576
   28       -5.356615
   29       -3.844250
   30       -3.834156
   31       -3.818067
   32       -3.816967
   33       -3.808537
   34       -3.805930
   35       -3.789888
   36       -3.779699
   37       -3.289792
   38       -2.638657
   39       -2.637369
   40       -1.868251
   41       -1.562854
   42       -1.548746
   43       -1.546580
   44       -1.532202
   45       -1.112727
   46       -1.095285
   47       -1.091227
   48       -1.073981
   49       -0.999864
   50       -0.420612
   51       -0.419489
   52        0.055407
   53        0.065666
   54        0.068737
   55        0.079896
   56        0.248461
   57        1.072858
   58        1.077978
   59        1.542160
   60        1.544811
   61        1.549840
   62        1.550479
   63        2.053427
   64        2.061860
   65        6.473963
   66        6.477176
   67        6.718517
   68        6.719574
   69        6.719921
   70        6.723997
   71        7.021011
   72        7.023525
   73        8.820638
   74        8.910861
   75        9.101939
   76        9.105229
   77        9.468187
   78       11.056822
   79       11.059570
   80       11.306782
   81       11.830522
   82       11.892205
   83       11.893180
   84       12.097985
 
  0.5000000E+00  0.0000000E+00  0.0000000E+00  0.6944444E-02
    1      -13.912037
    2      -13.909381
    3      -13.828398
    4      -13.825238
    5      -13.825219
    6      -13.823038
    7      -13.738153
    8      -13.735431
    9      -11.077440
   10      -11.075811
   11      -11.010251
   12      -11.008208
   13      -11.008196
   14      -11.006926
   15      -10.938897
   16      -10.937210
   17       -6.318415
   18       -6.316876
   19       -6.294935
   20       -6.294877
   21       -6.294859
   22       -6.291120
   23       -6.271830
   24       -6.269286
   25       -4.739571
   26       -4.737814
   27       -4.725080
   28       -4.722684
   29       -4.720950
   30       -4.720948
   31       -4.704092
   32       -4.703094
   33       -3.224582
   34       -3.221109
   35       -3.197227
   36       -3.191635
   37       -3.191512
   38       -3.191509
   39       -3.163914
   40       -3.161480
   41       -2.315161
   42       -2.312989
   43       -1.690511
   44       -1.688088
   45       -1.687907
   46       -1.685373
   47       -0.955427
   48       -0.952970
   49       -0.829586
   50       -0.826709
   51       -0.816901
   52       -0.815022
   53       -0.815002
   54       -0.809475
   55       -0.802280
   56       -0.793939
   57        0.961034
   58        0.963016
   59        1.459152
   60        1.462720
   61        1.462854
   62        1.463695
   63        2.019725
   64        2.021936
   65        6.809280
   66        6.811658
   67        7.021999
   68        7.022833
   69        7.022837
   70        7.026860
   71        7.237298
   72        7.239759
   73        9.930299
   74        9.931079
   75       11.230492
   76       11.233887
   77       11.336156
   78       11.345240
   79       11.345665
   80       11.352138
   81       11.671472
   82       11.674977
   83       11.966095
   84       11.973480
 
  0.0000000E+00  0.1666667E+00  0.0000000E+00  0.1388889E-01
    1      -15.221148
    2      -15.128536
    3      -15.128028
    4      -15.031205
    5      -11.377339
    6      -11.307888
    7      -11.307382
    8      -11.235579
    9      -10.510262
   10      -10.501986
   11      -10.450313
   12      -10.448832
   13      -10.441048
   14      -10.440422
   15      -10.387316
   16      -10.378461
   17       -8.391321
   18       -8.388629
   19       -8.343979
   20       -8.342387
   21       -8.339385
   22       -8.338579
   23       -8.291421
   24       -8.288429
   25       -7.548479
   26       -7.499219
   27       -7.498770
   28       -7.447954
   29       -3.885919
   30       -3.220967
   31       -3.219634
   32       -2.689120
   33       -2.678216
   34       -2.669764
   35       -2.668086
   36       -2.659280
   37       -2.656666
   38       -2.648444
   39       -2.637751
   40       -2.431660
   41       -2.037567
   42       -2.022137
   43       -2.021785
   44       -2.006214
   45        0.520256
   46        0.538584
   47        0.547963
   48        0.547978
   49        0.557402
   50        0.851461
   51        0.859234
   52        0.859513
   53        0.867196
   54        1.003139
   55        1.003960
   56        1.354546
   57        1.364106
   58        1.523812
   59        1.729189
   60        1.731761
   61        1.742279
   62        1.744228
   63        2.087532
   64        2.104781
   65        5.925799
   66        5.935875
   67        6.140426
   68        6.145261
   69        6.146524
   70        6.150582
   71        6.524086
   72        6.527684
   73        6.660879
   74        6.964679
   75        6.966858
   76        7.396455
   77        8.296200
   78       10.503966
   79       10.506664
   80       11.547945
   81       11.670011
   82       11.670689
   83       11.789369
   84       12.198759
 
  0.1666667E+00  0.1666667E+00  0.0000000E+00  0.1388889E-01
    1      -14.891371
    2      -14.800711
    3      -14.800185
    4      -14.705523
    5      -11.997368
    6      -11.994586
    7      -11.925049
    8      -11.921817
    9      -11.921799
   10      -11.919432
   11      -11.847005
   12      -11.844145
   13       -9.670777
   14       -9.636922
   15       -9.635004
   16       -9.605003
   17       -8.621569
   18       -8.602781
   19       -8.600045
   20       -8.574695
   21       -6.442306
   22       -6.438963
   23       -6.400053
   24       -6.395674
   25       -6.395656
   26       -6.393580
   27       -6.352774
   28       -6.349557
   29       -4.019643
   30       -3.992688
   31       -3.990186
   32       -3.962606
   33       -3.487428
   34       -2.831501
   35       -2.830201
   36       -2.362404
   37       -2.360036
   38       -2.344309
   39       -2.342182
   40       -2.342178
   41       -2.338996
   42       -2.323788
   43       -2.320540
   44       -2.054552
   45       -0.502876
   46       -0.493862
   47       -0.489583
   48       -0.482117
   49       -0.109778
   50       -0.107837
   51        0.178509
   52        0.184101
   53        0.187062
   54        0.195750
   55        0.427510
   56        0.429775
   57        0.429884
   58        0.432353
   59        1.037286
   60        1.039596
   61        2.157578
   62        2.433225
   63        2.436094
   64        2.641619
   65        5.607380
   66        5.651330
   67        5.655168
   68        5.867333
   69        7.621769
   70        7.624153
   71        7.914098
   72        7.918359
   73        7.918563
   74        7.920071
   75        8.285593
   76        8.288232
   77        8.707423
   78       10.879838
   79       10.882526
   80       12.237542
   81       12.240197
   82       12.427634
   83       12.430600
   84       12.481026
 
  0.3333333E+00  0.1666667E+00  0.0000000E+00  0.1388889E-01
    1      -14.235911
    2      -14.149119
    3      -14.148559
    4      -14.058147
    5      -13.265202
    6      -13.184097
    7      -13.183563
    8      -13.099292
    9      -12.311852
   10      -12.236371
   11      -12.235967
   12      -12.157627
   13       -9.644422
   14       -9.589499
   15       -9.588527
   16       -9.532706
   17       -7.754076
   18       -7.718086
   19       -7.715986
   20       -7.678839
   21       -5.453998
   22       -5.427076
   23       -5.424453
   24       -5.395773
   25       -5.286494
   26       -5.255412
   27       -5.254489
   28       -5.223247
   29       -4.304857
   30       -4.273033
   31       -4.270722
   32       -4.238243
   33       -3.263280
   34       -3.243123
   35       -3.241117
   36       -3.219990
   37       -2.700311
   38       -2.224135
   39       -2.205963
   40       -2.201790
   41       -2.182859
   42       -2.063146
   43       -2.062106
   44       -1.724154
   45       -1.707760
   46       -1.705880
   47       -1.689060
   48       -1.552370
   49       -1.313956
   50       -0.950280
   51       -0.949153
   52       -0.826108
   53       -0.814759
   54       -0.811290
   55       -0.798954
   56       -0.441174
   57       -0.248646
   58        0.121437
   59        0.122702
   60        0.768352
   61        2.469985
   62        2.843220
   63        2.845785
   64        3.206655
   65        5.340078
   66        5.504994
   67        5.507736
   68        5.729014
   69        8.418029
   70        8.633823
   71        8.635049
   72        8.863952
   73        9.528723
   74        9.906749
   75       10.123898
   76       10.126822
   77       10.398283
   78       10.747424
   79       11.599426
   80       11.603851
   81       11.963709
   82       12.142999
   83       12.301596
   84       12.305726
 
  0.5000000E+00  0.1666667E+00  0.0000000E+00  0.1388889E-01
    1      -14.237032
    2      -14.150222
    3      -14.149688
    4      -14.059259
    5      -13.263614
    6      -13.182526
    7      -13.181965
    8      -13.097716
    9      -12.313026
   10      -12.237542
   11      -12.237145
   12      -12.158802
   13       -9.640823
   14       -9.585467
   15       -9.584892
   16       -9.528603
   17       -7.752974
   18       -7.715967
   19       -7.715606
   20       -7.677503
   21       -5.459318
   22       -5.431813
   23       -5.430650
   24       -5.401382
   25       -5.293003
   26       -5.262360
   27       -5.260075
   28       -5.229225
   29       -4.309991
   30       -4.278472
   31       -4.275457
   32       -4.243335
   33       -3.255401
   34       -3.235757
   35       -3.232205
   36       -3.211697
   37       -2.701835
   38       -2.218032
   39       -2.199223
   40       -2.196887
   41       -2.177135
   42       -2.064660
   43       -2.063610
   44       -1.718970
   45       -1.702986
   46       -1.700315
   47       -1.683792
   48       -1.550302
   49       -1.315538
   50       -0.948201
   51       -0.947076
   52       -0.832439
   53       -0.820381
   54       -0.818714
   55       -0.806398
   56       -0.442936
   57       -0.246547
   58        0.119374
   59        0.120813
   60        0.766038
   61        2.473601
   62        2.849893
   63        2.851275
   64        3.216872
   65        5.332816
   66        5.501803
   67        5.502945
   68        5.726084
   69        8.416407
   70        8.632055
   71        8.633888
   72        8.863548
   73        9.526889
   74        9.905182
   75       10.120748
   76       10.124246
   77       10.394325
   78       10.749991
   79       11.597748
   80       11.602123
   81       11.962442
   82       12.142770
   83       12.302289
   84       12.305984
 
 -0.3333333E+00  0.1666667E+00  0.0000000E+00  0.1388889E-01
    1      -14.892039
    2      -14.801366
    3      -14.800858
    4      -14.706182
    5      -11.999468
    6      -11.993874
    7      -11.925792
    8      -11.925376
    9      -11.920276
   10      -11.919718
   11      -11.849228
   12      -11.843603
   13       -9.657152
   14       -9.621772
   15       -9.621371
   16       -9.589876
   17       -8.628097
   18       -8.607925
   19       -8.607417
   20       -8.580691
   21       -6.446670
   22       -6.444995
   23       -6.403080
   24       -6.401934
   25       -6.401572
   26       -6.399617
   27       -6.357274
   28       -6.355849
   29       -4.028755
   30       -4.000771
   31       -4.000392
   32       -3.971811
   33       -3.488356
   34       -2.832453
   35       -2.831134
   36       -2.357385
   37       -2.349924
   38       -2.339228
   39       -2.337105
   40       -2.332210
   41       -2.329181
   42       -2.318520
   43       -2.311229
   44       -2.055522
   45       -0.497575
   46       -0.488279
   47       -0.487800
   48       -0.478640
   49       -0.114263
   50       -0.106150
   51        0.174911
   52        0.181117
   53        0.181643
   54        0.188407
   55        0.422901
   56        0.424472
   57        0.431911
   58        0.433147
   59        1.031080
   60        1.041020
   61        2.165954
   62        2.447840
   63        2.448250
   64        2.661388
   65        5.594760
   66        5.644617
   67        5.646401
   68        5.862222
   69        7.620088
   70        7.622907
   71        7.911906
   72        7.915280
   73        7.915594
   74        7.918089
   75        8.282256
   76        8.286083
   77        8.706283
   78       10.878395
   79       10.881082
   80       12.241455
   81       12.246588
   82       12.429511
   83       12.455288
   84       12.480680
 
 -0.1666667E+00  0.1666667E+00  0.0000000E+00  0.1388889E-01
    1      -15.221370
    2      -15.128753
    3      -15.128251
    4      -15.031424
    5      -11.383633
    6      -11.314249
    7      -11.313726
    8      -11.241993
    9      -10.500896
   10      -10.498958
   11      -10.440975
   12      -10.438756
   13      -10.438748
   14      -10.437025
   15      -10.377521
   16      -10.375509
   17       -8.392760
   18       -8.391012
   19       -8.345448
   20       -8.342306
   21       -8.342282
   22       -8.342048
   23       -8.292736
   24       -8.291091
   25       -7.552096
   26       -7.503342
   27       -7.501989
   28       -7.451567
   29       -3.886231
   30       -3.221287
   31       -3.219947
   32       -2.689519
   33       -2.687649
   34       -2.670198
   35       -2.668775
   36       -2.668771
   37       -2.665871
   38       -2.649328
   39       -2.646666
   40       -2.431986
   41       -2.025815
   42       -2.011478
   43       -2.008610
   44       -1.994174
   45        0.512453
   46        0.536821
   47        0.545232
   48        0.548867
   49        0.559301
   50        0.849397
   51        0.857852
   52        0.862050
   53        0.868116
   54        0.992803
   55        0.994655
   56        1.364450
   57        1.366471
   58        1.511724
   59        1.742489
   60        1.743723
   61        1.743803
   62        1.746819
   63        2.104162
   64        2.106244
   65        5.924696
   66        5.927150
   67        6.137791
   68        6.143030
   69        6.143490
   70        6.144623
   71        6.521402
   72        6.524223
   73        6.664467
   74        6.964965
   75        6.968206
   76        7.396518
   77        8.295811
   78       10.503467
   79       10.506166
   80       11.578597
   81       11.700244
   82       11.701952
   83       11.819788
   84       12.189544
 
  0.0000000E+00  0.3333333E+00  0.0000000E+00  0.1388889E-01
    1      -14.727280
    2      -14.637566
    3      -14.637061
    4      -14.543416
    5      -12.783667
    6      -12.705282
    7      -12.704782
    8      -12.623458
    9      -10.930032
   10      -10.925744
   11      -10.864219
   12      -10.862284
   13      -10.858906
   14      -10.857825
   15      -10.794233
   16      -10.789793
   17       -7.219109
   18       -7.213472
   19       -7.175149
   20       -7.174430
   21       -7.168112
   22       -7.167955
   23       -7.128308
   24       -7.122624
   25       -5.437110
   26       -5.397038
   27       -5.396568
   28       -5.355695
   29       -3.843173
   30       -3.833859
   31       -3.816967
   32       -3.815863
   33       -3.807950
   34       -3.805929
   35       -3.788624
   36       -3.779447
   37       -3.289836
   38       -2.638718
   39       -2.637407
   40       -1.868309
   41       -1.563894
   42       -1.549159
   43       -1.548747
   44       -1.533915
   45       -1.110581
   46       -1.091933
   47       -1.091224
   48       -1.072569
   49       -1.000108
   50       -0.420914
   51       -0.419815
   52        0.054162
   53        0.065293
   54        0.065663
   55        0.076870
   56        0.248083
   57        1.072977
   58        1.078765
   59        1.542440
   60        1.544792
   61        1.550194
   62        1.551890
   63        2.053645
   64        2.062793
   65        6.472159
   66        6.476876
   67        6.715146
   68        6.719527
   69        6.719896
   70        6.723378
   71        7.019206
   72        7.023365
   73        8.821720
   74        8.910847
   75        9.103339
   76        9.105746
   77        9.469137
   78       11.056712
   79       11.059464
   80       11.306711
   81       11.829816
   82       11.891694
   83       11.892210
   84       12.097324
 
  0.1666667E+00  0.3333333E+00  0.0000000E+00  0.1388889E-01
    1      -14.235897
    2      -14.149092
    3      -14.148557
    4      -14.058132
    5      -13.265167
    6      -13.184028
    7      -13.183559
    8      -13.099254
    9      -12.311896
   10      -12.236456
   11      -12.235973
   12      -12.157673
   13       -9.644363
   14       -9.589377
   15       -9.588525
   16       -9.532641
   17       -7.754413
   18       -7.718089
   19       -7.716776
   20       -7.679308
   21       -5.453579
   22       -5.426364
   23       -5.424452
   24       -5.395462
   25       -5.287771
   26       -5.257101
   27       -5.255412
   28       -5.224593
   29       -4.303563
   30       -4.270730
   31       -4.270496
   32       -4.236996
   33       -3.261777
   34       -3.241115
   35       -3.240076
   36       -3.218414
   37       -2.700348
   38       -2.222888
   39       -2.204262
   40       -2.201788
   41       -2.182193
   42       -2.063183
   43       -2.062141
   44       -1.725481
   45       -1.708891
   46       -1.707763
   47       -1.690835
   48       -1.552576
   49       -1.314008
   50       -0.950586
   51       -0.949334
   52       -0.826668
   53       -0.814761
   54       -0.813070
   55       -0.800931
   56       -0.440862
   57       -0.248931
   58        0.121914
   59        0.122932
   60        0.768769
   61        2.470435
   62        2.844114
   63        2.845793
   64        3.207067
   65        5.339564
   66        5.504946
   67        5.506451
   68        5.728258
   69        8.416825
   70        8.632517
   71        8.634148
   72        8.862936
   73        9.528725
   74        9.907810
   75       10.125102
   76       10.127472
   77       10.399194
   78       10.747389
   79       11.599259
   80       11.603712
   81       11.963732
   82       12.143318
   83       12.302175
   84       12.305917
 
  0.3333333E+00  0.3333333E+00  0.0000000E+00  0.1388889E-01
    1      -13.429096
    2      -13.426540
    3      -13.424178
    4      -13.348696
    5      -13.344931
    6      -13.344912
    7      -13.344136
    8      -13.342196
    9      -13.340484
   10      -13.261028
   11      -13.258537
   12      -13.256077
   13       -8.426477
   14       -8.376423
   15       -8.374022
   16       -8.367272
   17       -8.364078
   18       -8.357685
   19       -8.356064
   20       -8.307072
   21       -6.322290
   22       -6.321795
   23       -6.320212
   24       -6.319824
   25       -3.555242
   26       -3.547871
   27       -3.545136
   28       -3.539942
   29       -3.535838
   30       -3.531494
   31       -3.529961
   32       -3.529956
   33       -3.525735
   34       -3.521423
   35       -3.514547
   36       -3.509928
   37       -2.197985
   38       -2.191886
   39       -2.186849
   40       -2.185465
   41       -2.180854
   42       -2.180840
   43       -2.180162
   44       -2.175820
   45       -2.172695
   46       -2.170290
   47       -2.167123
   48       -2.159053
   49       -1.740841
   50       -1.738733
   51       -1.735613
   52       -1.133179
   53       -1.129792
   54       -1.129663
   55       -1.128693
   56       -1.126350
   57       -1.124449
   58       -0.420128
   59       -0.417840
   60       -0.414488
   61        3.748346
   62        4.190839
   63        4.195104
   64        4.198110
   65        4.198267
   66        4.214660
   67        4.216457
   68        4.707373
   69       10.411502
   70       10.415092
   71       10.415631
   72       10.539316
   73       10.551347
   74       10.554199
   75       10.575888
   76       10.577135
   77       10.578731
   78       10.578993
   79       10.579208
   80       10.591889
   81       10.743297
   82       10.749113
   83       10.752139
   84       12.516887
 
  0.5000000E+00  0.3333333E+00  0.0000000E+00  0.1388889E-01
    1      -14.237684
    2      -14.150862
    3      -14.150365
    4      -14.059907
    5      -13.266965
    6      -13.185767
    7      -13.185363
    8      -13.101031
    9      -12.308245
   10      -12.232853
   11      -12.232284
   12      -12.154034
   13       -9.633299
   14       -9.577832
   15       -9.577499
   16       -9.521147
   17       -7.763030
   18       -7.726892
   19       -7.725567
   20       -7.688379
   21       -5.456008
   22       -5.428224
   23       -5.427839
   24       -5.398470
   25       -5.297073
   26       -5.267216
   27       -5.264111
   28       -5.234131
   29       -4.311336
   30       -4.279245
   31       -4.277105
   32       -4.244371
   33       -3.254426
   34       -3.234579
   35       -3.231892
   36       -3.210950
   37       -2.702834
   38       -2.222891
   39       -2.203498
   40       -2.201992
   41       -2.181533
   42       -2.065758
   43       -2.064661
   44       -1.715541
   45       -1.699803
   46       -1.696206
   47       -1.680431
   48       -1.555220
   49       -1.316639
   50       -0.953454
   51       -0.952063
   52       -0.826985
   53       -0.815467
   54       -0.812838
   55       -0.801228
   56       -0.436241
   57       -0.252006
   58        0.126538
   59        0.127635
   60        0.773501
   61        2.480932
   62        2.857092
   63        2.857749
   64        3.222140
   65        5.332528
   66        5.494389
   67        5.496363
   68        5.713294
   69        8.414661
   70        8.626683
   71        8.629710
   72        8.854665
   73        9.525966
   74        9.904342
   75       10.121239
   76       10.123931
   77       10.397294
   78       10.745190
   79       11.594894
   80       11.599426
   81       11.969229
   82       12.140597
   83       12.303873
   84       12.307458
 
 -0.3333333E+00  0.3333333E+00  0.0000000E+00  0.1388889E-01
    1      -14.728166
    2      -14.638439
    3      -14.637955
    4      -14.544296
    5      -12.787302
    6      -12.708876
    7      -12.708459
    8      -12.627348
    9      -10.922432
   10      -10.920735
   11      -10.856462
   12      -10.854311
   13      -10.854299
   14      -10.853010
   15      -10.786606
   16      -10.784860
   17       -7.221738
   18       -7.219876
   19       -7.178735
   20       -7.175325
   21       -7.175288
   22       -7.175148
   23       -7.131309
   24       -7.129599
   25       -5.443088
   26       -5.403406
   27       -5.401873
   28       -5.361316
   29       -3.840472
   30       -3.838890
   31       -3.814262
   32       -3.813485
   33       -3.813481
   34       -3.810588
   35       -3.786447
   36       -3.784266
   37       -3.291091
   38       -2.640016
   39       -2.638672
   40       -1.869641
   41       -1.553751
   42       -1.540116
   43       -1.536969
   44       -1.523375
   45       -1.115045
   46       -1.097033
   47       -1.094234
   48       -1.076025
   49       -1.005310
   50       -0.426657
   51       -0.425264
   52        0.057419
   53        0.067716
   54        0.071780
   55        0.081437
   56        0.241901
   57        1.082212
   58        1.084121
   59        1.553268
   60        1.554581
   61        1.554739
   62        1.557654
   63        2.065481
   64        2.067671
   65        6.469362
   66        6.471942
   67        6.709690
   68        6.714641
   69        6.715077
   70        6.715750
   71        7.011683
   72        7.014263
   73        8.819681
   74        8.909451
   75        9.100469
   76        9.103355
   77        9.467714
   78       11.054890
   79       11.057653
   80       11.304293
   81       11.857538
   82       11.917717
   83       11.919682
   84       12.123222
 
 -0.1666667E+00  0.3333333E+00  0.0000000E+00  0.1388889E-01
    1      -14.892028
    2      -14.801345
    3      -14.800856
    4      -14.706170
    5      -11.999875
    6      -11.993599
    7      -11.926970
    8      -11.925399
    9      -11.919755
   10      -11.919036
   11      -11.849520
   12      -11.843179
   13       -9.656485
   14       -9.621375
   15       -9.620384
   16       -9.589161
   17       -8.629761
   18       -8.610841
   19       -8.607424
   20       -8.582053
   21       -6.447558
   22       -6.443616
   23       -6.404249
   24       -6.403074
   25       -6.399620
   26       -6.397866
   27       -6.358112
   28       -6.354059
   29       -4.027862
   30       -4.000396
   31       -3.998785
   32       -3.970702
   33       -3.488386
   34       -2.832498
   35       -2.831158
   36       -2.358616
   37       -2.349951
   38       -2.339720
   39       -2.339228
   40       -2.331400
   41       -2.329180
   42       -2.319728
   43       -2.310882
   44       -2.055563
   45       -0.496277
   46       -0.487796
   47       -0.484639
   48       -0.474868
   49       -0.114331