graphite                                
           1
     4.932874   -0.001919    0.000000
    -2.468099    4.271035    0.000000
     0.000000    0.000000   14.191947
   C 
  32
Direct configuration=     1
   0.49963812  0.00036190  0.12500000
   0.99963812  0.00036190  0.12500000
   0.49963812  0.50036190  0.12500000
   0.99963812  0.50036190  0.12500000
   0.49963812  0.00036190  0.62500000
   0.99963812  0.00036190  0.62500000
   0.49963812  0.50036190  0.62500000
   0.99963812  0.50036190  0.62500000
   0.00036190  0.49963812  0.37500000
   0.50036190  0.49963812  0.37500000
   0.00036190  0.99963812  0.37500000
   0.50036190  0.99963812  0.37500000
   0.00036190  0.49963812  0.87500000
   0.50036190  0.49963812  0.87500000
   0.00036190  0.99963812  0.87500000
   0.50036190  0.99963812  0.87500000
   0.16698431  0.33368125  0.12566557
   0.66631874  0.33368125  0.12500000
   0.16631874  0.83368125  0.12500000
   0.66631874  0.83368125  0.12500000
   0.16631874  0.33368125  0.62500000
   0.66631874  0.33368125  0.62500000
   0.16631874  0.83368125  0.62500000
   0.66631874  0.83368125  0.62500000
   0.33368125  0.16631874  0.37500000
   0.83368125  0.16631874  0.37500000
   0.33368125  0.66631874  0.37500000
   0.83368125  0.66631874  0.37500000
   0.33368125  0.16631874  0.87500000
   0.83368125  0.16631874  0.87500000
   0.33368125  0.66631874  0.87500000
   0.83368125  0.66631874  0.87500000
