  32  32   0   0
  0.8905205E+01  0.4932875E-09  0.4932875E-09  0.1352877E-08  0.5000000E-15
  1.000000000000000E-004
  CAR 
 graphite                                
     15.25911342    -17.01670128  301      4.60352426      1.00000000
    -17.017  0.0000E+00  0.0000E+00
    -16.909  0.0000E+00  0.0000E+00
    -16.802  0.0000E+00  0.0000E+00
    -16.694  0.0000E+00  0.0000E+00
    -16.586  0.0000E+00  0.0000E+00
    -16.479  0.0000E+00  0.0000E+00
    -16.371  0.0000E+00  0.0000E+00
    -16.264  0.0000E+00  0.0000E+00
    -16.156  0.0000E+00  0.0000E+00
    -16.048  0.0000E+00  0.0000E+00
    -15.941  0.0000E+00  0.0000E+00
    -15.833  0.0000E+00  0.0000E+00
    -15.726  0.0000E+00  0.0000E+00
    -15.618  0.0000E+00  0.0000E+00
    -15.510  0.0000E+00  0.0000E+00
    -15.403  0.0000E+00  0.0000E+00
    -15.295  0.0000E+00  0.0000E+00
    -15.188  0.0000E+00  0.0000E+00
    -15.080  0.0000E+00  0.0000E+00
    -14.973  0.8071E+00  0.1363E-01
    -14.865  0.2342E+01  0.2026E+00
    -14.757  0.3820E+01  0.5316E+00
    -14.650  0.4736E+01  0.1030E+01
    -14.542  0.5026E+01  0.1557E+01
    -14.435  0.4885E+01  0.2090E+01
    -14.327  0.4942E+01  0.2619E+01
    -14.219  0.4901E+01  0.3151E+01
    -14.112  0.4974E+01  0.3682E+01
    -14.004  0.4974E+01  0.4217E+01
    -13.897  0.5007E+01  0.4754E+01
    -13.789  0.5512E+01  0.5310E+01
    -13.682  0.5857E+01  0.5927E+01
    -13.574  0.7148E+01  0.6614E+01
    -13.466  0.4101E+01  0.7259E+01
    -13.359  0.1882E+01  0.7678E+01
    -13.251  0.2697E+01  0.7895E+01
    -13.144  0.4159E+01  0.8305E+01
    -13.036  0.4547E+01  0.8775E+01
    -12.928  0.6015E+01  0.9486E+01
    -12.821  0.6774E+01  0.1015E+02
    -12.713  0.4313E+01  0.1077E+02
    -12.606  0.4484E+01  0.1124E+02
    -12.498  0.4641E+01  0.1174E+02
    -12.391  0.4756E+01  0.1224E+02
    -12.283  0.5049E+01  0.1277E+02
    -12.175  0.5297E+01  0.1333E+02
    -12.068  0.5881E+01  0.1394E+02
    -11.960  0.5434E+01  0.1454E+02
    -11.853  0.5173E+01  0.1512E+02
    -11.745  0.4999E+01  0.1567E+02
    -11.637  0.4894E+01  0.1620E+02
    -11.530  0.5003E+01  0.1673E+02
    -11.422  0.5071E+01  0.1727E+02
    -11.315  0.5144E+01  0.1782E+02
    -11.207  0.5409E+01  0.1839E+02
    -11.099  0.5693E+01  0.1898E+02
    -10.992  0.5834E+01  0.1961E+02
    -10.884  0.5755E+01  0.2023E+02
    -10.777  0.5772E+01  0.2085E+02
    -10.669  0.5743E+01  0.2148E+02
    -10.562  0.4567E+01  0.2203E+02
    -10.454  0.4936E+01  0.2253E+02
    -10.346  0.5307E+01  0.2308E+02
    -10.239  0.5375E+01  0.2366E+02
    -10.131  0.5544E+01  0.2425E+02
    -10.024  0.5780E+01  0.2485E+02
     -9.916  0.6711E+01  0.2550E+02
     -9.808  0.8849E+01  0.2631E+02
     -9.701  0.8653E+01  0.2735E+02
     -9.593  0.5784E+01  0.2811E+02
     -9.486  0.6214E+01  0.2880E+02
     -9.378  0.3798E+01  0.2944E+02
     -9.271  0.3430E+01  0.2983E+02
     -9.163  0.3061E+01  0.3018E+02
     -9.055  0.2693E+01  0.3049E+02
     -8.948  0.2325E+01  0.3076E+02
     -8.840  0.2997E+01  0.3103E+02
     -8.733  0.2538E+01  0.3135E+02
     -8.625  0.1368E+01  0.3156E+02
     -8.517  0.2017E+01  0.3173E+02
     -8.410  0.3441E+01  0.3200E+02
     -8.302  0.7246E+01  0.3268E+02
     -8.195  0.4190E+01  0.3323E+02
     -8.087  0.4050E+01  0.3366E+02
     -7.979  0.4410E+01  0.3411E+02
     -7.872  0.8054E+01  0.3487E+02
     -7.764  0.6675E+01  0.3560E+02
     -7.657  0.7754E+01  0.3638E+02
     -7.549  0.8895E+01  0.3727E+02
     -7.442  0.7285E+01  0.3817E+02
     -7.334  0.6194E+01  0.3886E+02
     -7.226  0.5933E+01  0.3951E+02
     -7.119  0.5682E+01  0.4014E+02
     -7.011  0.5469E+01  0.4074E+02
     -6.904  0.5286E+01  0.4132E+02
     -6.796  0.5106E+01  0.4188E+02
     -6.688  0.4911E+01  0.4241E+02
     -6.581  0.4839E+01  0.4294E+02
     -6.473  0.4812E+01  0.4346E+02
     -6.366  0.4779E+01  0.4397E+02
     -6.258  0.4570E+01  0.4448E+02
     -6.151  0.4412E+01  0.4496E+02
     -6.043  0.3589E+01  0.4541E+02
     -5.935  0.4056E+01  0.4582E+02
     -5.828  0.4497E+01  0.4627E+02
     -5.720  0.5180E+01  0.4679E+02
     -5.613  0.6009E+01  0.4739E+02
     -5.505  0.7626E+01  0.4809E+02
     -5.397  0.1032E+02  0.4911E+02
     -5.290  0.8032E+01  0.5009E+02
     -5.182  0.5740E+01  0.5083E+02
     -5.075  0.3449E+01  0.5133E+02
     -4.967  0.2617E+01  0.5163E+02
     -4.859  0.3291E+01  0.5194E+02
     -4.752  0.4595E+01  0.5236E+02
     -4.644  0.5934E+01  0.5293E+02
     -4.537  0.7695E+01  0.5365E+02
     -4.429  0.7810E+01  0.5451E+02
     -4.322  0.6578E+01  0.5529E+02
     -4.214  0.5643E+01  0.5593E+02
     -4.106  0.7718E+01  0.5661E+02
     -3.999  0.7200E+01  0.5741E+02
     -3.891  0.6681E+01  0.5816E+02
     -3.784  0.6595E+01  0.5886E+02
     -3.676  0.6405E+01  0.5956E+02
     -3.568  0.8370E+01  0.6032E+02
     -3.461  0.1001E+02  0.6157E+02
     -3.353  0.8686E+01  0.6251E+02
     -3.246  0.7801E+01  0.6340E+02
     -3.138  0.7060E+01  0.6421E+02
     -3.031  0.6911E+01  0.6494E+02
     -2.923  0.7794E+01  0.6573E+02
     -2.815  0.8911E+01  0.6663E+02
     -2.708  0.1138E+02  0.6768E+02
     -2.600  0.1412E+02  0.6911E+02
     -2.493  0.1152E+02  0.7057E+02
     -2.385  0.1257E+02  0.7182E+02
     -2.277  0.1236E+02  0.7315E+02
     -2.170  0.1509E+02  0.7454E+02
     -2.062  0.1278E+02  0.7610E+02
     -1.955  0.1935E+02  0.7764E+02
     -1.847  0.1115E+02  0.7933E+02
     -1.739  0.1722E+02  0.8061E+02
     -1.632  0.1700E+02  0.8271E+02
     -1.524  0.1860E+02  0.8467E+02
     -1.417  0.1448E+02  0.8644E+02
     -1.309  0.1192E+02  0.8786E+02
     -1.202  0.1072E+02  0.8905E+02
     -1.094  0.8895E+01  0.9012E+02
     -0.986  0.7681E+01  0.9100E+02
     -0.879  0.1120E+02  0.9201E+02
     -0.771  0.1342E+02  0.9339E+02
     -0.664  0.1727E+02  0.9491E+02
     -0.556  0.8721E+01  0.9626E+02
     -0.448  0.9931E+01  0.9726E+02
     -0.341  0.1085E+02  0.9837E+02
     -0.233  0.1055E+02  0.9949E+02
     -0.126  0.1095E+02  0.1007E+03
     -0.018  0.9482E+01  0.1017E+03
      0.089  0.9392E+01  0.1027E+03
      0.197  0.1011E+02  0.1038E+03
      0.305  0.9778E+01  0.1049E+03
      0.412  0.9318E+01  0.1059E+03
      0.520  0.9248E+01  0.1069E+03
      0.627  0.9431E+01  0.1079E+03
      0.735  0.9376E+01  0.1089E+03
      0.843  0.9254E+01  0.1099E+03
      0.950  0.9359E+01  0.1109E+03
      1.058  0.9149E+01  0.1119E+03
      1.165  0.9518E+01  0.1129E+03
      1.273  0.9494E+01  0.1139E+03
      1.381  0.9651E+01  0.1150E+03
      1.488  0.9846E+01  0.1160E+03
      1.596  0.7290E+01  0.1170E+03
      1.703  0.6557E+01  0.1177E+03
      1.811  0.6275E+01  0.1184E+03
      1.918  0.4925E+01  0.1190E+03
      2.026  0.3794E+01  0.1194E+03
      2.134  0.4332E+01  0.1198E+03
      2.241  0.7092E+01  0.1204E+03
      2.349  0.8513E+01  0.1213E+03
      2.456  0.5531E+01  0.1222E+03
      2.564  0.8632E+01  0.1229E+03
      2.672  0.7028E+01  0.1238E+03
      2.779  0.5339E+01  0.1244E+03
      2.887  0.4454E+01  0.1249E+03
      2.994  0.3786E+01  0.1254E+03
      3.102  0.3308E+01  0.1258E+03
      3.209  0.3159E+01  0.1261E+03
      3.317  0.2854E+01  0.1264E+03
      3.425  0.2467E+01  0.1267E+03
      3.532  0.2089E+01  0.1270E+03
      3.640  0.1848E+01  0.1272E+03
      3.747  0.1612E+01  0.1274E+03
      3.855  0.1373E+01  0.1275E+03
      3.963  0.1140E+01  0.1277E+03
      4.070  0.9371E+00  0.1278E+03
      4.178  0.7332E+00  0.1279E+03
      4.285  0.5290E+00  0.1279E+03
      4.393  0.3378E+00  0.1280E+03
      4.501  0.1573E+00  0.1280E+03
      4.608  0.2954E-03  0.1280E+03
      4.716  0.1164E+00  0.1280E+03
      4.823  0.2498E+00  0.1280E+03
      4.931  0.3957E+00  0.1281E+03
      5.038  0.5577E+00  0.1281E+03
      5.146  0.7394E+00  0.1282E+03
      5.254  0.9541E+00  0.1283E+03
      5.361  0.1304E+01  0.1284E+03
      5.469  0.1676E+01  0.1286E+03
      5.576  0.2014E+01  0.1288E+03
      5.684  0.2376E+01  0.1290E+03
      5.792  0.3027E+01  0.1293E+03
      5.899  0.3246E+01  0.1296E+03
      6.007  0.4219E+01  0.1300E+03
      6.114  0.6397E+01  0.1306E+03
      6.222  0.8052E+01  0.1316E+03
      6.329  0.8321E+01  0.1325E+03
      6.437  0.7715E+01  0.1334E+03
      6.545  0.8450E+01  0.1343E+03
      6.652  0.6477E+01  0.1350E+03
      6.760  0.6030E+01  0.1357E+03
      6.867  0.5884E+01  0.1363E+03
      6.975  0.5053E+01  0.1369E+03
      7.083  0.4514E+01  0.1374E+03
      7.190  0.3724E+01  0.1379E+03
      7.298  0.3538E+01  0.1383E+03
      7.405  0.3762E+01  0.1387E+03
      7.513  0.4266E+01  0.1391E+03
      7.621  0.4582E+01  0.1396E+03
      7.728  0.4766E+01  0.1401E+03
      7.836  0.4595E+01  0.1406E+03
      7.943  0.4438E+01  0.1411E+03
      8.051  0.4278E+01  0.1415E+03
      8.158  0.4109E+01  0.1420E+03
      8.266  0.3918E+01  0.1424E+03
      8.374  0.3773E+01  0.1428E+03
      8.481  0.3639E+01  0.1432E+03
      8.589  0.3549E+01  0.1436E+03
      8.696  0.3480E+01  0.1440E+03
      8.804  0.3366E+01  0.1444E+03
      8.912  0.3388E+01  0.1447E+03
      9.019  0.3621E+01  0.1451E+03
      9.127  0.3803E+01  0.1455E+03
      9.234  0.4030E+01  0.1459E+03
      9.342  0.4099E+01  0.1464E+03
      9.449  0.4102E+01  0.1468E+03
      9.557  0.3975E+01  0.1472E+03
      9.665  0.3939E+01  0.1477E+03
      9.772  0.3928E+01  0.1481E+03
      9.880  0.3934E+01  0.1485E+03
      9.987  0.3940E+01  0.1489E+03
     10.095  0.3979E+01  0.1494E+03
     10.203  0.4036E+01  0.1498E+03
     10.310  0.4127E+01  0.1502E+03
     10.418  0.4250E+01  0.1507E+03
     10.525  0.4851E+01  0.1511E+03
     10.633  0.5709E+01  0.1517E+03
     10.740  0.5469E+01  0.1523E+03
     10.848  0.4686E+01  0.1529E+03
     10.956  0.4644E+01  0.1534E+03
     11.063  0.6537E+01  0.1539E+03
     11.171  0.3755E+01  0.1543E+03
     11.278  0.3513E+01  0.1547E+03
     11.386  0.3749E+01  0.1551E+03
     11.494  0.4104E+01  0.1555E+03
     11.601  0.2418E+01  0.1559E+03
     11.709  0.2665E+01  0.1561E+03
     11.816  0.3621E+01  0.1565E+03
     11.924  0.6443E+01  0.1570E+03
     12.032  0.6928E+01  0.1577E+03
     12.139  0.7666E+01  0.1585E+03
     12.247  0.8409E+01  0.1594E+03
     12.354  0.8080E+01  0.1603E+03
     12.462  0.6135E+01  0.1611E+03
     12.569  0.3357E+01  0.1616E+03
     12.677  0.1334E+01  0.1618E+03
     12.785  0.7184E+00  0.1619E+03
     12.892  0.3674E+00  0.1620E+03
     13.000  0.1752E+00  0.1620E+03
     13.107  0.5339E-01  0.1620E+03
     13.215  0.2060E-02  0.1620E+03
     13.323  0.0000E+00  0.1620E+03
     13.430  0.0000E+00  0.1620E+03
     13.538  0.0000E+00  0.1620E+03
     13.645  0.0000E+00  0.1620E+03
     13.753  0.0000E+00  0.1620E+03
     13.860  0.0000E+00  0.1620E+03
     13.968  0.0000E+00  0.1620E+03
     14.076  0.0000E+00  0.1620E+03
     14.183  0.0000E+00  0.1620E+03
     14.291  0.0000E+00  0.1620E+03
     14.398  0.0000E+00  0.1620E+03
     14.506  0.0000E+00  0.1620E+03
     14.614  0.0000E+00  0.1620E+03
     14.721  0.0000E+00  0.1620E+03
     14.829  0.0000E+00  0.1620E+03
     14.936  0.0000E+00  0.1620E+03
     15.044  0.0000E+00  0.1620E+03
     15.152  0.0000E+00  0.1620E+03
     15.259  0.0000E+00  0.1620E+03
