       N       E                     dE             d eps       ncg     rms          rms(c)
DAV:   1     0.628074326919E+03    0.62807E+03   -0.71689E+04 26424   0.165E+03
DAV:   2    -0.257485026337E+03   -0.88556E+03   -0.84417E+03 32922   0.324E+02
DAV:   3    -0.312474673985E+03   -0.54990E+02   -0.54347E+02 31302   0.817E+01
DAV:   4    -0.313694718955E+03   -0.12200E+01   -0.12170E+01 32751   0.130E+01
DAV:   5    -0.313736068814E+03   -0.41350E-01   -0.41334E-01 33588   0.218E+00    0.221E+01
DAV:   6    -0.299249091659E+03    0.14487E+02   -0.15050E+01 29331   0.111E+01    0.116E+01
DAV:   7    -0.294651835369E+03    0.45973E+01   -0.15822E+01 28962   0.114E+01    0.194E+00
DAV:   8    -0.294713461720E+03   -0.61626E-01   -0.35343E-01 29556   0.186E+00    0.292E-01
DAV:   9    -0.294715040695E+03   -0.15790E-02   -0.18352E-02 31086   0.463E-01    0.128E-01
DAV:  10    -0.294715621667E+03   -0.58097E-03   -0.25412E-03 31770   0.184E-01    0.975E-02
DAV:  11    -0.294716307625E+03   -0.68596E-03   -0.23148E-03 29556   0.153E-01    0.824E-02
DAV:  12    -0.294716332526E+03   -0.24901E-04   -0.12549E-03 29547   0.104E-01    0.435E-02
DAV:  13    -0.294716402962E+03   -0.70436E-04   -0.40344E-04 30582   0.642E-02    0.341E-02
DAV:  14    -0.294716419707E+03   -0.16744E-04   -0.48697E-04 30474   0.552E-02    0.263E-02
DAV:  15    -0.294716400121E+03    0.19585E-04   -0.30568E-05 29655   0.254E-02    0.131E-02
DAV:  16    -0.294716401126E+03   -0.10043E-05   -0.55014E-06 28062   0.829E-03    0.127E-02
DAV:  17    -0.294716414504E+03   -0.13378E-04   -0.20666E-04 26118   0.227E-02    0.253E-02
DAV:  18    -0.294716400251E+03    0.14253E-04   -0.20590E-05 22491   0.137E-02    0.150E-02
DAV:  19    -0.294716399288E+03    0.96296E-06   -0.24744E-06 17757   0.351E-03
   1 F= -.29967067E+03 E0= -.29967067E+03  d E =0.000000E+00
