   2   2   0   0
  0.6458258E+01  0.2633622E-09  0.2633622E-09  0.2633622E-09  0.5000000E-15
  1.000000000000000E-004
  CAR 
 graphite                                
     24.87706490    -13.84656792  301      7.97177895      1.00000000
    -13.847  0.0000E+00  0.0000E+00
    -13.717  0.0000E+00  0.0000E+00
    -13.588  0.0000E+00  0.0000E+00
    -13.459  0.0000E+00  0.0000E+00
    -13.330  0.0000E+00  0.0000E+00
    -13.201  0.0000E+00  0.0000E+00
    -13.072  0.0000E+00  0.0000E+00
    -12.943  0.0000E+00  0.0000E+00
    -12.814  0.0000E+00  0.0000E+00
    -12.685  0.0000E+00  0.0000E+00
    -12.556  0.0000E+00  0.0000E+00
    -12.427  0.0000E+00  0.0000E+00
    -12.298  0.0000E+00  0.0000E+00
    -12.169  0.0000E+00  0.0000E+00
    -12.039  0.0000E+00  0.0000E+00
    -11.910  0.0000E+00  0.0000E+00
    -11.781  0.2541E-04  0.5528E-06
    -11.652  0.2136E-03  0.1450E-04
    -11.523  0.3300E-03  0.5035E-04
    -11.394  0.3859E-03  0.9634E-04
    -11.265  0.4579E-03  0.1509E-03
    -11.136  0.5125E-03  0.2139E-03
    -11.007  0.5575E-03  0.2828E-03
    -10.878  0.6122E-03  0.3582E-03
    -10.749  0.6711E-03  0.4410E-03
    -10.620  0.7088E-03  0.5300E-03
    -10.491  0.7479E-03  0.6240E-03
    -10.361  0.7804E-03  0.7228E-03
    -10.232  0.8135E-03  0.8256E-03
    -10.103  0.8518E-03  0.9330E-03
     -9.974  0.8902E-03  0.1045E-02
     -9.845  0.9258E-03  0.1163E-02
     -9.716  0.9606E-03  0.1284E-02
     -9.587  0.9992E-03  0.1411E-02
     -9.458  0.1039E-02  0.1542E-02
     -9.329  0.1069E-02  0.1679E-02
     -9.200  0.1099E-02  0.1819E-02
     -9.071  0.1130E-02  0.1962E-02
     -8.942  0.1161E-02  0.2110E-02
     -8.812  0.1193E-02  0.2262E-02
     -8.683  0.1226E-02  0.2418E-02
     -8.554  0.1261E-02  0.2579E-02
     -8.425  0.1297E-02  0.2744E-02
     -8.296  0.1335E-02  0.2914E-02
     -8.167  0.1375E-02  0.3089E-02
     -8.038  0.1415E-02  0.3269E-02
     -7.909  0.1457E-02  0.3454E-02
     -7.780  0.1503E-02  0.3645E-02
     -7.651  0.1552E-02  0.3842E-02
     -7.522  0.1609E-02  0.4046E-02
     -7.393  0.1676E-02  0.4258E-02
     -7.264  0.1754E-02  0.4479E-02
     -7.134  0.1872E-02  0.4713E-02
     -7.005  0.2024E-02  0.4964E-02
     -6.876  0.2197E-02  0.5236E-02
     -6.747  0.2294E-02  0.5537E-02
     -6.618  0.2130E-02  0.5820E-02
     -6.489  0.2083E-02  0.6092E-02
     -6.360  0.2054E-02  0.6358E-02
     -6.231  0.2035E-02  0.6623E-02
     -6.102  0.1960E-02  0.6881E-02
     -5.973  0.1880E-02  0.7129E-02
     -5.844  0.1843E-02  0.7368E-02
     -5.715  0.1824E-02  0.7606E-02
     -5.586  0.1743E-02  0.7836E-02
     -5.456  0.1659E-02  0.8056E-02
     -5.327  0.1605E-02  0.8266E-02
     -5.198  0.1579E-02  0.8471E-02
     -5.069  0.1578E-02  0.8675E-02
     -4.940  0.1581E-02  0.8879E-02
     -4.811  0.1562E-02  0.9082E-02
     -4.682  0.1539E-02  0.9282E-02
     -4.553  0.1406E-02  0.9473E-02
     -4.424  0.1213E-02  0.9643E-02
     -4.295  0.1012E-02  0.9785E-02
     -4.166  0.5253E-03  0.9887E-02
     -4.037  0.2903E-03  0.9936E-02
     -3.908  0.2192E-03  0.9968E-02
     -3.778  0.2617E-03  0.9998E-02
     -3.649  0.4285E-03  0.1004E-01
     -3.520  0.6248E-03  0.1011E-01
     -3.391  0.9147E-03  0.1021E-01
     -3.262  0.1161E-02  0.1034E-01
     -3.133  0.1567E-02  0.1051E-01
     -3.004  0.2302E-02  0.1076E-01
     -2.875  0.3001E-02  0.1111E-01
     -2.746  0.3719E-02  0.1154E-01
     -2.617  0.4415E-02  0.1207E-01
     -2.488  0.4103E-02  0.1263E-01
     -2.359  0.3411E-02  0.1311E-01
     -2.229  0.2850E-02  0.1351E-01
     -2.100  0.2533E-02  0.1386E-01
     -1.971  0.2267E-02  0.1417E-01
     -1.842  0.2067E-02  0.1445E-01
     -1.713  0.1913E-02  0.1470E-01
     -1.584  0.1783E-02  0.1494E-01
     -1.455  0.1674E-02  0.1516E-01
     -1.326  0.1604E-02  0.1538E-01
     -1.197  0.1548E-02  0.1558E-01
     -1.068  0.1499E-02  0.1578E-01
     -0.939  0.1446E-02  0.1597E-01
     -0.810  0.1381E-02  0.1615E-01
     -0.681  0.1304E-02  0.1632E-01
     -0.551  0.1224E-02  0.1648E-01
     -0.422  0.1158E-02  0.1664E-01
     -0.293  0.1110E-02  0.1678E-01
     -0.164  0.1098E-02  0.1693E-01
     -0.035  0.1317E-02  0.1708E-01
      0.094  0.1815E-02  0.1728E-01
      0.223  0.2368E-02  0.1754E-01
      0.352  0.3019E-02  0.1789E-01
      0.481  0.3364E-02  0.1831E-01
      0.610  0.3226E-02  0.1874E-01
      0.739  0.3066E-02  0.1914E-01
      0.868  0.3029E-02  0.1953E-01
      0.997  0.2968E-02  0.1992E-01
      1.127  0.2954E-02  0.2030E-01
      1.256  0.2922E-02  0.2068E-01
      1.385  0.2930E-02  0.2106E-01
      1.514  0.2995E-02  0.2144E-01
      1.643  0.3054E-02  0.2183E-01
      1.772  0.3199E-02  0.2223E-01
      1.901  0.3407E-02  0.2266E-01
      2.030  0.3572E-02  0.2311E-01
      2.159  0.3669E-02  0.2357E-01
      2.288  0.3894E-02  0.2406E-01
      2.417  0.4270E-02  0.2459E-01
      2.546  0.4599E-02  0.2516E-01
      2.676  0.4543E-02  0.2576E-01
      2.805  0.4433E-02  0.2633E-01
      2.934  0.4400E-02  0.2690E-01
      3.063  0.4378E-02  0.2747E-01
      3.192  0.4328E-02  0.2803E-01
      3.321  0.4284E-02  0.2859E-01
      3.450  0.4234E-02  0.2914E-01
      3.579  0.4161E-02  0.2968E-01
      3.708  0.4097E-02  0.3021E-01
      3.837  0.4071E-02  0.3074E-01
      3.966  0.4058E-02  0.3126E-01
      4.095  0.4038E-02  0.3179E-01
      4.224  0.4000E-02  0.3231E-01
      4.354  0.3965E-02  0.3282E-01
      4.483  0.3929E-02  0.3333E-01
      4.612  0.3897E-02  0.3383E-01
      4.741  0.3859E-02  0.3433E-01
      4.870  0.3833E-02  0.3483E-01
      4.999  0.3788E-02  0.3532E-01
      5.128  0.3724E-02  0.3581E-01
      5.257  0.3736E-02  0.3629E-01
      5.386  0.3382E-02  0.3674E-01
      5.515  0.2864E-02  0.3715E-01
      5.644  0.2495E-02  0.3749E-01
      5.773  0.2221E-02  0.3780E-01
      5.902  0.1998E-02  0.3807E-01
      6.032  0.1856E-02  0.3832E-01
      6.161  0.1714E-02  0.3855E-01
      6.290  0.1560E-02  0.3876E-01
      6.419  0.1393E-02  0.3895E-01
      6.548  0.1255E-02  0.3912E-01
      6.677  0.1133E-02  0.3927E-01
      6.806  0.1013E-02  0.3941E-01
      6.935  0.8968E-03  0.3953E-01
      7.064  0.7948E-03  0.3964E-01
      7.193  0.7078E-03  0.3974E-01
      7.322  0.6053E-03  0.3983E-01
      7.451  0.5157E-03  0.3990E-01
      7.581  0.3371E-03  0.3995E-01
      7.710  0.1534E-03  0.3999E-01
      7.839  0.3708E-04  0.4000E-01
      7.968  0.0000E+00  0.4000E-01
      8.097  0.0000E+00  0.4000E-01
      8.226  0.0000E+00  0.4000E-01
      8.355  0.0000E+00  0.4000E-01
      8.484  0.0000E+00  0.4000E-01
      8.613  0.0000E+00  0.4000E-01
      8.742  0.0000E+00  0.4000E-01
      8.871  0.0000E+00  0.4000E-01
      9.000  0.0000E+00  0.4000E-01
      9.129  0.0000E+00  0.4000E-01
      9.259  0.0000E+00  0.4000E-01
      9.388  0.0000E+00  0.4000E-01
      9.517  0.0000E+00  0.4000E-01
      9.646  0.0000E+00  0.4000E-01
      9.775  0.0000E+00  0.4000E-01
      9.904  0.0000E+00  0.4000E-01
     10.033  0.0000E+00  0.4000E-01
     10.162  0.0000E+00  0.4000E-01
     10.291  0.0000E+00  0.4000E-01
     10.420  0.0000E+00  0.4000E-01
     10.549  0.0000E+00  0.4000E-01
     10.678  0.0000E+00  0.4000E-01
     10.807  0.0000E+00  0.4000E-01
     10.937  0.0000E+00  0.4000E-01
     11.066  0.0000E+00  0.4000E-01
     11.195  0.0000E+00  0.4000E-01
     11.324  0.0000E+00  0.4000E-01
     11.453  0.0000E+00  0.4000E-01
     11.582  0.0000E+00  0.4000E-01
     11.711  0.0000E+00  0.4000E-01
     11.840  0.2140E-06  0.4000E-01
     11.969  0.4324E-04  0.4000E-01
     12.098  0.2390E-03  0.4002E-01
     12.227  0.4855E-03  0.4007E-01
     12.356  0.7416E-03  0.4014E-01
     12.486  0.9759E-03  0.4026E-01
     12.615  0.1149E-02  0.4039E-01
     12.744  0.1309E-02  0.4055E-01
     12.873  0.1507E-02  0.4073E-01
     13.002  0.1712E-02  0.4094E-01
     13.131  0.1924E-02  0.4117E-01
     13.260  0.2221E-02  0.4144E-01
     13.389  0.2487E-02  0.4175E-01
     13.518  0.2611E-02  0.4208E-01
     13.647  0.2712E-02  0.4242E-01
     13.776  0.2872E-02  0.4278E-01
     13.905  0.3013E-02  0.4316E-01
     14.034  0.3160E-02  0.4356E-01
     14.164  0.3275E-02  0.4398E-01
     14.293  0.3435E-02  0.4441E-01
     14.422  0.3610E-02  0.4486E-01
     14.551  0.3821E-02  0.4534E-01
     14.680  0.4092E-02  0.4585E-01
     14.809  0.4541E-02  0.4641E-01
     14.938  0.5277E-02  0.4703E-01
     15.067  0.6282E-02  0.4778E-01
     15.196  0.7759E-02  0.4869E-01
     15.325  0.7734E-02  0.4971E-01
     15.454  0.5747E-02  0.5059E-01
     15.583  0.4492E-02  0.5124E-01
     15.712  0.4243E-02  0.5179E-01
     15.842  0.4532E-02  0.5235E-01
     15.971  0.5398E-02  0.5299E-01
     16.100  0.5069E-02  0.5368E-01
     16.229  0.4840E-02  0.5433E-01
     16.358  0.4866E-02  0.5495E-01
     16.487  0.5102E-02  0.5559E-01
     16.616  0.5452E-02  0.5627E-01
     16.745  0.5781E-02  0.5700E-01
     16.874  0.5561E-02  0.5774E-01
     17.003  0.5237E-02  0.5842E-01
     17.132  0.5228E-02  0.5910E-01
     17.261  0.4987E-02  0.5976E-01
     17.390  0.4591E-02  0.6038E-01
     17.520  0.4081E-02  0.6094E-01
     17.649  0.3686E-02  0.6144E-01
     17.778  0.3703E-02  0.6191E-01
     17.907  0.3963E-02  0.6241E-01
     18.036  0.3489E-02  0.6291E-01
     18.165  0.3057E-02  0.6334E-01
     18.294  0.2723E-02  0.6371E-01
     18.423  0.2621E-02  0.6405E-01
     18.552  0.3059E-02  0.6441E-01
     18.681  0.3543E-02  0.6484E-01
     18.810  0.4474E-02  0.6534E-01
     18.939  0.4986E-02  0.6596E-01
     19.069  0.5036E-02  0.6661E-01
     19.198  0.5262E-02  0.6727E-01
     19.327  0.5741E-02  0.6797E-01
     19.456  0.5281E-02  0.6868E-01
     19.585  0.4777E-02  0.6933E-01
     19.714  0.4404E-02  0.6992E-01
     19.843  0.4244E-02  0.7048E-01
     19.972  0.4009E-02  0.7101E-01
     20.101  0.3833E-02  0.7151E-01
     20.230  0.3738E-02  0.7200E-01
     20.359  0.3903E-02  0.7249E-01
     20.488  0.4367E-02  0.7302E-01
     20.617  0.5050E-02  0.7363E-01
     20.747  0.5909E-02  0.7434E-01
     20.876  0.6266E-02  0.7513E-01
     21.005  0.5643E-02  0.7590E-01
     21.134  0.4720E-02  0.7657E-01
     21.263  0.3996E-02  0.7713E-01
     21.392  0.3546E-02  0.7762E-01
     21.521  0.3098E-02  0.7805E-01
     21.650  0.2704E-02  0.7842E-01
     21.779  0.2419E-02  0.7875E-01
     21.908  0.2245E-02  0.7905E-01
     22.037  0.2077E-02  0.7933E-01
     22.166  0.1786E-02  0.7958E-01
     22.295  0.1145E-02  0.7977E-01
     22.425  0.7128E-03  0.7989E-01
     22.554  0.3693E-03  0.7996E-01
     22.683  0.1333E-03  0.7999E-01
     22.812  0.1503E-04  0.8000E-01
     22.941  0.0000E+00  0.8000E-01
     23.070  0.0000E+00  0.8000E-01
     23.199  0.0000E+00  0.8000E-01
     23.328  0.0000E+00  0.8000E-01
     23.457  0.0000E+00  0.8000E-01
     23.586  0.0000E+00  0.8000E-01
     23.715  0.0000E+00  0.8000E-01
     23.844  0.0000E+00  0.8000E-01
     23.974  0.0000E+00  0.8000E-01
     24.103  0.0000E+00  0.8000E-01
     24.232  0.0000E+00  0.8000E-01
     24.361  0.0000E+00  0.8000E-01
     24.490  0.0000E+00  0.8000E-01
     24.619  0.0000E+00  0.8000E-01
     24.748  0.0000E+00  0.8000E-01
     24.877  0.0000E+00  0.8000E-01
