  80  80   0   0
  0.1039724E+02  0.1193753E-08  0.8349915E-09  0.8344716E-09  0.5000000E-15
  1.000000000000000E-004
  CAR 
 diamond                                 
      8.38272586    -16.85773104  301     -6.46707628      1.00000000
    -16.858  0.0000E+00  0.0000E+00
    -16.774  0.0000E+00  0.0000E+00
    -16.689  0.0000E+00  0.0000E+00
    -16.605  0.0000E+00  0.0000E+00
    -16.521  0.0000E+00  0.0000E+00
    -16.437  0.0000E+00  0.0000E+00
    -16.353  0.0000E+00  0.0000E+00
    -16.269  0.0000E+00  0.0000E+00
    -16.185  0.0000E+00  0.0000E+00
    -16.101  0.0000E+00  0.0000E+00
    -16.016  0.0000E+00  0.0000E+00
    -15.932  0.0000E+00  0.0000E+00
    -15.848  0.0000E+00  0.0000E+00
    -15.764  0.0000E+00  0.0000E+00
    -15.680  0.0000E+00  0.0000E+00
    -15.596  0.0000E+00  0.0000E+00
    -15.512  0.0000E+00  0.0000E+00
    -15.427  0.0000E+00  0.0000E+00
    -15.343  0.0000E+00  0.0000E+00
    -15.259  0.0000E+00  0.0000E+00
    -15.175  0.0000E+00  0.0000E+00
    -15.091  0.0000E+00  0.0000E+00
    -15.007  0.0000E+00  0.0000E+00
    -14.923  0.0000E+00  0.0000E+00
    -14.838  0.1779E-01  0.1170E-03
    -14.754  0.1128E+00  0.5871E-02
    -14.670  0.1276E+00  0.2000E-01
    -14.586  0.2184E+00  0.4085E-01
    -14.502  0.6943E+00  0.8594E-01
    -14.418  0.6173E+00  0.1520E+00
    -14.334  0.0000E+00  0.1600E+00
    -14.250  0.0000E+00  0.1600E+00
    -14.165  0.0000E+00  0.1600E+00
    -14.081  0.0000E+00  0.1600E+00
    -13.997  0.0000E+00  0.1600E+00
    -13.913  0.0000E+00  0.1600E+00
    -13.829  0.0000E+00  0.1600E+00
    -13.745  0.0000E+00  0.1600E+00
    -13.661  0.0000E+00  0.1600E+00
    -13.576  0.0000E+00  0.1600E+00
    -13.492  0.0000E+00  0.1600E+00
    -13.408  0.0000E+00  0.1600E+00
    -13.324  0.0000E+00  0.1600E+00
    -13.240  0.0000E+00  0.1600E+00
    -13.156  0.0000E+00  0.1600E+00
    -13.072  0.0000E+00  0.1600E+00
    -12.988  0.0000E+00  0.1600E+00
    -12.903  0.0000E+00  0.1600E+00
    -12.819  0.0000E+00  0.1600E+00
    -12.735  0.0000E+00  0.1600E+00
    -12.651  0.0000E+00  0.1600E+00
    -12.567  0.0000E+00  0.1600E+00
    -12.483  0.0000E+00  0.1600E+00
    -12.399  0.0000E+00  0.1600E+00
    -12.314  0.0000E+00  0.1600E+00
    -12.230  0.0000E+00  0.1600E+00
    -12.146  0.0000E+00  0.1600E+00
    -12.062  0.0000E+00  0.1600E+00
    -11.978  0.0000E+00  0.1600E+00
    -11.894  0.0000E+00  0.1600E+00
    -11.810  0.0000E+00  0.1600E+00
    -11.726  0.0000E+00  0.1600E+00
    -11.641  0.0000E+00  0.1600E+00
    -11.557  0.0000E+00  0.1600E+00
    -11.473  0.0000E+00  0.1600E+00
    -11.389  0.0000E+00  0.1600E+00
    -11.305  0.0000E+00  0.1600E+00
    -11.221  0.0000E+00  0.1600E+00
    -11.137  0.0000E+00  0.1600E+00
    -11.052  0.0000E+00  0.1600E+00
    -10.968  0.0000E+00  0.1600E+00
    -10.884  0.0000E+00  0.1600E+00
    -10.800  0.0000E+00  0.1600E+00
    -10.716  0.0000E+00  0.1600E+00
    -10.632  0.0000E+00  0.1600E+00
    -10.548  0.0000E+00  0.1600E+00
    -10.463  0.0000E+00  0.1600E+00
    -10.379  0.0000E+00  0.1600E+00
    -10.295  0.0000E+00  0.1600E+00
    -10.211  0.0000E+00  0.1600E+00
    -10.127  0.0000E+00  0.1600E+00
    -10.043  0.0000E+00  0.1600E+00
     -9.959  0.0000E+00  0.1600E+00
     -9.875  0.0000E+00  0.1600E+00
     -9.790  0.0000E+00  0.1600E+00
     -9.706  0.0000E+00  0.1600E+00
     -9.622  0.0000E+00  0.1600E+00
     -9.538  0.0000E+00  0.1600E+00
     -9.454  0.0000E+00  0.1600E+00
     -9.370  0.0000E+00  0.1600E+00
     -9.286  0.0000E+00  0.1600E+00
     -9.201  0.0000E+00  0.1600E+00
     -9.117  0.0000E+00  0.1600E+00
     -9.033  0.0000E+00  0.1600E+00
     -8.949  0.0000E+00  0.1600E+00
     -8.865  0.0000E+00  0.1600E+00
     -8.781  0.0000E+00  0.1600E+00
     -8.697  0.0000E+00  0.1600E+00
     -8.613  0.0000E+00  0.1600E+00
     -8.528  0.0000E+00  0.1600E+00
     -8.444  0.0000E+00  0.1600E+00
     -8.360  0.0000E+00  0.1600E+00
     -8.276  0.0000E+00  0.1600E+00
     -8.192  0.0000E+00  0.1600E+00
     -8.108  0.0000E+00  0.1600E+00
     -8.024  0.0000E+00  0.1600E+00
     -7.939  0.0000E+00  0.1600E+00
     -7.855  0.0000E+00  0.1600E+00
     -7.771  0.0000E+00  0.1600E+00
     -7.687  0.0000E+00  0.1600E+00
     -7.603  0.4622E-01  0.1606E+00
     -7.519  0.2494E+00  0.1754E+00
     -7.435  0.4119E+00  0.2044E+00
     -7.350  0.4781E+00  0.2425E+00
     -7.266  0.3821E+00  0.2705E+00
     -7.182  0.3144E+00  0.2935E+00
     -7.098  0.1684E+00  0.3130E+00
     -7.014  0.3153E+00  0.3337E+00
     -6.930  0.3059E+00  0.3608E+00
     -6.846  0.3897E+00  0.3892E+00
     -6.762  0.6723E+00  0.4477E+00
     -6.677  0.1048E+01  0.5154E+00
     -6.593  0.7703E+00  0.5904E+00
     -6.509  0.2439E+00  0.6377E+00
     -6.425  0.0000E+00  0.6400E+00
     -6.341  0.0000E+00  0.6400E+00
     -6.257  0.0000E+00  0.6400E+00
     -6.173  0.0000E+00  0.6400E+00
     -6.088  0.0000E+00  0.6400E+00
     -6.004  0.0000E+00  0.6400E+00
     -5.920  0.0000E+00  0.6400E+00
     -5.836  0.0000E+00  0.6400E+00
     -5.752  0.0000E+00  0.6400E+00
     -5.668  0.0000E+00  0.6400E+00
     -5.584  0.0000E+00  0.6400E+00
     -5.500  0.0000E+00  0.6400E+00
     -5.415  0.0000E+00  0.6400E+00
     -5.331  0.0000E+00  0.6400E+00
     -5.247  0.0000E+00  0.6400E+00
     -5.163  0.0000E+00  0.6400E+00
     -5.079  0.0000E+00  0.6400E+00
     -4.995  0.0000E+00  0.6400E+00
     -4.911  0.0000E+00  0.6400E+00
     -4.826  0.0000E+00  0.6400E+00
     -4.742  0.0000E+00  0.6400E+00
     -4.658  0.0000E+00  0.6400E+00
     -4.574  0.0000E+00  0.6400E+00
     -4.490  0.0000E+00  0.6400E+00
     -4.406  0.0000E+00  0.6400E+00
     -4.322  0.0000E+00  0.6400E+00
     -4.238  0.0000E+00  0.6400E+00
     -4.153  0.0000E+00  0.6400E+00
     -4.069  0.0000E+00  0.6400E+00
     -3.985  0.0000E+00  0.6400E+00
     -3.901  0.0000E+00  0.6400E+00
     -3.817  0.0000E+00  0.6400E+00
     -3.733  0.0000E+00  0.6400E+00
     -3.649  0.0000E+00  0.6400E+00
     -3.564  0.0000E+00  0.6400E+00
     -3.480  0.0000E+00  0.6400E+00
     -3.396  0.0000E+00  0.6400E+00
     -3.312  0.0000E+00  0.6400E+00
     -3.228  0.0000E+00  0.6400E+00
     -3.144  0.0000E+00  0.6400E+00
     -3.060  0.0000E+00  0.6400E+00
     -2.975  0.0000E+00  0.6400E+00
     -2.891  0.0000E+00  0.6400E+00
     -2.807  0.0000E+00  0.6400E+00
     -2.723  0.0000E+00  0.6400E+00
     -2.639  0.0000E+00  0.6400E+00
     -2.555  0.0000E+00  0.6400E+00
     -2.471  0.0000E+00  0.6400E+00
     -2.387  0.0000E+00  0.6400E+00
     -2.302  0.0000E+00  0.6400E+00
     -2.218  0.0000E+00  0.6400E+00
     -2.134  0.0000E+00  0.6400E+00
     -2.050  0.0000E+00  0.6400E+00
     -1.966  0.0000E+00  0.6400E+00
     -1.882  0.0000E+00  0.6400E+00
     -1.798  0.0000E+00  0.6400E+00
     -1.713  0.0000E+00  0.6400E+00
     -1.629  0.0000E+00  0.6400E+00
     -1.545  0.0000E+00  0.6400E+00
     -1.461  0.0000E+00  0.6400E+00
     -1.377  0.0000E+00  0.6400E+00
     -1.293  0.0000E+00  0.6400E+00
     -1.209  0.0000E+00  0.6400E+00
     -1.125  0.0000E+00  0.6400E+00
     -1.040  0.0000E+00  0.6400E+00
     -0.956  0.0000E+00  0.6400E+00
     -0.872  0.0000E+00  0.6400E+00
     -0.788  0.0000E+00  0.6400E+00
     -0.704  0.0000E+00  0.6400E+00
     -0.620  0.0000E+00  0.6400E+00
     -0.536  0.0000E+00  0.6400E+00
     -0.451  0.0000E+00  0.6400E+00
     -0.367  0.0000E+00  0.6400E+00
     -0.283  0.0000E+00  0.6400E+00
     -0.199  0.0000E+00  0.6400E+00
     -0.115  0.0000E+00  0.6400E+00
     -0.031  0.0000E+00  0.6400E+00
      0.053  0.0000E+00  0.6400E+00
      0.138  0.0000E+00  0.6400E+00
      0.222  0.0000E+00  0.6400E+00
      0.306  0.0000E+00  0.6400E+00
      0.390  0.0000E+00  0.6400E+00
      0.474  0.0000E+00  0.6400E+00
      0.558  0.0000E+00  0.6400E+00
      0.642  0.0000E+00  0.6400E+00
      0.726  0.0000E+00  0.6400E+00
      0.811  0.0000E+00  0.6400E+00
      0.895  0.0000E+00  0.6400E+00
      0.979  0.0000E+00  0.6400E+00
      1.063  0.0000E+00  0.6400E+00
      1.147  0.1538E-04  0.6400E+00
      1.231  0.1376E-02  0.6400E+00
      1.315  0.4416E-02  0.6403E+00
      1.400  0.7659E-02  0.6408E+00
      1.484  0.9103E-02  0.6415E+00
      1.568  0.1029E-01  0.6423E+00
      1.652  0.1192E-01  0.6433E+00
      1.736  0.1352E-01  0.6443E+00
      1.820  0.1593E-01  0.6456E+00
      1.904  0.1948E-01  0.6470E+00
      1.988  0.2457E-01  0.6489E+00
      2.073  0.2927E-01  0.6511E+00
      2.157  0.2970E-01  0.6537E+00
      2.241  0.2296E-01  0.6559E+00
      2.325  0.1901E-01  0.6576E+00
      2.409  0.2067E-01  0.6593E+00
      2.493  0.2435E-01  0.6612E+00
      2.577  0.3795E-01  0.6637E+00
      2.662  0.6418E-01  0.6679E+00
      2.746  0.6648E-01  0.6737E+00
      2.830  0.4277E-01  0.6784E+00
      2.914  0.3041E-01  0.6810E+00
      2.998  0.1445E+00  0.6875E+00
      3.082  0.7659E-01  0.6959E+00
      3.166  0.1053E+00  0.7034E+00
      3.250  0.1209E+00  0.7128E+00
      3.335  0.6240E-01  0.7203E+00
      3.419  0.6518E-01  0.7245E+00
      3.503  0.1029E+00  0.7331E+00
      3.587  0.6982E-01  0.7396E+00
      3.671  0.9041E-01  0.7458E+00
      3.755  0.1242E+00  0.7552E+00
      3.839  0.1228E+00  0.7653E+00
      3.924  0.1058E+00  0.7747E+00
      4.008  0.2176E+00  0.7870E+00
      4.092  0.8151E-01  0.8003E+00
      4.176  0.1163E+00  0.8075E+00
      4.260  0.1491E+00  0.8191E+00
      4.344  0.1129E+00  0.8319E+00
      4.428  0.7745E-01  0.8393E+00
      4.513  0.9232E-01  0.8461E+00
      4.597  0.1480E+00  0.8563E+00
      4.681  0.1536E+00  0.8714E+00
      4.765  0.8002E-01  0.8797E+00
      4.849  0.4408E+00  0.9031E+00
      4.933  0.3271E-01  0.9202E+00
      5.017  0.1144E+00  0.9272E+00
      5.101  0.9477E-01  0.9358E+00
      5.186  0.1192E+00  0.9453E+00
      5.270  0.8487E-01  0.9542E+00
      5.354  0.2151E+00  0.9624E+00
      5.438  0.1568E+00  0.9795E+00
      5.522  0.1273E+00  0.9920E+00
      5.606  0.1198E+00  0.9995E+00
      5.690  0.1619E+00  0.1015E+01
      5.775  0.1264E+00  0.1026E+01
      5.859  0.7181E-01  0.1035E+01
      5.943  0.1021E+00  0.1042E+01
      6.027  0.7930E-01  0.1050E+01
      6.111  0.3940E-01  0.1056E+01
      6.195  0.2426E-01  0.1058E+01
      6.279  0.7713E-02  0.1060E+01
      6.363  0.2787E-03  0.1060E+01
      6.448  0.0000E+00  0.1060E+01
      6.532  0.0000E+00  0.1060E+01
      6.616  0.0000E+00  0.1060E+01
      6.700  0.0000E+00  0.1060E+01
      6.784  0.0000E+00  0.1060E+01
      6.868  0.0000E+00  0.1060E+01
      6.952  0.0000E+00  0.1060E+01
      7.037  0.0000E+00  0.1060E+01
      7.121  0.0000E+00  0.1060E+01
      7.205  0.0000E+00  0.1060E+01
      7.289  0.0000E+00  0.1060E+01
      7.373  0.0000E+00  0.1060E+01
      7.457  0.0000E+00  0.1060E+01
      7.541  0.0000E+00  0.1060E+01
      7.626  0.0000E+00  0.1060E+01
      7.710  0.0000E+00  0.1060E+01
      7.794  0.0000E+00  0.1060E+01
      7.878  0.0000E+00  0.1060E+01
      7.962  0.0000E+00  0.1060E+01
      8.046  0.0000E+00  0.1060E+01
      8.130  0.0000E+00  0.1060E+01
      8.214  0.0000E+00  0.1060E+01
      8.299  0.0000E+00  0.1060E+01
      8.383  0.0000E+00  0.1060E+01
