  72  72   0   0
  0.1111654E+02  0.1178544E-08  0.8243535E-09  0.8238402E-09  0.5000000E-15
  1.000000000000000E-004
  CAR 
 diamond                                 
      8.14690906    -16.74224232  301     -2.09912492      1.00000000
    -16.742  0.0000E+00  0.0000E+00
    -16.659  0.0000E+00  0.0000E+00
    -16.576  0.0000E+00  0.0000E+00
    -16.493  0.0000E+00  0.0000E+00
    -16.410  0.0000E+00  0.0000E+00
    -16.327  0.0000E+00  0.0000E+00
    -16.244  0.0000E+00  0.0000E+00
    -16.161  0.0000E+00  0.0000E+00
    -16.079  0.0000E+00  0.0000E+00
    -15.996  0.0000E+00  0.0000E+00
    -15.913  0.0000E+00  0.0000E+00
    -15.830  0.0000E+00  0.0000E+00
    -15.747  0.0000E+00  0.0000E+00
    -15.664  0.0000E+00  0.0000E+00
    -15.581  0.0000E+00  0.0000E+00
    -15.498  0.0000E+00  0.0000E+00
    -15.415  0.0000E+00  0.0000E+00
    -15.332  0.0000E+00  0.0000E+00
    -15.249  0.0000E+00  0.0000E+00
    -15.166  0.0000E+00  0.0000E+00
    -15.083  0.0000E+00  0.0000E+00
    -15.000  0.0000E+00  0.0000E+00
    -14.917  0.0000E+00  0.0000E+00
    -14.834  0.0000E+00  0.0000E+00
    -14.751  0.0000E+00  0.0000E+00
    -14.668  0.9226E-01  0.3512E-02
    -14.585  0.1004E+00  0.1840E-01
    -14.502  0.2244E+00  0.4094E-01
    -14.419  0.2499E+00  0.7285E-01
    -14.336  0.0000E+00  0.8000E-01
    -14.253  0.9501E-01  0.8150E-01
    -14.170  0.5886E+00  0.1131E+00
    -14.087  0.1392E+00  0.1593E+00
    -14.004  0.0000E+00  0.1600E+00
    -13.921  0.0000E+00  0.1600E+00
    -13.839  0.0000E+00  0.1600E+00
    -13.756  0.0000E+00  0.1600E+00
    -13.673  0.0000E+00  0.1600E+00
    -13.590  0.0000E+00  0.1600E+00
    -13.507  0.0000E+00  0.1600E+00
    -13.424  0.0000E+00  0.1600E+00
    -13.341  0.0000E+00  0.1600E+00
    -13.258  0.0000E+00  0.1600E+00
    -13.175  0.0000E+00  0.1600E+00
    -13.092  0.0000E+00  0.1600E+00
    -13.009  0.0000E+00  0.1600E+00
    -12.926  0.0000E+00  0.1600E+00
    -12.843  0.0000E+00  0.1600E+00
    -12.760  0.0000E+00  0.1600E+00
    -12.677  0.0000E+00  0.1600E+00
    -12.594  0.0000E+00  0.1600E+00
    -12.511  0.0000E+00  0.1600E+00
    -12.428  0.0000E+00  0.1600E+00
    -12.345  0.0000E+00  0.1600E+00
    -12.262  0.0000E+00  0.1600E+00
    -12.179  0.0000E+00  0.1600E+00
    -12.096  0.0000E+00  0.1600E+00
    -12.013  0.0000E+00  0.1600E+00
    -11.930  0.0000E+00  0.1600E+00
    -11.847  0.0000E+00  0.1600E+00
    -11.764  0.0000E+00  0.1600E+00
    -11.681  0.0000E+00  0.1600E+00
    -11.598  0.0000E+00  0.1600E+00
    -11.516  0.0000E+00  0.1600E+00
    -11.433  0.0000E+00  0.1600E+00
    -11.350  0.0000E+00  0.1600E+00
    -11.267  0.0000E+00  0.1600E+00
    -11.184  0.0000E+00  0.1600E+00
    -11.101  0.0000E+00  0.1600E+00
    -11.018  0.0000E+00  0.1600E+00
    -10.935  0.0000E+00  0.1600E+00
    -10.852  0.0000E+00  0.1600E+00
    -10.769  0.0000E+00  0.1600E+00
    -10.686  0.0000E+00  0.1600E+00
    -10.603  0.0000E+00  0.1600E+00
    -10.520  0.0000E+00  0.1600E+00
    -10.437  0.0000E+00  0.1600E+00
    -10.354  0.0000E+00  0.1600E+00
    -10.271  0.0000E+00  0.1600E+00
    -10.188  0.0000E+00  0.1600E+00
    -10.105  0.0000E+00  0.1600E+00
    -10.022  0.0000E+00  0.1600E+00
     -9.939  0.0000E+00  0.1600E+00
     -9.856  0.0000E+00  0.1600E+00
     -9.773  0.0000E+00  0.1600E+00
     -9.690  0.0000E+00  0.1600E+00
     -9.607  0.0000E+00  0.1600E+00
     -9.524  0.0000E+00  0.1600E+00
     -9.441  0.0000E+00  0.1600E+00
     -9.358  0.0000E+00  0.1600E+00
     -9.275  0.0000E+00  0.1600E+00
     -9.193  0.0000E+00  0.1600E+00
     -9.110  0.0000E+00  0.1600E+00
     -9.027  0.0000E+00  0.1600E+00
     -8.944  0.0000E+00  0.1600E+00
     -8.861  0.0000E+00  0.1600E+00
     -8.778  0.0000E+00  0.1600E+00
     -8.695  0.0000E+00  0.1600E+00
     -8.612  0.0000E+00  0.1600E+00
     -8.529  0.0000E+00  0.1600E+00
     -8.446  0.0000E+00  0.1600E+00
     -8.363  0.0000E+00  0.1600E+00
     -8.280  0.0000E+00  0.1600E+00
     -8.197  0.1219E-02  0.1600E+00
     -8.114  0.6994E-01  0.1625E+00
     -8.031  0.2878E+00  0.1782E+00
     -7.948  0.4338E+00  0.2116E+00
     -7.865  0.3360E+00  0.2481E+00
     -7.782  0.2563E+00  0.2766E+00
     -7.699  0.1137E+00  0.2901E+00
     -7.616  0.1449E+00  0.2998E+00
     -7.533  0.2141E+00  0.3165E+00
     -7.450  0.0000E+00  0.3200E+00
     -7.367  0.0000E+00  0.3200E+00
     -7.284  0.0000E+00  0.3200E+00
     -7.201  0.2223E-01  0.3203E+00
     -7.118  0.2207E+00  0.3292E+00
     -7.035  0.3206E+00  0.3571E+00
     -6.953  0.6170E+00  0.3896E+00
     -6.870  0.5573E+00  0.4354E+00
     -6.787  0.3983E+00  0.4820E+00
     -6.704  0.3713E+00  0.5112E+00
     -6.621  0.3736E+00  0.5429E+00
     -6.538  0.6521E-01  0.5595E+00
     -6.455  0.0000E+00  0.5600E+00
     -6.372  0.0000E+00  0.5600E+00
     -6.289  0.0000E+00  0.5600E+00
     -6.206  0.0000E+00  0.5600E+00
     -6.123  0.0000E+00  0.5600E+00
     -6.040  0.0000E+00  0.5600E+00
     -5.957  0.0000E+00  0.5600E+00
     -5.874  0.0000E+00  0.5600E+00
     -5.791  0.0000E+00  0.5600E+00
     -5.708  0.0000E+00  0.5600E+00
     -5.625  0.0000E+00  0.5600E+00
     -5.542  0.0000E+00  0.5600E+00
     -5.459  0.0000E+00  0.5600E+00
     -5.376  0.0000E+00  0.5600E+00
     -5.293  0.0000E+00  0.5600E+00
     -5.210  0.0000E+00  0.5600E+00
     -5.127  0.0000E+00  0.5600E+00
     -5.044  0.0000E+00  0.5600E+00
     -4.961  0.0000E+00  0.5600E+00
     -4.878  0.0000E+00  0.5600E+00
     -4.795  0.0000E+00  0.5600E+00
     -4.712  0.0000E+00  0.5600E+00
     -4.630  0.0000E+00  0.5600E+00
     -4.547  0.0000E+00  0.5600E+00
     -4.464  0.0000E+00  0.5600E+00
     -4.381  0.0000E+00  0.5600E+00
     -4.298  0.0000E+00  0.5600E+00
     -4.215  0.0000E+00  0.5600E+00
     -4.132  0.0000E+00  0.5600E+00
     -4.049  0.0000E+00  0.5600E+00
     -3.966  0.0000E+00  0.5600E+00
     -3.883  0.0000E+00  0.5600E+00
     -3.800  0.0000E+00  0.5600E+00
     -3.717  0.0000E+00  0.5600E+00
     -3.634  0.0000E+00  0.5600E+00
     -3.551  0.0000E+00  0.5600E+00
     -3.468  0.0000E+00  0.5600E+00
     -3.385  0.0000E+00  0.5600E+00
     -3.302  0.0000E+00  0.5600E+00
     -3.219  0.0000E+00  0.5600E+00
     -3.136  0.0000E+00  0.5600E+00
     -3.053  0.0000E+00  0.5600E+00
     -2.970  0.0000E+00  0.5600E+00
     -2.887  0.0000E+00  0.5600E+00
     -2.804  0.0000E+00  0.5600E+00
     -2.721  0.0000E+00  0.5600E+00
     -2.638  0.1253E-03  0.5600E+00
     -2.555  0.2280E-01  0.5608E+00
     -2.472  0.7763E-01  0.5644E+00
     -2.389  0.1283E+00  0.5724E+00
     -2.307  0.1144E+00  0.5831E+00
     -2.224  0.9391E-01  0.5914E+00
     -2.141  0.6660E-01  0.5986E+00
     -2.058  0.1369E-03  0.6000E+00
     -1.975  0.7632E-01  0.6047E+00
     -1.892  0.7634E-01  0.6110E+00
     -1.809  0.7776E-01  0.6174E+00
     -1.726  0.1405E+00  0.6262E+00
     -1.643  0.1334E+00  0.6379E+00
     -1.560  0.0000E+00  0.6400E+00
     -1.477  0.0000E+00  0.6400E+00
     -1.394  0.0000E+00  0.6400E+00
     -1.311  0.0000E+00  0.6400E+00
     -1.228  0.0000E+00  0.6400E+00
     -1.145  0.0000E+00  0.6400E+00
     -1.062  0.0000E+00  0.6400E+00
     -0.979  0.0000E+00  0.6400E+00
     -0.896  0.0000E+00  0.6400E+00
     -0.813  0.0000E+00  0.6400E+00
     -0.730  0.0000E+00  0.6400E+00
     -0.647  0.0000E+00  0.6400E+00
     -0.564  0.0000E+00  0.6400E+00
     -0.481  0.0000E+00  0.6400E+00
     -0.398  0.0000E+00  0.6400E+00
     -0.315  0.0000E+00  0.6400E+00
     -0.232  0.0000E+00  0.6400E+00
     -0.149  0.0000E+00  0.6400E+00
     -0.067  0.0000E+00  0.6400E+00
      0.016  0.0000E+00  0.6400E+00
      0.099  0.0000E+00  0.6400E+00
      0.182  0.0000E+00  0.6400E+00
      0.265  0.0000E+00  0.6400E+00
      0.348  0.0000E+00  0.6400E+00
      0.431  0.0000E+00  0.6400E+00
      0.514  0.0000E+00  0.6400E+00
      0.597  0.0000E+00  0.6400E+00
      0.680  0.0000E+00  0.6400E+00
      0.763  0.0000E+00  0.6400E+00
      0.846  0.0000E+00  0.6400E+00
      0.929  0.0000E+00  0.6400E+00
      1.012  0.0000E+00  0.6400E+00
      1.095  0.0000E+00  0.6400E+00
      1.178  0.0000E+00  0.6400E+00
      1.261  0.0000E+00  0.6400E+00
      1.344  0.3087E-03  0.6400E+00
      1.427  0.2311E-02  0.6401E+00
      1.510  0.5341E-02  0.6404E+00
      1.593  0.8110E-02  0.6410E+00
      1.676  0.9499E-02  0.6417E+00
      1.759  0.1074E-01  0.6426E+00
      1.842  0.1234E-01  0.6435E+00
      1.925  0.1412E-01  0.6446E+00
      2.008  0.1685E-01  0.6459E+00
      2.091  0.2059E-01  0.6474E+00
      2.174  0.2681E-01  0.6494E+00
      2.256  0.3326E-01  0.6519E+00
      2.339  0.3122E-01  0.6547E+00
      2.422  0.2324E-01  0.6569E+00
      2.505  0.2088E-01  0.6587E+00
      2.588  0.2087E-01  0.6604E+00
      2.671  0.2696E-01  0.6623E+00
      2.754  0.4430E-01  0.6652E+00
      2.837  0.9261E-01  0.6707E+00
      2.920  0.8426E-01  0.6787E+00
      3.003  0.5260E-01  0.6829E+00
      3.086  0.1137E+00  0.6915E+00
      3.169  0.6498E-01  0.6985E+00
      3.252  0.8295E-01  0.7046E+00
      3.335  0.8635E-01  0.7116E+00
      3.418  0.4413E-01  0.7170E+00
      3.501  0.3584E-01  0.7201E+00
      3.584  0.6245E-01  0.7241E+00
      3.667  0.9991E-01  0.7310E+00
      3.750  0.7971E-01  0.7391E+00
      3.833  0.6958E-01  0.7450E+00
      3.916  0.9158E-01  0.7516E+00
      3.999  0.9031E-01  0.7595E+00
      4.082  0.6934E-01  0.7660E+00
      4.165  0.1847E+00  0.7750E+00
      4.248  0.1639E+00  0.7916E+00
      4.331  0.4625E-01  0.7997E+00
      4.414  0.1147E+00  0.8060E+00
      4.497  0.1367E+00  0.8183E+00
      4.579  0.1120E+00  0.8282E+00
      4.662  0.6977E-01  0.8366E+00
      4.745  0.2052E+00  0.8462E+00
      4.828  0.1796E+00  0.8620E+00
      4.911  0.1166E+00  0.8731E+00
      4.994  0.1340E+00  0.8837E+00
      5.077  0.1201E+00  0.8938E+00
      5.160  0.7523E-01  0.9017E+00
      5.243  0.1170E+00  0.9100E+00
      5.326  0.1005E+00  0.9193E+00
      5.409  0.2569E+00  0.9333E+00
      5.492  0.1148E+00  0.9472E+00
      5.575  0.1047E+00  0.9566E+00
      5.658  0.7700E-01  0.9641E+00
      5.741  0.5850E-01  0.9696E+00
      5.824  0.4280E-01  0.9739E+00
      5.907  0.3093E-01  0.9770E+00
      5.990  0.1802E-01  0.9789E+00
      6.073  0.6569E-02  0.9798E+00
      6.156  0.0000E+00  0.9800E+00
      6.239  0.0000E+00  0.9800E+00
      6.322  0.0000E+00  0.9800E+00
      6.405  0.0000E+00  0.9800E+00
      6.488  0.0000E+00  0.9800E+00
      6.571  0.0000E+00  0.9800E+00
      6.654  0.0000E+00  0.9800E+00
      6.737  0.0000E+00  0.9800E+00
      6.819  0.0000E+00  0.9800E+00
      6.902  0.0000E+00  0.9800E+00
      6.985  0.0000E+00  0.9800E+00
      7.068  0.0000E+00  0.9800E+00
      7.151  0.0000E+00  0.9800E+00
      7.234  0.0000E+00  0.9800E+00
      7.317  0.0000E+00  0.9800E+00
      7.400  0.0000E+00  0.9800E+00
      7.483  0.0000E+00  0.9800E+00
      7.566  0.0000E+00  0.9800E+00
      7.649  0.0000E+00  0.9800E+00
      7.732  0.0000E+00  0.9800E+00
      7.815  0.0000E+00  0.9800E+00
      7.898  0.0000E+00  0.9800E+00
      7.981  0.0000E+00  0.9800E+00
      8.064  0.0000E+00  0.9800E+00
      8.147  0.0000E+00  0.9800E+00
