   72   72  200    1
  0.1111654E+02  0.1178544E-08  0.8243535E-09  0.8238402E-09  0.5000000E-15
  1.000000000000000E-004
  CAR 
 diamond                                 
    120     27     98
 
  0.0000000E+00  0.0000000E+00  0.0000000E+00  0.1562500E-01
    1      -14.742242
    2      -14.623677
    3      -14.510558
    4      -14.498938
    5      -14.495543
    6      -14.492611
    7      -14.383633
    8      -14.380869
    9      -14.290692
   10      -14.218008
   11      -14.211849
   12      -14.148647
   13      -14.147897
   14      -14.141115
   15      -14.090941
   16      -14.074779
   17       -8.205545
   18       -8.096371
   19       -8.075647
   20       -8.071577
   21       -8.066261
   22       -8.035815
   23       -8.005782
   24       -7.848098
   25       -7.807683
   26       -7.796584
   27       -7.776246
   28       -7.739052
   29       -7.532386
   30       -7.525043
   31       -7.520415
   32       -7.498765
   33       -7.243338
   34       -7.241164
   35       -7.144119
   36       -7.138629
   37       -7.082989
   38       -7.039376
   39       -7.024622
   40       -6.986069
   41       -6.955287
   42       -6.948200
   43       -6.928094
   44       -6.903367
   45       -6.814869
   46       -6.804041
   47       -6.755957
   48       -6.744748
   49       -6.656269
   50       -6.647127
   51       -6.646173
   52       -6.622812
   53       -6.586280
   54       -6.585578
   55       -6.525455
   56       -6.520263
   57       -2.643590
   58       -2.474146
   59       -2.409543
   60       -2.332071
   61       -1.649507
   62       -1.627613
   63       -1.625922
   64       -1.619712
   65        1.297391
   66        2.443124
   67        2.720394
   68        2.781416
   69        2.853254
   70        3.280940
   71        3.287314
   72        3.497714
   73        3.521585
   74        3.539797
   75        3.641233
   76        3.714274
   77        3.851084
   78        3.912342
   79        4.236654
   80        4.337864
   81        4.389305
   82        4.511592
   83        4.614740
   84        4.645351
   85        4.838159
   86        4.871863
   87        4.980155
   88        5.012877
   89        5.069032
   90        5.220257
   91        5.225170
   92        5.250575
   93        5.340250
   94        5.610538
   95        5.717536
   96        5.750073
   97        5.811572
   98        6.060806
 
  0.2500000E+00  0.0000000E+00  0.0000000E+00  0.3125000E-01
    1      -14.728584
    2      -14.646543
    3      -14.508493
    4      -14.498974
    5      -14.496868
    6      -14.493498
    7      -14.383240
    8      -14.381287
    9      -14.264431
   10      -14.217126
   11      -14.212754
   12      -14.165784
   13      -14.146904
   14      -14.142104
   15      -14.088493
   16      -14.077088
   17       -8.187091
   18       -8.088979
   19       -8.087367
   20       -8.058660
   21       -8.048333
   22       -8.009633
   23       -8.001202
   24       -7.889815
   25       -7.852118
   26       -7.846913
   27       -7.770767
   28       -7.744420
   29       -7.531087
   30       -7.525987
   31       -7.517176
   32       -7.501801
   33       -7.193216
   34       -7.190972
   35       -7.143849
   36       -7.139345
   37       -7.075496
   38       -7.015933
   39       -7.014619
   40       -6.989992
   41       -6.965571
   42       -6.960255
   43       -6.953124
   44       -6.877983
   45       -6.814475
   46       -6.805500
   47       -6.790698
   48       -6.766173
   49       -6.654366
   50       -6.647319
   51       -6.643663
   52       -6.626389
   53       -6.586110
   54       -6.585607
   55       -6.524612
   56       -6.520963
   57       -2.618988
   58       -2.499203
   59       -2.398203
   60       -2.343415
   61       -1.646054
   62       -1.629380
   63       -1.626388
   64       -1.620804
   65        1.395399
   66        2.085808
   67        2.800947
   68        2.906289
   69        3.108315
   70        3.211026
   71        3.250753
   72        3.453797
   73        3.508055
   74        3.535387
   75        3.597733
   76        3.693089
   77        3.917236
   78        3.965763
   79        4.202944
   80        4.361460
   81        4.423136
   82        4.432285
   83        4.478651
   84        4.786887
   85        4.793298
   86        4.931456
   87        4.952856
   88        4.978739
   89        5.026290
   90        5.036758
   91        5.298290
   92        5.304376
   93        5.370976
   94        5.573553
   95        5.593296
   96        5.726977
   97        5.744529
   98        5.865275
 
  0.5000000E+00  0.0000000E+00  0.0000000E+00  0.1562500E-01
    1      -14.691738
    2      -14.691735
    3      -14.503485
    4      -14.503482
    5      -14.495502
    6      -14.495499
    7      -14.382246
    8      -14.382244
    9      -14.214942
   10      -14.214941
   11      -14.210972
   12      -14.210971
   13      -14.144502
   14      -14.144501
   15      -14.082728
   16      -14.082727
   17       -8.140115
   18       -8.140114
   19       -8.066424
   20       -8.066423
   21       -7.975736
   22       -7.975736
   23       -7.941198
   24       -7.941197
   25       -7.939040
   26       -7.939039
   27       -7.757550
   28       -7.757549
   29       -7.528383
   30       -7.528383
   31       -7.509402
   32       -7.509402
   33       -7.143048
   34       -7.143046
   35       -7.100094
   36       -7.100092
   37       -7.095248
   38       -7.095246
   39       -6.990217
   40       -6.990214
   41       -6.979799
   42       -6.979796
   43       -6.885244
   44       -6.885242
   45       -6.820103
   46       -6.820101
   47       -6.808726
   48       -6.808723
   49       -6.650476
   50       -6.650473
   51       -6.635060
   52       -6.635057
   53       -6.585809
   54       -6.585806
   55       -6.522753
   56       -6.522751
   57       -2.559331
   58       -2.559330
   59       -2.370810
   60       -2.370809
   61       -1.637707
   62       -1.637706
   63       -1.623534
   64       -1.623533
   65        1.674116
   66        1.674118
   67        3.019070
   68        3.019073
   69        3.047159
   70        3.047159
   71        3.403040
   72        3.403041
   73        3.498101
   74        3.498103
   75        3.622019
   76        3.622019
   77        4.072154
   78        4.072156
   79        4.121764
   80        4.121765
   81        4.467205
   82        4.467206
   83        4.694161
   84        4.694161
   85        4.779052
   86        4.779053
   87        4.902947
   88        4.902949
   89        4.982646
   90        4.982647
   91        5.447571
   92        5.447708
   93        5.481857
   94        5.482969
   95        5.556113
   96        5.556169
   97        5.785424
   98        5.794800
 
  0.0000000E+00  0.2500000E+00  0.0000000E+00  0.3125000E-01
    1      -14.711824
    2      -14.605169
    3      -14.541983
    4      -14.512527
    5      -14.493435
    6      -14.479288
    7      -14.404460
    8      -14.398250
    9      -14.269841
   10      -14.200130
   11      -14.190597
   12      -14.164140
   13      -14.144347
   14      -14.141788
   15      -14.110159
   16      -14.094523
   17       -8.118328
   18       -8.041128
   19       -8.030295
   20       -8.030234
   21       -8.003508
   22       -7.986409
   23       -7.934800
   24       -7.869446
   25       -7.846725
   26       -7.817849
   27       -7.796993
   28       -7.747518
   29       -7.645771
   30       -7.640641
   31       -7.606521
   32       -7.577619
   33       -7.180394
   34       -7.164826
   35       -7.085706
   36       -7.079582
   37       -7.062312
   38       -7.018277
   39       -7.011269
   40       -6.968059
   41       -6.949822
   42       -6.917183
   43       -6.894966
   44       -6.877057
   45       -6.843138
   46       -6.809685
   47       -6.788597
   48       -6.774188
   49       -6.715535
   50       -6.703929
   51       -6.672712
   52       -6.672066
   53       -6.627252
   54       -6.623469
   55       -6.541274
   56       -6.535577
   57       -2.595809
   58       -2.463254
   59       -2.417390
   60       -2.375354
   61       -1.643576
   62       -1.624673
   63       -1.623994
   64       -1.622244
   65        1.501757
   66        2.582803
   67        2.819393
   68        2.855428
   69        2.913698
   70        3.042191
   71        3.203757
   72        3.283439
   73        3.495690
   74        3.634646
   75        3.723168
   76        3.941286
   77        4.068364
   78        4.139875
   79        4.321417
   80        4.323516
   81        4.398176
   82        4.411126
   83        4.458936
   84        4.727973
   85        4.770085
   86        4.856364
   87        4.972280
   88        5.027801
   89        5.157810
   90        5.195811
   91        5.226161
   92        5.316043
   93        5.319313
   94        5.432372
   95        5.481012
   96        5.496294
   97        5.580364
   98        6.052511
 
  0.2500000E+00  0.2500000E+00  0.0000000E+00  0.6250000E-01
    1      -14.699278
    2      -14.625207
    3      -14.537908
    4      -14.517135
    5      -14.491382
    6      -14.481411
    7      -14.403561
    8      -14.399171
    9      -14.247064
   10      -14.198708
   11      -14.191986
   12      -14.160559
   13      -14.159654
   14      -14.144739
   15      -14.107867
   16      -14.096774
   17       -8.110626
   18       -8.037324
   19       -8.022142
   20       -8.005694
   21       -7.999574
   22       -7.980446
   23       -7.940774
   24       -7.903873
   25       -7.863580
   26       -7.838502
   27       -7.806024
   28       -7.757390
   29       -7.631925
   30       -7.627859
   31       -7.603863
   32       -7.582398
   33       -7.149928
   34       -7.139581
   35       -7.081699
   36       -7.075671
   37       -7.063511
   38       -7.030529
   39       -7.017049
   40       -6.948422
   41       -6.947060
   42       -6.945571
   43       -6.912092
   44       -6.854286
   45       -6.839201
   46       -6.818117
   47       -6.815586
   48       -6.789730
   49       -6.699139
   50       -6.699137
   51       -6.672566
   52       -6.672050
   53       -6.627262
   54       -6.624359
   55       -6.540366
   56       -6.536366
   57       -2.576417
   58       -2.482680
   59       -2.411059
   60       -2.381328
   61       -1.640725
   62       -1.626883
   63       -1.624325
   64       -1.622608
   65        1.593052
   66        2.245083
   67        2.850132
   68        2.925932
   69        3.026862
   70        3.078284
   71        3.240397
   72        3.297077
   73        3.410169
   74        3.711900
   75        3.740435
   76        3.989874
   77        4.143871
   78        4.159432
   79        4.319336
   80        4.322674
   81        4.346692
   82        4.362433
   83        4.477033
   84        4.743157
   85        4.763316
   86        4.775064
   87        4.917946
   88        5.009612
   89        5.092872
   90        5.181239
   91        5.233437
   92        5.260440
   93        5.297796
   94        5.306084
   95        5.381381
   96        5.619808
   97        5.648766
   98        5.808400
 
  0.5000000E+00  0.2500000E+00  0.0000000E+00  0.3125000E-01
    1      -14.665693
    2      -14.665691
    3      -14.527799
    4      -14.527796
    5      -14.486442
    6      -14.486439
    7      -14.401389
    8      -14.401387
    9      -14.199938
   10      -14.199937
   11      -14.195316
   12      -14.195315
   13      -14.152330
   14      -14.152329
   15      -14.102291
   16      -14.102291
   17       -8.078829
   18       -8.078829
   19       -7.991838
   20       -7.991837
   21       -7.970979
   22       -7.970978
   23       -7.915699
   24       -7.915698
   25       -7.913547
   26       -7.913546
   27       -7.780819
   28       -7.780818
   29       -7.618632
   30       -7.618631
   31       -7.594705
   32       -7.594704
   33       -7.090455
   34       -7.090453
   35       -7.088290
   36       -7.088288
   37       -7.064921
   38       -7.064919
   39       -7.002555
   40       -7.002553
   41       -6.933041
   42       -6.933038
   43       -6.891411
   44       -6.891410
   45       -6.828187
   46       -6.828185
   47       -6.812688
   48       -6.812686
   49       -6.692483
   50       -6.692481
   51       -6.672259
   52       -6.672257
   53       -6.626235
   54       -6.626232
   55       -6.538318
   56       -6.538315
   57       -2.529565
   58       -2.529565
   59       -2.396024
   60       -2.396024
   61       -1.633821
   62       -1.633820
   63       -1.623475
   64       -1.623475
   65        1.854470
   66        1.854472
   67        2.935539
   68        2.935540
   69        3.131558
   70        3.131561
   71        3.134132
   72        3.134132
   73        3.604738
   74        3.604739
   75        4.027704
   76        4.027706
   77        4.191496
   78        4.191497
   79        4.219730
   80        4.219732
   81        4.322737
   82        4.322738
   83        4.632861
   84        4.632861
   85        4.671556
   86        4.671557
   87        5.016815
   88        5.016816
   89        5.058428
   90        5.058430
   91        5.237277
   92        5.237277
   93        5.264680
   94        5.264682
   95        5.473846
   96        5.473853
   97        5.768452
   98        5.790894
 
  0.0000000E+00  0.5000000E+00  0.0000000E+00  0.1562500E-01
    1      -14.632712
    2      -14.632712
    3      -14.559558
    4      -14.559558
    5      -14.450543
    6      -14.450543
    7      -14.439305
    8      -14.439305
    9      -14.218073
   10      -14.218073
   11      -14.156214
   12      -14.156214
   13      -14.142064
   14      -14.142064
   15      -14.137950
   16      -14.137950
   17       -7.952488
   18       -7.952488
   19       -7.950877
   20       -7.950877
   21       -7.902510
   22       -7.902510
   23       -7.896258
   24       -7.896258
   25       -7.851255
   26       -7.851255
   27       -7.798365
   28       -7.798365
   29       -7.771726
   30       -7.771726
   31       -7.759749
   32       -7.759749
   33       -7.098818
   34       -7.098818
   35       -7.059187
   36       -7.059187
   37       -6.926219
   38       -6.926219
   39       -6.905776
   40       -6.905776
   41       -6.904018
   42       -6.904018
   43       -6.874856
   44       -6.874856
   45       -6.847320
   46       -6.847320
   47       -6.843900
   48       -6.843900
   49       -6.818493
   50       -6.818493
   51       -6.818111
   52       -6.818111
   53       -6.580714
   54       -6.580714
   55       -6.576978
   56       -6.576978
   57       -2.483436
   58       -2.483436
   59       -2.438809
   60       -2.438809
   61       -1.631249
   62       -1.631249
   63       -1.621964
   64       -1.621964
   65        2.054876
   66        2.054876
   67        2.909553
   68        2.909553
   69        3.126166
   70        3.126166
   71        3.267322
   72        3.267322
   73        3.503966
   74        3.503966
   75        3.977332
   76        3.977332
   77        4.155214
   78        4.155214
   79        4.190380
   80        4.190380
   81        4.503563
   82        4.503563
   83        4.745631
   84        4.745631
   85        4.769352
   86        4.769353
   87        4.890602
   88        4.890602
   89        5.089662
   90        5.089664
   91        5.311664
   92        5.312192
   93        5.330838
   94        5.332846
   95        5.438289
   96        5.444324
   97        5.609481
   98        5.666300
 
  0.2500000E+00  0.5000000E+00  0.0000000E+00  0.3125000E-01
    1      -14.623531
    2      -14.623531
    3      -14.572254
    4      -14.572254
    5      -14.448953
    6      -14.448953
    7      -14.440995
    8      -14.440995
    9      -14.204347
   10      -14.204347
   11      -14.154259
   12      -14.154259
   13      -14.147927
   14      -14.147927
   15      -14.144058
   16      -14.144058
   17       -7.973160
   18       -7.973160
   19       -7.967786
   20       -7.967786
   21       -7.899448
   22       -7.899448
   23       -7.851144
   24       -7.851144
   25       -7.848244
   26       -7.848244
   27       -7.798309
   28       -7.798309
   29       -7.774725
   30       -7.774725
   31       -7.764022
   32       -7.764022
   33       -7.092316
   34       -7.092316
   35       -7.064204
   36       -7.064204
   37       -6.945109
   38       -6.945109
   39       -6.921824
   40       -6.921824
   41       -6.897851
   42       -6.897851
   43       -6.873641
   44       -6.873641
   45       -6.873523
   46       -6.873523
   47       -6.849646
   48       -6.849646
   49       -6.796535
   50       -6.796535
   51       -6.788334
   52       -6.788334
   53       -6.580118
   54       -6.580118
   55       -6.577529
   56       -6.577529
   57       -2.476627
   58       -2.476627
   59       -2.445074
   60       -2.445074
   61       -1.629940
   62       -1.629940
   63       -1.623371
   64       -1.623371
   65        2.124395
   66        2.124395
   67        2.640219
   68        2.640219
   69        3.163837
   70        3.163837
   71        3.346220
   72        3.346220
   73        3.694985
   74        3.694985
   75        4.016401
   76        4.016401
   77        4.115129
   78        4.115129
   79        4.227384
   80        4.227384
   81        4.491457
   82        4.491457
   83        4.567365
   84        4.567365
   85        4.826493
   86        4.826493
   87        4.934275
   88        4.934276
   89        5.082577
   90        5.082577
   91        5.120545
   92        5.120545
   93        5.417503
   94        5.418741
   95        5.440151
   96        5.440499
   97        5.558201
   98        5.620770
 
  0.5000000E+00  0.5000000E+00  0.0000000E+00  0.1562500E-01
    1      -14.599593
    2      -14.599593
    3      -14.599591
    4      -14.599591
    5      -14.445029
    6      -14.445029
    7      -14.445027
    8      -14.445027
    9      -14.174608
   10      -14.174607
   11      -14.174607
   12      -14.174607
   13      -14.148915
   14      -14.148915
   15      -14.148914
   16      -14.148914
   17       -7.984059
   18       -7.984059
   19       -7.984058
   20       -7.984058
   21       -7.869728
   22       -7.869728
   23       -7.869727
   24       -7.869727
   25       -7.808473
   26       -7.808473
   27       -7.808473
   28       -7.808473
   29       -7.772860
   30       -7.772860
   31       -7.772860
   32       -7.772860
   33       -7.077697
   34       -7.077697
   35       -7.077695
   36       -7.077695
   37       -6.950865
   38       -6.950865
   39       -6.950865
   40       -6.950865
   41       -6.883035
   42       -6.883035
   43       -6.883035
   44       -6.883035
   45       -6.867164
   46       -6.867164
   47       -6.867164
   48       -6.867164
   49       -6.775968
   50       -6.775968
   51       -6.775967
   52       -6.775967
   53       -6.578797
   54       -6.578797
   55       -6.578795
   56       -6.578795
   57       -2.460582
   58       -2.460582
   59       -2.460581
   60       -2.460581
   61       -1.626711
   62       -1.626711
   63       -1.626711
   64       -1.626711
   65        2.327289
   66        2.327289
   67        2.327291
   68        2.327291
   69        3.258114
   70        3.258114
   71        3.258115
   72        3.258115
   73        4.018340
   74        4.018340
   75        4.018340
   76        4.018340
   77        4.148495
   78        4.148495
   79        4.148495
   80        4.148495
   81        4.492746
   82        4.492746
   83        4.492747
   84        4.492747
   85        4.770165
   86        4.770165
   87        4.770165
   88        4.770165
   89        5.152390
   90        5.152390
   91        5.152392
   92        5.152394
   93        5.393577
   94        5.393602
   95        5.393907
   96        5.395184
   97        5.581629
   98        5.604309
 
  0.0000000E+00  0.0000000E+00  0.2500000E+00  0.3125000E-01
    1      -14.714357
    2      -14.605558
    3      -14.554019
    4      -14.515000
    5      -14.482594
    6      -14.476753
    7      -14.401068
    8      -14.397792
    9      -14.279451
   10      -14.223723
   11      -14.199858
   12      -14.156817
   13      -14.139488
   14      -14.127989
   15      -14.099224
   16      -14.083605
   17       -8.179719
   18       -8.087845
   19       -8.067273
   20       -8.042896
   21       -8.039370
   22       -8.036008
   23       -7.999007
   24       -7.866867
   25       -7.855742
   26       -7.830819
   27       -7.788033
   28       -7.747425
   29       -7.528517
   30       -7.521500
   31       -7.519196
   32       -7.503058
   33       -7.226213
   34       -7.160780
   35       -7.157196
   36       -7.099760
   37       -7.036070
   38       -7.025406
   39       -7.025061
   40       -6.949451
   41       -6.931092
   42       -6.917668
   43       -6.896166
   44       -6.889305
   45       -6.819081
   46       -6.805652
   47       -6.778028
   48       -6.754293
   49       -6.745642
   50       -6.709129
   51       -6.638330
   52       -6.616676
   53       -6.603039
   54       -6.596013
   55       -6.595288
   56       -6.590717
   57       -2.521703
   58       -2.375779
   59       -2.307031
   60       -2.238397
   61       -1.815667
   62       -1.805950
   63       -1.748739
   64       -1.733978
   65        1.527335
   66        2.600056
   67        2.803457
   68        2.850846
   69        2.855331
   70        2.895201
   71        3.448456
   72        3.513523
   73        3.575261
   74        3.621964
   75        3.718631
   76        3.725879
   77        3.756022
   78        4.045769
   79        4.240219
   80        4.388288
   81        4.487310
   82        4.536929
   83        4.662220
   84        4.676541
   85        4.693848
   86        4.780487
   87        4.807203
   88        4.845721
   89        4.854635
   90        4.973591
   91        5.316874
   92        5.324530
   93        5.422792
   94        5.475943
   95        5.522963
   96        5.535899
   97        5.832819
   98        6.095310
 
  0.2500000E+00  0.0000000E+00  0.2500000E+00  0.6250000E-01
    1      -14.701642
    2      -14.626197
    3      -14.548819
    4      -14.521316
    5      -14.481706
    6      -14.477601
    7      -14.400576
    8      -14.398252
    9      -14.256195
   10      -14.219422
   11      -14.202651
   12      -14.170016
   13      -14.138416
   14      -14.131224
   15      -14.097164
   16      -14.086096
   17       -8.164432
   18       -8.085094
   19       -8.083003
   20       -8.056142
   21       -8.021116
   22       -7.997490
   23       -7.981350
   24       -7.897994
   25       -7.880974
   26       -7.833450
   27       -7.819869
   28       -7.761159
   29       -7.526834
   30       -7.521662
   31       -7.516680
   32       -7.504744
   33       -7.180443
   34       -7.148620
   35       -7.131529
   36       -7.107369
   37       -7.034635
   38       -7.029006
   39       -6.996174
   40       -6.957690
   41       -6.941045
   42       -6.928163
   43       -6.910354
   44       -6.868744
   45       -6.823383
   46       -6.813122
   47       -6.801561
   48       -6.773727
   49       -6.732520
   50       -6.712019
   51       -6.635386
   52       -6.620269
   53       -6.600543
   54       -6.596109
   55       -6.594696
   56       -6.591406
   57       -2.500079
   58       -2.396820
   59       -2.297103
   60       -2.248657
   61       -1.813503
   62       -1.806722
   63       -1.746681
   64       -1.736207
   65        1.613820
   66        2.242348
   67        2.805257
   68        2.854458
   69        2.944551
   70        3.199423
   71        3.397984
   72        3.596408
   73        3.617560
   74        3.629152
   75        3.629342
   76        3.700579
   77        3.725301
   78        4.069716
   79        4.228950
   80        4.300254
   81        4.328310
   82        4.577439
   83        4.652488
   84        4.693079
   85        4.750962
   86        4.754752
   87        4.795015
   88        4.833534
   89        4.964935
   90        5.056999
   91        5.194513
   92        5.355945
   93        5.476757
   94        5.492212
   95        5.544291
   96        5.639918
   97        5.893915
   98        6.146909
 
  0.5000000E+00  0.0000000E+00  0.2500000E+00  0.3125000E-01
    1      -14.667550
    2      -14.667547
    3      -14.535611
    4      -14.535608
    5      -14.479639
    6      -14.479636
    7      -14.399419
    8      -14.399417
    9      -14.210286
   10      -14.210285
   11      -14.208802
   12      -14.208801
   13      -14.135514
   14      -14.135514
   15      -14.091856
   16      -14.091856
   17       -8.126005
   18       -8.126005
   19       -8.070821
   20       -8.070821
   21       -7.964025
   22       -7.964024
   23       -7.934796
   24       -7.934795
   25       -7.922599
   26       -7.922598
   27       -7.791813
   28       -7.791812
   29       -7.523544
   30       -7.523543
   31       -7.510450
   32       -7.510449
   33       -7.128414
   34       -7.128412
   35       -7.092174
   36       -7.092172
   37       -7.068524
   38       -7.068523
   39       -6.950471
   40       -6.950469
   41       -6.936389
   42       -6.936387
   43       -6.905990
   44       -6.905988
   45       -6.820602
   46       -6.820600
   47       -6.805669
   48       -6.805667
   49       -6.720009
   50       -6.720006
   51       -6.628057
   52       -6.628054
   53       -6.597278
   54       -6.597276
   55       -6.593111
   56       -6.593108
   57       -2.448181
   58       -2.448180
   59       -2.273028
   60       -2.273027
   61       -1.809421
   62       -1.809420
   63       -1.741531
   64       -1.741531
   65        1.863336
   66        1.863338
   67        2.818859
   68        2.818859
   69        3.157462
   70        3.157464
   71        3.515787
   72        3.515788
   73        3.642282
   74        3.642282
   75        3.647156
   76        3.647158
   77        3.906244
   78        3.906245
   79        4.158815
   80        4.158816
   81        4.528498
   82        4.528498
   83        4.665673
   84        4.665675
   85        4.705273
   86        4.705274
   87        4.804803
   88        4.804804
   89        5.021244
   90        5.021245
   91        5.398725
   92        5.400256
   93        5.403452
   94        5.403781
   95        5.523637
   96        5.528662
   97        5.773398
   98        5.990480
 
  0.0000000E+00  0.2500000E+00  0.2500000E+00  0.6250000E-01
    1      -14.685071
    2      -14.587376
    3      -14.533395
    4      -14.523073
    5      -14.498366
    6      -14.496299
    7      -14.426053
    8      -14.415510
    9      -14.258856
   10      -14.203103
   11      -14.186071
   12      -14.161268
   13      -14.140567
   14      -14.136034
   15      -14.113258
   16      -14.103242
   17       -8.094731
   18       -8.019411
   19       -8.010633
   20       -8.001337
   21       -7.988884
   22       -7.974050
   23       -7.966155
   24       -7.880308
   25       -7.850934
   26       -7.839502
   27       -7.832474
   28       -7.762405
   29       -7.636342
   30       -7.628613
   31       -7.605628
   32       -7.588232
   33       -7.149000
   34       -7.112913
   35       -7.092196
   36       -7.056693
   37       -7.009441
   38       -7.000144
   39       -6.975070
   40       -6.971153
   41       -6.918566
   42       -6.909108
   43       -6.872911
   44       -6.870597
   45       -6.832633
   46       -6.814450
   47       -6.807172
   48       -6.794361
   49       -6.714579
   50       -6.713444
   51       -6.698659
   52       -6.680343
   53       -6.677230
   54       -6.667734
   55       -6.613278
   56       -6.611982
   57       -2.477943
   58       -2.364500
   59       -2.315455
   60       -2.277254
   61       -1.800742
   62       -1.794918
   63       -1.754033
   64       -1.742742
   65        1.712040
   66        2.739586
   67        2.871126
   68        2.897350
   69        2.927570
   70        2.993594
   71        3.082903
   72        3.367541
   73        3.650965
   74        3.651415
   75        3.748155
   76        3.858115
   77        4.139050
   78        4.159867
   79        4.223522
   80        4.276342
   81        4.478146
   82        4.524399
   83        4.599515
   84        4.616484
   85        4.705567
   86        4.855843
   87        4.934326
   88        4.940318
   89        4.968709
   90        5.073751
   91        5.281741
   92        5.306993
   93        5.408149
   94        5.417991
   95        5.461359
   96        5.507945
   97        5.537673
   98        5.782463
 
  0.2500000E+00  0.2500000E+00  0.2500000E+00  0.1250000E+00
    1      -14.673429
    2      -14.605427
    3      -14.528706
    4      -14.519400
    5      -14.503928
    6      -14.500407
    7      -14.424535
    8      -14.417088
    9      -14.238684
   10      -14.199638
   11      -14.187664
   12      -14.165310
   13      -14.147251
   14      -14.138598
   15      -14.112319
   16      -14.105205
   17       -8.087129
   18       -8.025887
   19       -7.998803
   20       -7.995982
   21       -7.990880
   22       -7.957698
   23       -7.954751
   24       -7.905183
   25       -7.863335
   26       -7.851654
   27       -7.838866
   28       -7.776982
   29       -7.626577
   30       -7.622249
   31       -7.605036
   32       -7.592117
   33       -7.124202
   34       -7.092674
   35       -7.081879
   36       -7.055825
   37       -7.019237
   38       -7.010735
   39       -6.973791
   40       -6.953460