   80   80  200    1
  0.1039724E+02  0.1193753E-08  0.8349915E-09  0.8344716E-09  0.5000000E-15
  1.000000000000000E-004
  CAR 
 diamond                                 
    128     27    106
 
  0.0000000E+00  0.0000000E+00  0.0000000E+00  0.1562500E-01
    1      -14.857731
    2      -14.690670
    3      -14.606854
    4      -14.579507
    5      -14.574742
    6      -14.562431
    7      -14.558056
    8      -14.516114
    9      -14.502305
   10      -14.494582
   11      -14.491928
   12      -14.459440
   13      -14.445720
   14      -14.422277
   15      -14.394803
   16      -14.393179
   17       -7.626404
   18       -7.611571
   19       -7.601892
   20       -7.554017
   21       -7.544968
   22       -7.538880
   23       -7.524971
   24       -7.466137
   25       -7.302437
   26       -7.264364
   27       -7.233379
   28       -7.219260
   29       -7.201768
   30       -7.095465
   31       -7.086968
   32       -7.082513
   33       -7.079147
   34       -7.016100
   35       -6.969821
   36       -6.945317
   37       -6.889334
   38       -6.862593
   39       -6.858571
   40       -6.828403
   41       -6.822249
   42       -6.816887
   43       -6.811120
   44       -6.802280
   45       -6.789747
   46       -6.702348
   47       -6.684862
   48       -6.676753
   49       -6.665241
   50       -6.636366
   51       -6.632732
   52       -6.631755
   53       -6.623233
   54       -6.614387
   55       -6.596461
   56       -6.594178
   57       -6.589831
   58       -6.589346
   59       -6.584442
   60       -6.582411
   61       -6.571482
   62       -6.531887
   63       -6.512789
   64       -6.470533
   65        1.137182
   66        2.446523
   67        2.483538
   68        2.817400
   69        2.936996
   70        3.028912
   71        3.237885
   72        3.260572
   73        3.339092
   74        3.359929
   75        3.412290
   76        3.574402
   77        3.633597
   78        3.649383
   79        3.673728
   80        3.843899
   81        4.157658
   82        4.335907
   83        4.463437
   84        4.544244
   85        4.622454
   86        4.676976
   87        4.725113
   88        4.801815
   89        4.855359
   90        4.901849
   91        4.904616
   92        4.924972
   93        4.943676
   94        5.033849
   95        5.399220
   96        5.413671
   97        5.431393
   98        5.498174
   99        5.517250
  100        5.642989
  101        5.657462
  102        5.869329
  103        5.876654
  104        6.026671
  105        6.061441
  106        6.120905
 
  0.2500000E+00  0.0000000E+00  0.0000000E+00  0.3125000E-01
    1      -14.842997
    2      -14.739137
    3      -14.578804
    4      -14.575426
    5      -14.561777
    6      -14.558694
    7      -14.555868
    8      -14.514137
    9      -14.503923
   10      -14.495272
   11      -14.492708
   12      -14.456741
   13      -14.447256
   14      -14.439725
   15      -14.394507
   16      -14.393240
   17       -7.600048
   18       -7.599396
   19       -7.582248
   20       -7.542812
   21       -7.533665
   22       -7.503332
   23       -7.503324
   24       -7.462892
   25       -7.369734
   26       -7.320941
   27       -7.301000
   28       -7.288551
   29       -7.281157
   30       -7.244157
   31       -7.030477
   32       -7.029846
   33       -6.995627
   34       -6.942910
   35       -6.940617
   36       -6.854725
   37       -6.849323
   38       -6.836108
   39       -6.835502
   40       -6.826304
   41       -6.813530
   42       -6.811696
   43       -6.804209
   44       -6.793897
   45       -6.784124
   46       -6.735821
   47       -6.693673
   48       -6.668678
   49       -6.654668
   50       -6.645705
   51       -6.642329
   52       -6.636794
   53       -6.632619
   54       -6.625017
   55       -6.606949
   56       -6.605876
   57       -6.602203
   58       -6.593637
   59       -6.590307
   60       -6.575158
   61       -6.574769
   62       -6.531591
   63       -6.523413
   64       -6.517148
   65        1.239863
   66        1.963763
   67        2.893569
   68        2.926330
   69        2.978564
   70        3.079238
   71        3.206629
   72        3.258470
   73        3.266632
   74        3.338533
   75        3.350960
   76        3.531730
   77        3.645616
   78        3.660558
   79        3.764909
   80        3.904225
   81        4.194354
   82        4.251620
   83        4.300363
   84        4.439510
   85        4.597877
   86        4.643151
   87        4.709211
   88        4.816062
   89        4.829281
   90        4.851730
   91        4.891788
   92        4.936608
   93        5.016253
   94        5.107827
   95        5.263552
   96        5.365370
   97        5.431524
   98        5.510086
   99        5.539952
  100        5.612607
  101        5.642629
  102        5.747983
  103        5.930305
  104        5.993000
  105        6.102505
  106        6.382726
 
  0.5000000E+00  0.0000000E+00  0.0000000E+00  0.1562500E-01
    1      -14.800946
    2      -14.800945
    3      -14.577118
    4      -14.577118
    5      -14.560242
    6      -14.560241
    7      -14.509086
    8      -14.509085
    9      -14.494443
   10      -14.494442
   11      -14.488018
   12      -14.488016
   13      -14.451502
   14      -14.451501
   15      -14.393801
   16      -14.393798
   17       -7.577610
   18       -7.577609
   19       -7.534957
   20       -7.534956
   21       -7.507602
   22       -7.507601
   23       -7.406904
   24       -7.406904
   25       -7.405177
   26       -7.405177
   27       -7.401017
   28       -7.401016
   29       -7.338314
   30       -7.338313
   31       -6.967203
   32       -6.967202
   33       -6.961092
   34       -6.961091
   35       -6.885947
   36       -6.885946
   37       -6.834618
   38       -6.834615
   39       -6.825189
   40       -6.825188
   41       -6.785167
   42       -6.785166
   43       -6.717350
   44       -6.717350
   45       -6.711869
   46       -6.711869
   47       -6.704408
   48       -6.704407
   49       -6.678978
   50       -6.678978
   51       -6.658221
   52       -6.658219
   53       -6.651943
   54       -6.651942
   55       -6.624807
   56       -6.624806
   57       -6.598832
   58       -6.598829
   59       -6.594575
   60       -6.594573
   61       -6.551065
   62       -6.551064
   63       -6.547060
   64       -6.547059
   65        1.531045
   66        1.531047
   67        3.081206
   68        3.081209
   69        3.086373
   70        3.086374
   71        3.209099
   72        3.209100
   73        3.223456
   74        3.223457
   75        3.360656
   76        3.360657
   77        3.692982
   78        3.692983
   79        4.007394
   80        4.007394
   81        4.071108
   82        4.071110
   83        4.296881
   84        4.296883
   85        4.605696
   86        4.605698
   87        4.769891
   88        4.769891
   89        4.774552
   90        4.774554
   91        4.796412
   92        4.796413
   93        5.244005
   94        5.244005
   95        5.317638
   96        5.317638
   97        5.418207
   98        5.418207
   99        5.631126
  100        5.631127
  101        5.676841
  102        5.676843
  103        5.796129
  104        5.796131
  105        6.232514
  106        6.232516
 
  0.0000000E+00  0.2500000E+00  0.0000000E+00  0.3125000E-01
    1      -14.828537
    2      -14.674338
    3      -14.648395
    4      -14.592493
    5      -14.590524
    6      -14.548609
    7      -14.545341
    8      -14.509290
    9      -14.508370
   10      -14.484242
   11      -14.480149
   12      -14.453804
   13      -14.452677
   14      -14.422215
   15      -14.409559
   16      -14.408394
   17       -7.638983
   18       -7.559899
   19       -7.553004
   20       -7.538626
   21       -7.505886
   22       -7.497084
   23       -7.479103
   24       -7.350793
   25       -7.349776
   26       -7.266746
   27       -7.226045
   28       -7.216133
   29       -7.160926
   30       -7.160372
   31       -7.127699
   32       -7.102799
   33       -7.090079
   34       -7.017669
   35       -6.952699
   36       -6.940493
   37       -6.920398
   38       -6.867004
   39       -6.823042
   40       -6.809711
   41       -6.805101
   42       -6.799060
   43       -6.785373
   44       -6.775715
   45       -6.775183
   46       -6.769060
   47       -6.722420
   48       -6.694092
   49       -6.675255
   50       -6.667459
   51       -6.666259
   52       -6.665420
   53       -6.646478
   54       -6.630542
   55       -6.629614
   56       -6.621596
   57       -6.605294
   58       -6.601169
   59       -6.592528
   60       -6.582873
   61       -6.568835
   62       -6.551108
   63       -6.522468
   64       -6.493750
   65        1.337861
   66        2.583783
   67        2.615387
   68        2.619605
   69        2.938502
   70        2.940632
   71        3.148381
   72        3.259229
   73        3.383961
   74        3.428079
   75        3.552265
   76        3.612028
   77        3.679243
   78        3.762046
   79        3.894701
   80        4.157733
   81        4.230364
   82        4.240962
   83        4.327395
   84        4.358351
   85        4.379947
   86        4.685652
   87        4.736687
   88        4.763914
   89        4.805391
   90        4.855831
   91        4.877572
   92        4.920859
   93        4.923238
   94        4.967802
   95        5.238518
   96        5.345518
   97        5.396857
   98        5.444771
   99        5.538852
  100        5.622960
  101        5.751565
  102        5.821989
  103        5.837735
  104        5.954559
  105        6.123876
  106        6.241814
 
  0.2500000E+00  0.2500000E+00  0.0000000E+00  0.6250000E-01
    1      -14.814734
    2      -14.718091
    3      -14.642244
    4      -14.604182
    5      -14.548142
    6      -14.546093
    7      -14.544517
    8      -14.506577
    9      -14.498271
   10      -14.492077
   11      -14.474391
   12      -14.457327
   13      -14.454380
   14      -14.438329
   15      -14.409319
   16      -14.408342
   17       -7.615539
   18       -7.569956
   19       -7.558912
   20       -7.536891
   21       -7.471213
   22       -7.460416
   23       -7.451131
   24       -7.402355
   25       -7.376854
   26       -7.317195
   27       -7.278573
   28       -7.242900
   29       -7.227277
   30       -7.180676
   31       -7.130567
   32       -7.052581
   33       -6.981424
   34       -6.964421
   35       -6.961595
   36       -6.904783
   37       -6.903245
   38       -6.851308
   39       -6.833332
   40       -6.818841
   41       -6.796996
   42       -6.796618
   43       -6.795189
   44       -6.762101
   45       -6.761997
   46       -6.747152
   47       -6.745509
   48       -6.732060
   49       -6.681188
   50       -6.680499
   51       -6.674059
   52       -6.672940
   53       -6.645699
   54       -6.644329
   55       -6.638368
   56       -6.630339
   57       -6.624379
   58       -6.592419
   59       -6.576362
   60       -6.575520
   61       -6.563562
   62       -6.545323
   63       -6.533311
   64       -6.494183
   65        1.433037
   66        2.115022
   67        2.638283
   68        2.837432
   69        3.008614
   70        3.068916
   71        3.187200
   72        3.338248
   73        3.356154
   74        3.467998
   75        3.526359
   76        3.572124
   77        3.670043
   78        3.825843
   79        3.950741
   80        4.055363
   81        4.211757
   82        4.215111
   83        4.233180
   84        4.269641
   85        4.400999
   86        4.632983
   87        4.689476
   88        4.702038
   89        4.802110
   90        4.842414
   91        4.847480
   92        4.866297
   93        5.104675
   94        5.133802
   95        5.202185
   96        5.334101
   97        5.390782
   98        5.514109
   99        5.520991
  100        5.551899
  101        5.658692
  102        5.690508
  103        5.766688
  104        6.010185
  105        6.057021
  106        6.310688
 
  0.5000000E+00  0.2500000E+00  0.0000000E+00  0.3125000E-01
    1      -14.775424
    2      -14.775423
    3      -14.625527
    4      -14.625526
    5      -14.546985
    6      -14.546984
    7      -14.500637
    8      -14.500635
    9      -14.482617
   10      -14.482615
   11      -14.480259
   12      -14.480258
   13      -14.458320
   14      -14.458319
   15      -14.408782
   16      -14.408780
   17       -7.569379
   18       -7.569378
   19       -7.556671
   20       -7.556670
   21       -7.457653
   22       -7.457652
   23       -7.396900
   24       -7.396899
   25       -7.362192
   26       -7.362192
   27       -7.339387
   28       -7.339386
   29       -7.240765
   30       -7.240764
   31       -7.063946
   32       -7.063945
   33       -6.912866
   34       -6.912866
   35       -6.905094
   36       -6.905094
   37       -6.860689
   38       -6.860689
   39       -6.816139
   40       -6.816138
   41       -6.815477
   42       -6.815477
   43       -6.780358
   44       -6.780358
   45       -6.755007
   46       -6.755006
   47       -6.732598
   48       -6.732598
   49       -6.718784
   50       -6.718783
   51       -6.681745
   52       -6.681744
   53       -6.661238
   54       -6.661237
   55       -6.643568
   56       -6.643567
   57       -6.586652
   58       -6.586651
   59       -6.576218
   60       -6.576217
   61       -6.551758
   62       -6.551757
   63       -6.516143
   64       -6.516142
   65        1.704964
   66        1.704966
   67        2.711408
   68        2.711409
   69        3.191303
   70        3.191305
   71        3.274099
   72        3.274099
   73        3.394792
   74        3.394793
   75        3.557568
   76        3.557569
   77        3.808578
   78        3.808578
   79        4.007439
   80        4.007439
   81        4.092740
   82        4.092742
   83        4.210242
   84        4.210243
   85        4.537103
   86        4.537104
   87        4.638691
   88        4.638691
   89        4.755301
   90        4.755302
   91        4.867025
   92        4.867026
   93        5.189131
   94        5.189131
   95        5.379060
   96        5.379061
   97        5.430280
   98        5.430280
   99        5.542051
  100        5.542052
  101        5.583461
  102        5.583462
  103        5.763839
  104        5.763840
  105        6.174037
  106        6.174038
 
  0.0000000E+00  0.5000000E+00  0.0000000E+00  0.1562500E-01
    1      -14.750076
    2      -14.750076
    3      -14.634061
    4      -14.634061
    5      -14.550453
    6      -14.550453
    7      -14.517287
    8      -14.517287
    9      -14.515011
   10      -14.515011
   11      -14.444704
   12      -14.444704
   13      -14.441407
   14      -14.441407
   15      -14.428897
   16      -14.428897
   17       -7.609600
   18       -7.609600
   19       -7.446231
   20       -7.446231
   21       -7.428796
   22       -7.428796
   23       -7.380250
   24       -7.380250
   25       -7.346739
   26       -7.346739
   27       -7.277307
   28       -7.277307
   29       -7.146129
   30       -7.146129
   31       -7.088396
   32       -7.088396
   33       -7.035993
   34       -7.035993
   35       -6.941331
   36       -6.941331
   37       -6.905968
   38       -6.905968
   39       -6.859083
   40       -6.859083
   41       -6.800960
   42       -6.800960
   43       -6.792521
   44       -6.792521
   45       -6.750748
   46       -6.750748
   47       -6.726712
   48       -6.726712
   49       -6.696169
   50       -6.696169
   51       -6.670433
   52       -6.670433
   53       -6.670185
   54       -6.670185
   55       -6.658771
   56       -6.658771
   57       -6.619439
   58       -6.619439
   59       -6.607041
   60       -6.607041
   61       -6.549376
   62       -6.549376
   63       -6.524450
   64       -6.524450
   65        1.876989
   66        1.876989
   67        2.838801
   68        2.838801
   69        2.946921
   70        2.946921
   71        3.216055
   72        3.216055
   73        3.460759
   74        3.460759
   75        3.861822
   76        3.861822
   77        3.901775
   78        3.901775
   79        3.913739
   80        3.913739
   81        3.940130
   82        3.940130
   83        4.479781
   84        4.479781
   85        4.490128
   86        4.490128
   87        4.619522
   88        4.619522
   89        4.645076
   90        4.645076
   91        4.848649
   92        4.848649
   93        5.057463
   94        5.057463
   95        5.217405
   96        5.217405
   97        5.406852
   98        5.406852
   99        5.693710
  100        5.693710
  101        5.850145
  102        5.850145
  103        5.898787
  104        5.898787
  105        5.970785
  106        5.970785
 
  0.2500000E+00  0.5000000E+00  0.0000000E+00  0.3125000E-01
    1      -14.739089
    2      -14.739089
    3      -14.664352
    4      -14.664352
    5      -14.520147
    6      -14.520147
    7      -14.516264
    8      -14.516264
    9      -14.515372
   10      -14.515372
   11      -14.445734
   12      -14.445734
   13      -14.441749
   14      -14.441749
   15      -14.439161
   16      -14.439161
   17       -7.596239
   18       -7.596239
   19       -7.504815
   20       -7.504815
   21       -7.397552
   22       -7.397552
   23       -7.392225
   24       -7.392225
   25       -7.355729
   26       -7.355729
   27       -7.197535
   28       -7.197535
   29       -7.187453
   30       -7.187453
   31       -7.048344
   32       -7.048344
   33       -7.012472
   34       -7.012472
   35       -6.952627
   36       -6.952627
   37       -6.942693
   38       -6.942693
   39       -6.862332
   40       -6.862332
   41       -6.823703
   42       -6.823703
   43       -6.785610
   44       -6.785610
   45       -6.766904
   46       -6.766904
   47       -6.725648
   48       -6.725648
   49       -6.708981
   50       -6.708981
   51       -6.690713
   52       -6.690713
   53       -6.681254
   54       -6.681254
   55       -6.676407
   56       -6.676407
   57       -6.588930
   58       -6.588930
   59       -6.569374
   60       -6.569374
   61       -6.538351
   62       -6.538351
   63       -6.526619
   64       -6.526619
   65        1.948079
   66        1.948079
   67        2.478889
   68        2.478889
   69        3.256369
   70        3.256369
   71        3.336414
   72        3.336414
   73        3.434760
   74        3.434760
   75        3.855817
   76        3.855817
   77        3.875084
   78        3.875084
   79        3.932586
   80        3.932586
   81        3.944820
   82        3.944820
   83        4.269789
   84        4.269789
   85        4.475479
   86        4.475479
   87        4.597952
   88        4.597952
   89        4.780919
   90        4.780919
   91        4.831375
   92        4.831375
   93        5.086181
   94        5.086181
   95        5.293634
   96        5.293634
   97        5.397440
   98        5.397440
   99        5.618683
  100        5.618683
  101        5.753211
  102        5.753211
  103        5.861307
  104        5.861307
  105        5.936398
  106        5.936398
 
  0.5000000E+00  0.5000000E+00  0.0000000E+00  0.1562500E-01
    1      -14.708138
    2      -14.708138
    3      -14.708137
    4      -14.708137
    5      -14.516226
    6      -14.516226
    7      -14.516226
    8      -14.516226
    9      -14.474086
   10      -14.474086
   11      -14.474085
   12      -14.474085
   13      -14.442526
   14      -14.442526
   15      -14.442523
   16      -14.442523
   17       -7.559137
   18       -7.559137
   19       -7.559136
   20       -7.559136
   21       -7.412329
   22       -7.412329
   23       -7.412328
   24       -7.412328
   25       -7.271304
   26       -7.271304
   27       -7.271303
   28       -7.271303
   29       -7.074985
   30       -7.074985
   31       -7.074985
   32       -7.074985
   33       -6.983293
   34       -6.983292
   35       -6.983292
   36       -6.983292
   37       -6.915566
   38       -6.915566
   39       -6.915565
   40       -6.915565
   41       -6.835729
   42       -6.835729
   43       -6.835729
   44       -6.835729
   45       -6.732719
   46       -6.732719
   47       -6.732719
   48       -6.732718
   49       -6.699546
   50       -6.699546
   51       -6.699544
   52       -6.699544
   53       -6.693610
   54       -6.693610
   55       -6.693609
   56       -6.693609
   57       -6.562185
   58       -6.562184
   59       -6.562183
   60       -6.562183
   61       -6.525859
   62       -6.525859
   63       -6.525858
   64       -6.525858
   65        2.155152
   66        2.155152
   67        2.155153
   68        2.155153
   69        3.348602
   70        3.348602
   71        3.348603
   72        3.348603
   73        3.716611
   74        3.716611
   75        3.716612
   76        3.716612
   77        3.878363
   78        3.878363
   79        3.878365
   80        3.878365
   81        4.053925
   82        4.053925
   83        4.053925
   84        4.053925
   85        4.508273
   86        4.508273
   87        4.508273
   88        4.508273
   89        4.817631
   90        4.817631
   91        4.817632
   92        4.817632
   93        5.283796
   94        5.283796
   95        5.283797
   96        5.283797
   97        5.447072
   98        5.447072
   99        5.447073
  100        5.447073
  101        5.712318
  102        5.712318
  103        5.712319
  104        5.712319
  105        6.038420
  106        6.038420
 
  0.0000000E+00  0.0000000E+00  0.2500000E+00  0.3125000E-01
    1      -14.827620
    2      -14.672128
    3      -14.640780
    4      -14.590882
    5      -14.578525
    6      -14.563390
    7      -14.558880
    8      -14.511534
    9      -14.495651
   10      -14.490520
   11      -14.477853
   12      -14.468503
   13      -14.442740
   14      -14.421206
   15      -14.409837
   16      -14.407983
   17       -7.570224
   18       -7.559296
   19       -7.533674
   20       -7.533628
   21       -7.496285
   22       -7.473942
   23       -7.446088
   24       -7.420459
   25       -7.307779
   26       -7.306215
   27       -7.257500
   28       -7.211316
   29       -7.209403
   30       -7.207790
   31       -7.195922
   32       -7.091414
   33       -7.026834
   34       -7.013819
   35       -6.953210
   36       -6.942844
   37       -6.906699
   38       -6.853584
   39       -6.816485
   40       -6.809802
   41       -6.808609
   42       -6.803307
   43       -6.797909
   44       -6.794719
   45       -6.735905
   46       -6.729193
   47       -6.724450
   48       -6.695535
   49       -6.689609
   50       -6.677022
   51       -6.668767
   52       -6.662294
   53       -6.648054
   54       -6.633300
   55       -6.624470
   56       -6.617949
   57       -6.606289
   58       -6.602070
   59       -6.597280
   60       -6.593987
   61       -6.589978
   62       -6.551161
   63       -6.514645
   64       -6.500707
   65        1.340070
   66        2.579721
   67        2.607993
   68        2.646795
   69        2.916762
   70        3.020484
   71        3.125441
   72        3.148933
   73        3.308522
   74        3.494662
   75        3.530727
   76        3.699710
   77        3.724370
   78        3.830163
   79        3.956358
   80        4.087774
   81        4.247948
   82        4.379845
   83        4.392746
   84        4.430820
   85        4.589822
   86        4.639244
   87        4.655914
   88        4.665652
   89        4.694618
   90        4.829950
   91        4.892509
   92        4.932861
   93        4.989601
   94        5.006402
   95        5.048705
   96        5.280842
   97        5.423109
   98        5.523865
   99        5.535916
  100        5.612359
  101        5.653444
  102        5.858903
  103        5.995310
  104        6.044393
  105        6.076393
  106        6.098210
 
  0.2500000E+00  0.0000000E+00  0.2500000E+00  0.6250000E-01
    1      -14.813753
    2      -14.716647
    3      -14.634237
    4      -14.592533
    5      -14.562860
    6      -14.559546
    7      -14.544259
    8      -14.502823
    9      -14.492233
   10      -14.491226
   11      -14.477818
   12      -14.467324
   13      -14.447932
   14      -14.437363
   15      -14.409497
   16      -14.408021
   17       -7.570359
   18       -7.545398
   19       -7.529610
   20       -7.481960
   21       -7.470894
   22       -7.457505
   23       -7.448390
   24       -7.434823
   25       -7.340472
   26       -7.317758
   27       -7.303925
   28       -7.300544
   29       -7.292633
   30       -7.259880
   31       -7.108018
   32       -7.025028
   33       -6.996305
   34       -6.969250
   35       -6.935599
   36       -6.934430
   37       -6.895906
   38       -6.847356
   39       -6.828055
   40       -6.804485
   41       -6.803026
   42       -6.792156
   43       -6.783683
   44       -6.782929
   45       -6.747804
   46       -6.731594
   47       -6.723103
   48       -6.695356
   49       -6.689887
   50       -6.686420
   51       -6.683894
   52       -6.670551
   53       -6.654368
   54       -6.641422
   55       -6.631023
   56       -6.628742
   57       -6.623067
   58       -6.616901
   59       -6.611085
   60       -6.566635
   61       -6.566405
   62       -6.558577
   63       -6.525121
   64       -6.499527
   65        1.435185
   66        2.113852
   67        2.666104
   68        2.845838
   69        3.031417
   70        3.045936
   71        3.149440
   72        3.291403
   73        3.346622
   74        3.440556
   75        3.507311
   76        3.704504
   77        3.718286
   78        3.799861
   79        4.009948
   80        4.037043
   81        4.269212
   82        4.272211
   83        4.307646
   84        4.392980
   85        4.473753
   86        4.511124
   87        4.603882
   88        4.774201
   89        4.858492
   90        4.892307
   91        4.906362
   92        4.930365
   93        4.953777
   94        4.996143
   95        5.210070
   96        5.294060
   97        5.337095
   98        5.437345
   99        5.481342
  100        5.554424
  101        5.606946
  102        5.846434
  103        5.900934
  104        5.958145
  105        6.073903
  106        6.142629
 
  0.5000000E+00  0.0000000E+00  0.2500000E+00  0.3125000E-01
    1      -14.774300
    2      -14.774299
    3      -14.616267
    4      -14.616267
    5      -14.561187
    6      -14.561187
    7      -14.496187
    8      -14.496186
    9      -14.481795
   10      -14.481794
   11      -14.480485
   12      -14.480484
   13      -14.460133
   14      -14.460133
   15      -14.408700
   16      -14.408698
   17       -7.551276
   18       -7.551275
   19       -7.485095
   20       -7.485094
   21       -7.424744
   22       -7.424743
   23       -7.409570
   24       -7.409569
   25       -7.400619
   26       -7.400618
   27       -7.346858
   28       -7.346858
   29       -7.325890
   30       -7.325889
   31       -7.026868
   32       -7.026867
   33       -6.975141
   34       -6.975140
   35       -6.911637
   36       -6.911637
   37       -6.834869
   38       -6.834868
   39       -6.803934
   40       -6.803934
   41       -6.787184
   42       -6.787184
   43       -6.781376
   44       -6.781375
   45       -6.752567
   46       -6.752567
   47       -6.733734
   48       -6.733733
   49       -6.701572
   50       -6.701572
   51       -6.680239
   52       -6.680239
   53       -6.652000
   54       -6.652000
   55       -6.639958
   56       -6.639957
   57       -6.624262
   58       -6.624261
   59       -6.589357
   60       -6.589355
   61       -6.549919
   62       -6.549918
   63       -6.517516
   64       -6.517516
   65        1.706421
   66        1.706422
   67        2.729800
   68        2.729801
   69        3.202730
   70        3.202730
   71        3.229438
   72        3.229440
   73        3.388096
   74        3.388097
   75        3.575478
   76        3.575478
   77        3.822685
   78        3.822685
   79        4.013816
   80        4.013817
   81        4.140551
   82        4.140552
   83        4.328096
   84        4.328096
   85        4.509623
   86        4.509624
   87        4.631134
   88        4.631134
   89        4.849998
   90        4.849999
   91        4.871532
   92        4.871532
   93        5.189584
   94        5.189584
   95        5.268975
   96        5.268975
   97        5.368270
   98        5.368271
   99        5.382687
  100        5.382688
  101        5.743096
  102        5.743097
  103        5.818815
  104        5.818815
  105        6.171383
  106        6.175887
 
  0.0000000E+00  0.2500000E+00  0.2500000E+00  0.6250000E-01
    1      -14.799493
    2      -14.656230
    3      -14.627512
    4      -14.621263
    5      -14.575729
    6      -14.574856
    7      -14.564743
    8      -14.512218
    9      -14.500030
   10      -14.496815
   11      -14.494938
   12      -14.446954
   13      -14.439040
   14      -14.423597
   15      -14.420210
   16      -14.411218
   17       -7.560594
   18       -7.501557
   19       -7.497724
   20       -7.497706
   21       -7.457903
   22       -7.447483
   23       -7.420428
   24       -7.325647
   25       -7.292961
   26       -7.286810
   27       -7.243867
   28       -7.223491
   29       -7.219574
   30       -7.176000
   31       -7.142811
   32       -7.138138
   33       -7.106850
   34       -6.998834
   35       -6.992647
   36       -6.951771
   37       -6.939762
   38       -6.867835
   39       -6.835889
   40       -6.799291
   41       -6.798203
   42       -6.798089
   43       -6.788310
   44       -6.784620
   45       -6.779258