       N       E                     dE             d eps       ncg     rms          rms(c)
DAV:   1     0.463394152716E+03    0.46339E+03   -0.39181E+04  3312   0.180E+03
DAV:   2    -0.353245100818E+02   -0.49872E+03   -0.48220E+03  4200   0.308E+02
DAV:   3    -0.813417246808E+02   -0.46017E+02   -0.44961E+02  4004   0.898E+01
DAV:   4    -0.835628997506E+02   -0.22212E+01   -0.21941E+01  5056   0.191E+01
DAV:   5    -0.836179386820E+02   -0.55039E-01   -0.54944E-01  4720   0.329E+00    0.106E+01
DAV:   6    -0.807548323869E+02    0.28631E+01   -0.92425E+00  4824   0.121E+01    0.561E+00
DAV:   7    -0.802357869586E+02    0.51905E+00   -0.31037E+00  4616   0.728E+00    0.334E+00
