 vasp.5.3.5 31Mar14 (build Nov 02 2014 15:17:37) complex                        
  
 executed on        ion-Intel-MKL date 2017.06.25  00:50:49
 running on    4 total cores
 distrk:  each k-point on    4 cores,    1 groups
 distr:  one band on NCORES_PER_BAND=   2 cores,    2 groups


--------------------------------------------------------------------------------------------------------


 INCAR:
 POTCAR:  PAW_PBE H 15Jun2001                     
 POTCAR:  PAW_PBE C 08Apr2002                     
 POTCAR:  PAW_PBE H 15Jun2001                     
   VRHFIN =H: ultrasoft test                                                    
   LEXCH  = PE                                                                  
   EATOM  =    12.4884 eV,     .9179 Ry                                         
                                                                                
   TITEL  = PAW_PBE H 15Jun2001                                                 
   LULTRA =        F    use ultrasoft PP ?                                      
   IUNSCR =        0    unscreen: 0-lin 1-nonlin 2-no                           
   RPACOR =     .000    partial core radius                                     
   POMASS =    1.000; ZVAL   =    1.000    mass and valenz                      
   RCORE  =    1.100    outmost cutoff radius                                   
   RWIGS  =     .700; RWIGS  =     .370    wigner-seitz radius (au A)           
   ENMAX  =  250.000; ENMIN  =  200.000 eV                                      
   RCLOC  =     .701    cutoff for local pot                                    
   LCOR   =        T    correct aug charges                                     
   LPAW   =        T    paw PP                                                  
   EAUG   =  400.000                                                            
   RMAX   =    2.174    core radius for proj-oper                               
   RAUG   =    1.200    factor for augmentation sphere                          
   RDEP   =    1.112    radius for radial grids                                 
   QCUT   =   -5.749; QGAM   =   11.498    optimization parameters              
                                                                                
   Description                                                                  
     l     E      TYP  RCUT    TYP  RCUT                                        
     0   .000     23  1.100                                                     
     0   .500     23  1.100                                                     
     1  -.300     23  1.100                                                     
  local pseudopotential read in
  atomic valenz-charges read in
  non local Contribution for L=           0  read in
    real space projection operators read in
  non local Contribution for L=           0  read in
    real space projection operators read in
  non local Contribution for L=           1  read in
    real space projection operators read in
    PAW grid and wavefunctions read in
 
   number of l-projection  operators is LMAX  =           3
   number of lm-projection operators is LMMAX =           5
 
 POTCAR:  PAW_PBE C 08Apr2002                     
   VRHFIN =C: s2p2                                                              
   LEXCH  = PE                                                                  
   EATOM  =   147.1560 eV,   10.8157 Ry                                         
                                                                                
   TITEL  = PAW_PBE C 08Apr2002                                                 
   LULTRA =        F    use ultrasoft PP ?                                      
   IUNSCR =        0    unscreen: 0-lin 1-nonlin 2-no                           
   RPACOR =     .000    partial core radius                                     
   POMASS =   12.011; ZVAL   =    4.000    mass and valenz                      
   RCORE  =    1.500    outmost cutoff radius                                   
   RWIGS  =    1.630; RWIGS  =     .863    wigner-seitz radius (au A)           
   ENMAX  =  400.000; ENMIN  =  300.000 eV                                      
   ICORE  =        2    local potential                                         
   LCOR   =        T    correct aug charges                                     
   LPAW   =        T    paw PP                                                  
   EAUG   =  644.873                                                            
   DEXC   =     .000                                                            
   RMAX   =    2.266    core radius for proj-oper                               
   RAUG   =    1.300    factor for augmentation sphere                          
   RDEP   =    1.501    radius for radial grids                                 
   RDEPT  =    1.300    core radius for aug-charge                              
   QCUT   =   -5.516; QGAM   =   11.032    optimization parameters              
                                                                                
   Description                                                                  
     l     E      TYP  RCUT    TYP  RCUT                                        
     0   .000     23  1.200                                                     
     0   .000     23  1.200                                                     
     1   .000     23  1.500                                                     
     1  2.500     23  1.500                                                     
     2   .000      7  1.500                                                     
  local pseudopotential read in
  atomic valenz-charges read in
  non local Contribution for L=           0  read in
    real space projection operators read in
  non local Contribution for L=           0  read in
    real space projection operators read in
  non local Contribution for L=           1  read in
    real space projection operators read in
  non local Contribution for L=           1  read in
    real space projection operators read in
    PAW grid and wavefunctions read in
 
   number of l-projection  operators is LMAX  =           4
   number of lm-projection operators is LMMAX =           8
 

 ----------------------------------------------------------------------------- 
|                                                                             |
|  ADVICE TO THIS USER RUNNING 'VASP/VAMP'   (HEAR YOUR MASTER'S VOICE ...):  |
|                                                                             |
|      You have a (more or less) 'large supercell' and for larger cells       |
|      it might be more efficient to use real space projection operators      |
|      So try LREAL= Auto  in the INCAR   file.                               |
|      Mind: If you want to do a very accurate calculations keep the          |
|      reciprocal projection scheme          (i.e. LREAL=.FALSE.)             |
|                                                                             |
 ----------------------------------------------------------------------------- 

PAW_PBE H 15Jun2001                     :
 energy of atom  1       EATOM=  -12.4884
 kinetic energy error for atom=    0.0004 (will be added to EATOM!!)
PAW_PBE C 08Apr2002                     :
 energy of atom  2       EATOM= -147.1560
 kinetic energy error for atom=    0.0057 (will be added to EATOM!!)
 
 
 POSCAR: methane-low                             
  positions in direct lattice
  velocities in cartesian coordinates
 exchange correlation table for  LEXCH =        8
   RHO(1)=    0.500       N(1)  =     2000
   RHO(2)=  100.500       N(2)  =     4000
 


--------------------------------------------------------------------------------------------------------


 ion  position               nearest neighbor table
   1  0.075  0.779  0.262-  68 1.10
   2  0.925  0.221  0.738-  67 1.10
   3  0.925  0.721  0.762-  66 1.10
   4  0.075  0.279  0.238-  65 1.10
   5  0.925  0.279  0.238-  65 1.10
   6  0.075  0.721  0.762-  66 1.10
   7  0.075  0.221  0.738-  67 1.10
   8  0.925  0.779  0.262-  68 1.10
   9  0.575  0.279  0.262-  72 1.10
  10  0.425  0.721  0.738-  71 1.10
  11  0.425  0.221  0.762-  70 1.10
  12  0.575  0.779  0.238-  69 1.10
  13  0.425  0.779  0.238-  69 1.10
  14  0.575  0.221  0.762-  70 1.10
  15  0.575  0.721  0.738-  71 1.10
  16  0.425  0.279  0.262-  72 1.10
  17  0.803  0.582  0.932-  73 1.10
  18  0.197  0.418  0.068-  74 1.10
  19  0.197  0.918  0.432-  75 1.10
  20  0.803  0.082  0.568-  76 1.10
  21  0.197  0.082  0.568-  75 1.10
  22  0.803  0.918  0.432-  76 1.10
  23  0.803  0.418  0.068-  73 1.10
  24  0.197  0.582  0.932-  74 1.10
  25  0.303  0.082  0.932-  77 1.10
  26  0.697  0.918  0.068-  78 1.10
  27  0.697  0.418  0.432-  79 1.10
  28  0.303  0.582  0.568-  80 1.10
  29  0.697  0.582  0.568-  79 1.10
  30  0.303  0.418  0.432-  80 1.10
  31  0.303  0.918  0.068-  77 1.10
  32  0.697  0.082  0.932-  78 1.10
  33  0.697  0.569  0.082-  73 1.10
  34  0.303  0.431  0.918-  74 1.10
  35  0.303  0.931  0.582-  75 1.10
  36  0.697  0.069  0.418-  76 1.10
  37  0.303  0.069  0.418-  75 1.10
  38  0.697  0.931  0.582-  76 1.10
  39  0.697  0.431  0.918-  73 1.10
  40  0.303  0.569  0.082-  74 1.10
  41  0.197  0.069  0.082-  77 1.10
  42  0.803  0.931  0.918-  78 1.10
  43  0.803  0.431  0.582-  79 1.10
  44  0.197  0.569  0.418-  80 1.10
  45  0.803  0.569  0.418-  79 1.10
  46  0.197  0.431  0.582-  80 1.10
  47  0.197  0.931  0.918-  77 1.10
  48  0.803  0.069  0.082-  78 1.10
  49  0.000  0.601  0.207-  68 1.10
  50  0.000  0.399  0.793-  67 1.10
  51  0.000  0.899  0.707-  66 1.10
  52  0.000  0.101  0.293-  65 1.10
  53  0.500  0.101  0.207-  72 1.10
  54  0.500  0.899  0.793-  71 1.10
  55  0.500  0.399  0.707-  70 1.10
  56  0.500  0.601  0.293-  69 1.10
  57  0.000  0.228  0.924-  67 1.10
  58  0.000  0.772  0.076-  68 1.10
  59  0.000  0.272  0.424-  65 1.10
  60  0.000  0.728  0.576-  66 1.10
  61  0.500  0.728  0.924-  71 1.10
  62  0.500  0.272  0.076-  72 1.10
  63  0.500  0.772  0.424-  69 1.10
  64  0.500  0.228  0.576-  70 1.10
  65  0.000  0.233  0.298-  52 1.10  59 1.10   5 1.10   4 1.10
  66  0.000  0.767  0.702-  51 1.10  60 1.10   3 1.10   6 1.10
  67  0.000  0.267  0.798-  50 1.10  57 1.10   2 1.10   7 1.10
  68  0.000  0.733  0.202-  49 1.10  58 1.10   8 1.10   1 1.10
  69  0.500  0.733  0.298-  56 1.10  63 1.10  12 1.10  13 1.10
  70  0.500  0.267  0.702-  55 1.10  64 1.10  14 1.10  11 1.10
  71  0.500  0.767  0.798-  54 1.10  61 1.10  15 1.10  10 1.10
  72  0.500  0.233  0.202-  53 1.10  62 1.10   9 1.10  16 1.10
  73  0.750  0.500  0.000-  17 1.10  23 1.10  33 1.10  39 1.10
  74  0.250  0.500  0.000-  18 1.10  24 1.10  34 1.10  40 1.10
  75  0.250  0.000  0.500-  19 1.10  21 1.10  35 1.10  37 1.10
  76  0.750  0.000  0.500-  20 1.10  22 1.10  38 1.10  36 1.10
  77  0.250  0.000  0.000-  25 1.10  31 1.10  47 1.10  41 1.10
  78  0.750  0.000  0.000-  26 1.10  32 1.10  42 1.10  48 1.10
  79  0.750  0.500  0.500-  27 1.10  29 1.10  43 1.10  45 1.10
  80  0.250  0.500  0.500-  28 1.10  30 1.10  44 1.10  46 1.10
 
  LATTYP: Found a simple orthorhombic cell.
 ALAT       =     8.3447155503
 B/A-ratio  =     1.0006230659
 C/A-ratio  =     1.4305490624
  
  Lattice vectors:
  
 A1 = (   0.0000000000,   0.0000000000,  -8.3447155503)
 A2 = (   0.0000000000,  -8.3499148584,   0.0000000000)
 A3 = ( -11.9375250069,   0.0000000000,   0.0000000000)


Analysis of symmetry for initial positions (statically):
=====================================================================
 Subroutine PRICEL returns following result:
 
  LATTYP: Found a base centered orthorhombic cell.
 ALAT       =     8.3499148584
 B/A-ratio  =     1.4296582910
 C/A-ratio  =     0.9993773220
  
  Lattice vectors:
  
 A1 = (   5.9687625035,  -4.1749574292,   0.0000000000)
 A2 = (  -5.9687625035,  -4.1749574292,   0.0000000000)
 A3 = (   0.0000000000,   0.0000000000,  -8.3447155503)
 
   2 primitive cells build up your supercell.
 

 Routine SETGRP: Setting up the symmetry group for a 
 simple orthorhombic supercell.


 Subroutine GETGRP returns: Found  8 space group operations
 (whereof  4 operations were pure point group operations)
 out of a pool of  8 trial point group operations.


The static configuration has the point symmetry C_2h.
 The point group associated with its full space group is D_2h.


Analysis of symmetry for dynamics (positions and initial velocities):
=====================================================================
 Subroutine PRICEL returns following result:
 
  LATTYP: Found a base centered orthorhombic cell.
 ALAT       =     8.3499148584
 B/A-ratio  =     1.4296582910
 C/A-ratio  =     0.9993773220
  
  Lattice vectors:
  
 A1 = (   5.9687625035,  -4.1749574292,   0.0000000000)
 A2 = (  -5.9687625035,  -4.1749574292,   0.0000000000)
 A3 = (   0.0000000000,   0.0000000000,  -8.3447155503)
 
   2 primitive cells build up your supercell.
 

 Routine SETGRP: Setting up the symmetry group for a 
 simple orthorhombic supercell.


 Subroutine GETGRP returns: Found  8 space group operations
 (whereof  4 operations were pure point group operations)
 out of a pool of  8 trial point group operations.


The dynamic configuration has the point symmetry C_2h.
 The point group associated with its full space group is D_2h.
 
 
 KPOINTS: B4C B11C-CBC                            

Automatic generation of k-mesh.
Space group operators:
 irot       det(A)        alpha          n_x          n_y          n_z        tau_x        tau_y        tau_z
    1     1.000000     0.000000     1.000000     0.000000     0.000000     0.000000     0.000000     0.000000
    2    -1.000000     0.000000     1.000000     0.000000     0.000000     0.000000     0.000000     0.000000
    3     1.000000   180.000000     1.000000     0.000000     0.000000     0.000000     0.000000     0.000000
    4    -1.000000   180.000000     1.000000     0.000000     0.000000     0.000000     0.000000     0.000000
    5     1.000000   180.000000     0.000000     1.000000     0.000000     0.000000    -0.500000    -0.500000
    6    -1.000000   180.000000     0.000000     1.000000     0.000000     0.000000    -0.500000    -0.500000
    7     1.000000   180.000000     0.000000     0.000000     1.000000     0.000000    -0.500000    -0.500000
    8    -1.000000   180.000000     0.000000     0.000000     1.000000     0.000000    -0.500000    -0.500000
 
 Subroutine IBZKPT returns following result:
 ===========================================
 
 Found     27 irreducible k-points:
 
 Following reciprocal coordinates:
            Coordinates               Weight
  0.000000  0.000000  0.000000      1.000000
  0.250000  0.000000  0.000000      2.000000
  0.500000  0.000000  0.000000      1.000000
  0.000000  0.250000  0.000000      2.000000
  0.250000  0.250000  0.000000      4.000000
  0.500000  0.250000  0.000000      2.000000
  0.000000  0.500000  0.000000      1.000000
  0.250000  0.500000  0.000000      2.000000
  0.500000  0.500000  0.000000      1.000000
  0.000000  0.000000  0.250000      2.000000
  0.250000  0.000000  0.250000      4.000000
  0.500000  0.000000  0.250000      2.000000
  0.000000  0.250000  0.250000      4.000000
  0.250000  0.250000  0.250000      8.000000
  0.500000  0.250000  0.250000      4.000000
  0.000000  0.500000  0.250000      2.000000
  0.250000  0.500000  0.250000      4.000000
  0.500000  0.500000  0.250000      2.000000
  0.000000  0.000000  0.500000      1.000000
  0.250000  0.000000  0.500000      2.000000
  0.500000  0.000000  0.500000      1.000000
  0.000000  0.250000  0.500000      2.000000
  0.250000  0.250000  0.500000      4.000000
  0.500000  0.250000  0.500000      2.000000
  0.000000  0.500000  0.500000      1.000000
  0.250000  0.500000  0.500000      2.000000
  0.500000  0.500000  0.500000      1.000000
 
 Following cartesian coordinates:
            Coordinates               Weight
  0.000000  0.000000  0.000000      1.000000
  0.021353  0.000000  0.000000      2.000000
  0.042706  0.000000  0.000000      1.000000
  0.000000  0.030528  0.000000      2.000000
  0.021353  0.030528  0.000000      4.000000
  0.042706  0.030528  0.000000      2.000000
  0.000000  0.061055  0.000000      1.000000
  0.021353  0.061055  0.000000      2.000000
  0.042706  0.061055  0.000000      1.000000
  0.000000  0.000000  0.030547      2.000000
  0.021353  0.000000  0.030547      4.000000
  0.042706  0.000000  0.030547      2.000000
  0.000000  0.030528  0.030547      4.000000
  0.021353  0.030528  0.030547      8.000000
  0.042706  0.030528  0.030547      4.000000
  0.000000  0.061055  0.030547      2.000000
  0.021353  0.061055  0.030547      4.000000
  0.042706  0.061055  0.030547      2.000000
  0.000000  0.000000  0.061093      1.000000
  0.021353  0.000000  0.061093      2.000000
  0.042706  0.000000  0.061093      1.000000
  0.000000  0.030528  0.061093      2.000000
  0.021353  0.030528  0.061093      4.000000
  0.042706  0.030528  0.061093      2.000000
  0.000000  0.061055  0.061093      1.000000
  0.021353  0.061055  0.061093      2.000000
  0.042706  0.061055  0.061093      1.000000
 
 TETIRR: Found    192 inequivalent tetrahedra from      384


--------------------------------------------------------------------------------------------------------




 Dimension of arrays:
   k-points           NKPTS =     27   k-points in BZ     NKDIM =     27   number of bands    NBANDS=    106
   number of dos      NEDOS =    301   number of ions     NIONS =     80
   non local maximal  LDIM  =      4   non local SUM 2l+1 LMDIM =      8
   total plane-waves  NPLWV = 180000
   max r-space proj   IRMAX =      1   max aug-charges    IRDMAX=   2753
   dimension x,y,z NGX =    72 NGY =   50 NGZ =   50
   dimension x,y,z NGXF=   144 NGYF=  100 NGZF=  100
   support grid    NGXF=   144 NGYF=  100 NGZF=  100
   ions per type =              64  16
 NGX,Y,Z   is equivalent  to a cutoff of  10.03,  9.95,  9.96 a.u.
 NGXF,Y,Z  is equivalent  to a cutoff of  20.05, 19.91, 19.92 a.u.


 I would recommend the setting:
   dimension x,y,z NGX =    72 NGY =   50 NGZ =   50
 SYSTEM =  diamond                                 
 POSCAR =  methane-low                             

 Startparameter for this run:
   NWRITE =      2    write-flag & timer
   PREC   = normal    normal or accurate (medium, high low for compatibility)
   ISTART =      0    job   : 0-new  1-cont  2-samecut
   ICHARG =      2    charge: 1-file 2-atom 10-const
   ISPIN  =      1    spin polarized calculation?
   LNONCOLLINEAR =      F non collinear calculations
   LSORBIT =      F    spin-orbit coupling
   INIWAV =      1    electr: 0-lowe 1-rand  2-diag
   LASPH  =      F    aspherical Exc in radial PAW
   METAGGA=      F    non-selfconsistent MetaGGA calc.

 Electronic Relaxation 1
   ENCUT  =  600.0 eV  44.10 Ry    6.64 a.u.  23.84 16.68 16.67*2*pi/ulx,y,z
   ENINI  =  600.0     initial cutoff
   ENAUG  =  644.9 eV  augmentation charge cutoff
   NELM   =    200;   NELMIN=  2; NELMDL=  0     # of ELM steps 
   EDIFF  = 0.1E-05   stopping-criterion for ELM
   LREAL  =      F    real-space projection
   NLSPLINE    = F    spline interpolate recip. space projectors
   LCOMPAT=      F    compatible to vasp.4.4
   GGA_COMPAT  = T    GGA compatible to vasp.4.4-vasp.4.6
   LMAXPAW     = -100 max onsite density
   LMAXMIX     =    2 max onsite mixed and CHGCAR
   VOSKOWN=      0    Vosko Wilk Nusair interpolation
   ROPT   =    0.00000   0.00000
 Ionic relaxation
   EDIFFG = 0.1E-03   stopping-criterion for IOM
   NSW    =    200    number of steps for IOM
   NBLOCK =      1;   KBLOCK =    200    inner block; outer block 
   IBRION =      2    ionic relax: 0-MD 1-quasi-New 2-CG
   NFREE  =      1    steps in history (QN), initial steepest desc. (CG)
   ISIF   =      2    stress and relaxation
   IWAVPR =     11    prediction:  0-non 1-charg 2-wave 3-comb
   ISYM   =      2    0-nonsym 1-usesym 2-fastsym
   LCORR  =      T    Harris-Foulkes like correction to forces

   POTIM  = 0.5000    time-step for ionic-motion
   TEIN   =    0.0    initial temperature
   TEBEG  =    0.0;   TEEND  =   0.0 temperature during run
   SMASS  =  -3.00    Nose mass-parameter (am)
   estimated Nose-frequenzy (Omega)   =  0.10E-29 period in steps =****** mass=  -0.326E-26a.u.
   SCALEE = 1.0000    scale energy and forces
   NPACO  =    256;   APACO  = 16.0  distance and # of slots for P.C.
   PSTRESS=    0.0 pullay stress

  Mass of Ions in am
   POMASS =   1.00 12.01
  Ionic Valenz
   ZVAL   =   1.00  4.00
  Atomic Wigner-Seitz radii
   RWIGS  =  -1.00 -1.00
  virtual crystal weights 
   VCA    =   1.00  1.00
   NELECT =     128.0000    total number of electrons
   NUPDOWN=      -1.0000    fix difference up-down

 DOS related values:
   EMIN   =  10.00;   EMAX   =-10.00  energy-range for DOS
   EFERMI =   0.00
   ISMEAR =    -5;   SIGMA  =   0.20  broadening in eV -4-tet -1-fermi 0-gaus

 Electronic relaxation 2 (details)
   IALGO  =     38    algorithm
   LDIAG  =      T    sub-space diagonalisation (order eigenvalues)
   LSUBROT=      F    optimize rotation matrix (better conditioning)
   TURBO    =      0    0=normal 1=particle mesh
   IRESTART =      0    0=no restart 2=restart with 2 vectors
   NREBOOT  =      0    no. of reboots
   NMIN     =      0    reboot dimension
   EREF     =   0.00    reference energy to select bands
   IMIX   =      4    mixing-type and parameters
     AMIX     =   0.40;   BMIX     =  1.00
     AMIX_MAG =   1.60;   BMIX_MAG =  1.00
     AMIN     =   0.10
     WC   =   100.;   INIMIX=   1;  MIXPRE=   1;  MAXMIX= -45

 Intra band minimization:
   WEIMIN = 0.0010     energy-eigenvalue tresh-hold
   EBREAK =  0.24E-08  absolut break condition
   DEPER  =   0.30     relativ break condition  

   TIME   =   0.40     timestep for ELM

  volume/ion in A,a.u.               =      10.40        70.16
  Fermi-wavevector in a.u.,A,eV,Ry     =   0.877288  1.657834 10.471510  0.769634
  Thomas-Fermi vector in A             =   1.997216
 
 Write flags
   LWAVE  =      F    write WAVECAR
   LCHARG =      F    write CHGCAR
   LVTOT  =      F    write LOCPOT, total local potential
   LVHAR  =      F    write LOCPOT, Hartree potential only
   LELF   =      F    write electronic localiz. function (ELF)
   LORBIT =      0    0 simple, 1 ext, 2 COOP (PROOUT)


 Dipole corrections
   LMONO  =      F    monopole corrections only (constant potential shift)
   LDIPOL =      F    correct potential (dipole corrections)
   IDIPOL =      0    1-x, 2-y, 3-z, 4-all directions 
   EPSILON=  1.0000000 bulk dielectric constant

 Exchange correlation treatment:
   GGA     =    --    GGA type
   LEXCH   =     8    internal setting for exchange type
   VOSKOWN=      0    Vosko Wilk Nusair interpolation
   LHFCALC =     F    Hartree Fock is set to
   LHFONE  =     F    Hartree Fock one center treatment
   AEXX    =    0.0000 exact exchange contribution

 Linear response parameters
   LEPSILON=     F    determine dielectric tensor
   LRPA    =     F    only Hartree local field effects (RPA)
   LNABLA  =     F    use nabla operator in PAW spheres
   LVEL    =     F    velocity operator in full k-point grid
   LINTERFAST=   F  fast interpolation
   KINTER  =     0    interpolate to denser k-point grid
   CSHIFT  =0.1000    complex shift for real part using Kramers Kronig
   OMEGAMAX=  -1.0    maximum frequency
   DEG_THRESHOLD= 0.2000000E-02 threshold for treating states as degnerate
   RTIME   =    0.100 relaxation time in fs

 Orbital magnetization related:
   ORBITALMAG=     F  switch on orbital magnetization
   LCHIMAG   =     F  perturbation theory with respect to B field
   DQ        =  0.001000  dq finite difference perturbation B field



--------------------------------------------------------------------------------------------------------


 conjugate gradient relaxation of ions
 charge density and potential will be updated during run
 non-spin polarized calculation
 Variant of blocked Davidson
 Davidson routine will perform the subspace rotation
 perform sub-space diagonalisation
    after iterative eigenvector-optimisation
 modified Broyden-mixing scheme, WC =      100.0
 initial mixing is a Kerker type mixing with AMIX =  0.4000 and BMIX =      1.0000
 Hartree-type preconditioning will be used
 using additional bands           42
 reciprocal scheme for non local part
 calculate Harris-corrections to forces 
   (improved forces if not selfconsistent)
 use gradient corrections 
 use of overlap-Matrix (Vanderbilt PP)
 Fermi weights with tetrahedron method with Bloechl corrections


--------------------------------------------------------------------------------------------------------


  energy-cutoff  :      600.00
  volume of cell :      831.78
      direct lattice vectors                 reciprocal lattice vectors
    11.937525007  0.000000000  0.000000000     0.083769458  0.000000000  0.000000000
     0.000000000  8.349914858  0.000000000     0.000000000  0.119761700  0.000000000
     0.000000000  0.000000000  8.344715550     0.000000000  0.000000000  0.119836320

  length of vectors
    11.937525007  8.349914858  8.344715550     0.083769458  0.119761700  0.119836320


 
 k-points in units of 2pi/SCALE and weight: B4C B11C-CBC                            
   0.00000000  0.00000000  0.00000000       0.016
   0.02135310  0.00000000  0.00000000       0.031
   0.04270621  0.00000000  0.00000000       0.016
   0.00000000  0.03052764  0.00000000       0.031
   0.02135310  0.03052764  0.00000000       0.062
   0.04270621  0.03052764  0.00000000       0.031
   0.00000000  0.06105528  0.00000000       0.016
   0.02135310  0.06105528  0.00000000       0.031
   0.04270621  0.06105528  0.00000000       0.016
   0.00000000  0.00000000  0.03054666       0.031
   0.02135310  0.00000000  0.03054666       0.062
   0.04270621  0.00000000  0.03054666       0.031
   0.00000000  0.03052764  0.03054666       0.062
   0.02135310  0.03052764  0.03054666       0.125
   0.04270621  0.03052764  0.03054666       0.062
   0.00000000  0.06105528  0.03054666       0.031
   0.02135310  0.06105528  0.03054666       0.062
   0.04270621  0.06105528  0.03054666       0.031
   0.00000000  0.00000000  0.06109332       0.016
   0.02135310  0.00000000  0.06109332       0.031
   0.04270621  0.00000000  0.06109332       0.016
   0.00000000  0.03052764  0.06109332       0.031
   0.02135310  0.03052764  0.06109332       0.062
   0.04270621  0.03052764  0.06109332       0.031
   0.00000000  0.06105528  0.06109332       0.016
   0.02135310  0.06105528  0.06109332       0.031
   0.04270621  0.06105528  0.06109332       0.016
 
 k-points in reciprocal lattice and weights: B4C B11C-CBC                            
   0.00000000  0.00000000  0.00000000       0.016
   0.25000000  0.00000000  0.00000000       0.031
   0.50000000  0.00000000  0.00000000       0.016
   0.00000000  0.25000000  0.00000000       0.031
   0.25000000  0.25000000  0.00000000       0.062
   0.50000000  0.25000000  0.00000000       0.031
   0.00000000  0.50000000  0.00000000       0.016
   0.25000000  0.50000000  0.00000000       0.031
   0.50000000  0.50000000  0.00000000       0.016
   0.00000000  0.00000000  0.25000000       0.031
   0.25000000  0.00000000  0.25000000       0.062
   0.50000000  0.00000000  0.25000000       0.031
   0.00000000  0.25000000  0.25000000       0.062
   0.25000000  0.25000000  0.25000000       0.125
   0.50000000  0.25000000  0.25000000       0.062
   0.00000000  0.50000000  0.25000000       0.031
   0.25000000  0.50000000  0.25000000       0.062
   0.50000000  0.50000000  0.25000000       0.031
   0.00000000  0.00000000  0.50000000       0.016
   0.25000000  0.00000000  0.50000000       0.031
   0.50000000  0.00000000  0.50000000       0.016
   0.00000000  0.25000000  0.50000000       0.031
   0.25000000  0.25000000  0.50000000       0.062
   0.50000000  0.25000000  0.50000000       0.031
   0.00000000  0.50000000  0.50000000       0.016
   0.25000000  0.50000000  0.50000000       0.031
   0.50000000  0.50000000  0.50000000       0.016
 
 position of ions in fractional coordinates (direct lattice) 
   0.07496258  0.77863942  0.26175302
   0.92503744  0.22136058  0.73824701
   0.92503744  0.72136058  0.76175299
   0.07496258  0.27863942  0.23824698
   0.92503744  0.27863942  0.23824698
   0.07496258  0.72136058  0.76175299
   0.07496258  0.22136058  0.73824701
   0.92503744  0.77863942  0.26175302
   0.57496256  0.27863942  0.26175302
   0.42503741  0.72136058  0.73824701
   0.42503741  0.22136058  0.76175299
   0.57496256  0.77863942  0.23824698
   0.42503741  0.77863942  0.23824698
   0.57496256  0.22136058  0.76175299
   0.57496256  0.72136058  0.73824701
   0.42503741  0.27863942  0.26175302
   0.80278266  0.58221714  0.93157996
   0.19721734  0.41778286  0.06842004
   0.19721734  0.91778286  0.43157996
   0.80278266  0.08221714  0.56842004
   0.19721734  0.08221714  0.56842004
   0.80278266  0.91778286  0.43157996
   0.80278266  0.41778286  0.06842004
   0.19721734  0.58221714  0.93157996
   0.30278266  0.08221714  0.93157996
   0.69721734  0.91778286  0.06842004
   0.69721734  0.41778286  0.43157996
   0.30278266  0.58221714  0.56842004
   0.69721734  0.58221714  0.56842004
   0.30278266  0.41778286  0.43157996
   0.30278266  0.91778286  0.06842004
   0.69721734  0.08221714  0.93157996
   0.69676663  0.56851243  0.08242000
   0.30323337  0.43148757  0.91758000
   0.30323337  0.93148757  0.58242000
   0.69676663  0.06851243  0.41758000
   0.30323337  0.06851243  0.41758000
   0.69676663  0.93148757  0.58242000
   0.69676663  0.43148757  0.91758000
   0.30323337  0.56851243  0.08242000
   0.19676663  0.06851243  0.08242000
   0.80323337  0.93148757  0.91758000
   0.80323337  0.43148757  0.58242000
   0.19676663  0.56851243  0.41758000
   0.80323337  0.56851243  0.41758000
   0.19676663  0.43148757  0.58242000
   0.19676663  0.93148757  0.91758000
   0.80323337  0.06851243  0.08242000
   0.00000000  0.60141758  0.20663685
   0.00000000  0.39858242  0.79336312
   0.00000000  0.89858242  0.70663688
   0.00000000  0.10141758  0.29336315
   0.50000000  0.10141758  0.20663685
   0.50000000  0.89858242  0.79336312
   0.50000000  0.39858242  0.70663688
   0.50000000  0.60141758  0.29336315
   0.00000000  0.22802544  0.92368784
   0.00000000  0.77197456  0.07631216
   0.00000000  0.27197456  0.42368784
   0.00000000  0.72802544  0.57631216
   0.50000000  0.72802544  0.92368784
   0.50000000  0.27197456  0.07631216
   0.50000000  0.77197456  0.42368784
   0.50000000  0.22802544  0.57631216
   0.00000000  0.23254117  0.29842156
   0.00000000  0.76745883  0.70157842
   0.00000000  0.26745883  0.79842158
   0.00000000  0.73254117  0.20157842
   0.50000000  0.73254117  0.29842156
   0.50000000  0.26745883  0.70157842
   0.50000000  0.76745883  0.79842158
   0.50000000  0.23254117  0.20157842
   0.74967585  0.50000000  0.00000000
   0.25032415  0.50000000  0.00000000
   0.25032415  0.00000000  0.50000000
   0.74967585  0.00000000  0.50000000
   0.24967585  0.00000000  0.00000000
   0.75032415  0.00000000  0.00000000
   0.75032415  0.50000000  0.50000000
   0.24967585  0.50000000  0.50000000
 
 position of ions in cartesian coordinates  (Angst):
   0.89486767  6.50157290  2.18425451
  11.04265760  1.84834196  6.16046129
  11.04265760  6.02329939  6.35661204
   0.89486767  2.32661547  1.98810327
  11.04265760  2.32661547  1.98810327
   0.89486767  6.02329939  6.35661204
   0.89486767  1.84834196  6.16046129
  11.04265760  6.50157290  2.18425451
   6.86362991  2.32661547  2.18425451
   5.07389475  6.02329939  6.16046129
   5.07389475  1.84834196  6.35661204
   6.86362991  6.50157290  1.98810327
   5.07389475  6.50157290  1.98810327
   6.86362991  1.84834196  6.35661204
   6.86362991  6.02329939  6.16046129
   5.07389475  2.32661547  2.18425451
   9.58323813  4.86146358  7.77376980
   2.35428688  3.48845128  0.57094575
   2.35428688  7.66340871  3.60141202
   9.58323813  0.68650615  4.74330353
   2.35428688  0.68650615  4.74330353
   9.58323813  7.66340871  3.60141202
   9.58323813  3.48845128  0.57094575
   2.35428688  4.86146358  7.77376980
   3.61447563  0.68650615  7.77376980
   8.32304938  7.66340871  0.57094575
   8.32304938  3.48845128  3.60141202
   3.61447563  4.86146358  4.74330353
   8.32304938  4.86146358  4.74330353
   3.61447563  3.48845128  3.60141202
   3.61447563  7.66340871  0.57094575
   8.32304938  0.68650615  7.77376980
   8.31766907  4.74703043  0.68777146
   3.61985594  3.60288443  7.65694409
   3.61985594  7.77784186  4.86012923
   8.31766907  0.57207300  3.48458632
   3.61985594  0.57207300  3.48458632
   8.31766907  7.77784186  4.86012923
   8.31766907  3.60288443  7.65694409
   3.61985594  4.74703043  0.68777146
   2.34890656  0.57207300  0.68777146
   9.58861844  7.77784186  7.65694409
   9.58861844  3.60288443  4.86012923
   2.34890656  4.74703043  3.48458632
   9.58861844  4.74703043  3.48458632
   2.34890656  3.60288443  4.86012923
   2.34890656  7.77784186  7.65694409
   9.58861844  0.57207300  0.68777146
   0.00000000  5.02178555  1.72432575
   0.00000000  3.32812931  6.62038955
   0.00000000  7.50308673  5.89668377
   0.00000000  0.84682812  2.44803203
   5.96876250  0.84682812  1.72432575
   5.96876250  7.50308673  6.62038955
   5.96876250  3.32812931  5.89668377
   5.96876250  5.02178555  2.44803203
   0.00000000  1.90399301  7.70791226
   0.00000000  6.44592185  0.63680329
   0.00000000  2.27096442  3.53555449
   0.00000000  6.07895044  4.80916106
   5.96876250  6.07895044  7.70791226
   5.96876250  2.27096442  0.63680329
   5.96876250  6.44592185  3.53555449
   5.96876250  1.90399301  4.80916106
   0.00000000  1.94169894  2.49024305
   0.00000000  6.40821591  5.85447238
   0.00000000  2.23325848  6.66260095
   0.00000000  6.11665637  1.68211460
   5.96876250  6.11665637  2.49024305
   5.96876250  2.23325848  5.85447238
   5.96876250  6.40821591  6.66260095
   5.96876250  1.94169894  1.68211460
   8.94927418  4.17495743  0.00000000
   2.98825083  4.17495743  0.00000000
   2.98825083  0.00000000  4.17235778
   8.94927418  0.00000000  4.17235778
   2.98051167  0.00000000  0.00000000
   8.95701333  0.00000000  0.00000000
   8.95701333  4.17495743  4.17235778
   2.98051167  4.17495743  4.17235778
 


--------------------------------------------------------------------------------------------------------


 k-point  1 :   0.0000 0.0000 0.0000  plane waves:   27811
 k-point  2 :   0.2500 0.0000 0.0000  plane waves:   27772
 k-point  3 :   0.5000 0.0000 0.0000  plane waves:   27784
 k-point  4 :   0.0000 0.2500 0.0000  plane waves:   27753
 k-point  5 :   0.2500 0.2500 0.0000  plane waves:   27769
 k-point  6 :   0.5000 0.2500 0.0000  plane waves:   27778
 k-point  7 :   0.0000 0.5000 0.0000  plane waves:   27734
 k-point  8 :   0.2500 0.5000 0.0000  plane waves:   27744
 k-point  9 :   0.5000 0.5000 0.0000  plane waves:   27788
 k-point 10 :   0.0000 0.0000 0.2500  plane waves:   27757
 k-point 11 :   0.2500 0.0000 0.2500  plane waves:   27763
 k-point 12 :   0.5000 0.0000 0.2500  plane waves:   27774
 k-point 13 :   0.0000 0.2500 0.2500  plane waves:   27752
 k-point 14 :   0.2500 0.2500 0.2500  plane waves:   27763
 k-point 15 :   0.5000 0.2500 0.2500  plane waves:   27746
 k-point 16 :   0.0000 0.5000 0.2500  plane waves:   27742
 k-point 17 :   0.2500 0.5000 0.2500  plane waves:   27746
 k-point 18 :   0.5000 0.5000 0.2500  plane waves:   27764
 k-point 19 :   0.0000 0.0000 0.5000  plane waves:   27742
 k-point 20 :   0.2500 0.0000 0.5000  plane waves:   27752
 k-point 21 :   0.5000 0.0000 0.5000  plane waves:   27780
 k-point 22 :   0.0000 0.2500 0.5000  plane waves:   27758
 k-point 23 :   0.2500 0.2500 0.5000  plane waves:   27740
 k-point 24 :   0.5000 0.2500 0.5000  plane waves:   27768
 k-point 25 :   0.0000 0.5000 0.5000  plane waves:   27704
 k-point 26 :   0.2500 0.5000 0.5000  plane waves:   27780
 k-point 27 :   0.5000 0.5000 0.5000  plane waves:   27760

 maximum and minimum number of plane-waves per node :     13917    13840

 maximum number of plane-waves:     27811
 maximum index in each direction: 
   IXMAX=   23   IYMAX=   16   IZMAX=   16
   IXMIN=  -24   IYMIN=  -17   IZMIN=  -17

 WARNING: aliasing errors must be expected set NGX to  96 to avoid them
 WARNING: aliasing errors must be expected set NGY to  68 to avoid them
 WARNING: aliasing errors must be expected set NGZ to  68 to avoid them
 aliasing errors are usually negligible using standard VASP settings
 and one can safely disregard these warnings

 parallel 3D FFT for wavefunctions:
    minimum data exchange during FFTs selected (reduces bandwidth)
 parallel 3D FFT for charge:
    minimum data exchange during FFTs selected (reduces bandwidth)


 total amount of memory used by VASP on root node   459016. kBytes
========================================================================

   base      :      30000. kBytes
   nonl-proj :      65915. kBytes
   fftplans  :      15108. kBytes
   grid      :      24076. kBytes
   one-center:        122. kBytes
   wavefun   :     323795. kBytes
 
     INWAV:  cpu time    0.00: real time    0.00
 Broyden mixing: mesh for mixing (old mesh)
   NGX = 47   NGY = 33   NGZ = 33
  (NGX  =144   NGY  =100   NGZ  =100)
  gives a total of  51183 points

 initial charge density was supplied:
 charge density of overlapping atoms calculated
 number of electron     128.0000000 magnetization 
 keeping initial charge density in first step


--------------------------------------------------------------------------------------------------------


 Maximum index for augmentation-charges          617 (set IRDMAX)


--------------------------------------------------------------------------------------------------------


 First call to EWALD:  gamma=   0.188
 Maximum number of real-space cells 2x 3x 3
 Maximum number of reciprocal cells 3x 2x 2

 FEWALD executed in parallel
    FEWALD:  cpu time    0.06: real time    0.06


----------------------------------------- Iteration    1(   1)  ---------------------------------------


    POTLOK:  cpu time    0.68: real time    0.71
    SETDIJ:  cpu time    0.07: real time    0.07
     EDDAV:  cpu time  215.61: real time  314.20
 BZINTS: Fermi energy:  5.840724;128.000000 electrons
         Band energy:-714.372170;  BLOECHL correction: -0.002878
       DOS:  cpu time    0.04: real time    0.08
    --------------------------------------------
      LOOP:  cpu time  216.40: real time  315.09

 eigenvalue-minimisations  :  5724
 total energy-change (2. order) : 0.4518905E+03  (-0.5463403E+04)
 number of electron     128.0000000 magnetization 
 augmentation part      128.0000000 magnetization 

 Free energy of the ion-electron system (eV)
  ---------------------------------------------------
  alpha Z        PSCENC =        74.14856129
  Ewald energy   TEWEN  =     -1216.90217279
  -Hartree energ DENC   =     -1192.41641713
  -exchange      EXHF   =         0.00000000
  -V(xc)+E(xc)   XCENC  =       366.78101948
  PAW double counting   =       655.30793496     -674.29210410
  entropy T*S    EENTRO =         0.00000000
  eigenvalues    EBANDS =      -714.37217017
  atomic energy  EATOM  =      3153.63586372
  ---------------------------------------------------
  free energy    TOTEN  =       451.89051526 eV

  energy without entropy =      451.89051526  energy(sigma->0) =      451.89051526


--------------------------------------------------------------------------------------------------------




----------------------------------------- Iteration    1(   2)  ---------------------------------------


     EDDAV:  cpu time  249.75: real time  394.81
 BZINTS: Fermi energy: -6.970378;128.000000 electrons
         Band energy:***********;  BLOECHL correction:  0.000000
       DOS:  cpu time    0.01: real time    0.01
    --------------------------------------------
      LOOP:  cpu time  249.76: real time  394.83

 eigenvalue-minimisations  :  6870
 total energy-change (2. order) :-0.8026240E+03  (-0.7812495E+03)
 number of electron     128.0000000 magnetization 
 augmentation part      128.0000000 magnetization 

 Free energy of the ion-electron system (eV)
  ---------------------------------------------------
  alpha Z        PSCENC =        74.14856129
  Ewald energy   TEWEN  =     -1216.90217279
  -Hartree energ DENC   =     -1192.41641713
  -exchange      EXHF   =         0.00000000
  -V(xc)+E(xc)   XCENC  =       366.78101948
  PAW double counting   =       655.30793496     -674.29210410
  entropy T*S    EENTRO =         0.00000000
  eigenvalues    EBANDS =     -1516.99618591
  atomic energy  EATOM  =      3153.63586372
  ---------------------------------------------------
  free energy    TOTEN  =      -350.73350049 eV

  energy without entropy =     -350.73350049  energy(sigma->0) =     -350.73350049


--------------------------------------------------------------------------------------------------------




----------------------------------------- Iteration    1(   3)  ---------------------------------------


     EDDAV:  cpu time  266.78: real time  408.30
 BZINTS: Fermi energy:-10.146079;128.000000 electrons
         Band energy:***********;  BLOECHL correction:  0.000000
       DOS:  cpu time    0.01: real time    0.02
    --------------------------------------------
      LOOP:  cpu time  266.81: real time  408.36

 eigenvalue-minimisations  :  7376
 total energy-change (2. order) :-0.8296767E+02  (-0.8249612E+02)
 number of electron     128.0000000 magnetization 
 augmentation part      128.0000000 magnetization 

 Free energy of the ion-electron system (eV)
  ---------------------------------------------------
  alpha Z        PSCENC =        74.14856129
  Ewald energy   TEWEN  =     -1216.90217279
  -Hartree energ DENC   =     -1192.41641713
  -exchange      EXHF   =         0.00000000
  -V(xc)+E(xc)   XCENC  =       366.78101948
  PAW double counting   =       655.30793496     -674.29210410
  entropy T*S    EENTRO =         0.00000000
  eigenvalues    EBANDS =     -1599.96386014
  atomic energy  EATOM  =      3153.63586372
  ---------------------------------------------------
  free energy    TOTEN  =      -433.70117471 eV

  energy without entropy =     -433.70117471  energy(sigma->0) =     -433.70117471


--------------------------------------------------------------------------------------------------------




----------------------------------------- Iteration    1(   4)  ---------------------------------------


     EDDAV:  cpu time  266.50: real time  393.46
 BZINTS: Fermi energy:-10.185891;128.000000 electrons
         Band energy:***********;  BLOECHL correction:  0.000000
       DOS:  cpu time    0.01: real time    0.03
    --------------------------------------------
      LOOP:  cpu time  266.52: real time  393.51

 eigenvalue-minimisations  :  7168
 total energy-change (2. order) :-0.2337347E+01  (-0.2334385E+01)
 number of electron     128.0000000 magnetization 
 augmentation part      128.0000000 magnetization 

 Free energy of the ion-electron system (eV)
  ---------------------------------------------------
  alpha Z        PSCENC =        74.14856129
  Ewald energy   TEWEN  =     -1216.90217279
  -Hartree energ DENC   =     -1192.41641713
  -exchange      EXHF   =         0.00000000
  -V(xc)+E(xc)   XCENC  =       366.78101948
  PAW double counting   =       655.30793496     -674.29210410
  entropy T*S    EENTRO =         0.00000000
  eigenvalues    EBANDS =     -1602.30120684
  atomic energy  EATOM  =      3153.63586372
  ---------------------------------------------------
  free energy    TOTEN  =      -436.03852142 eV

  energy without entropy =     -436.03852142  energy(sigma->0) =     -436.03852142


--------------------------------------------------------------------------------------------------------




----------------------------------------- Iteration    1(   5)  ---------------------------------------


     EDDAV:  cpu time  269.53: real time  399.91
 BZINTS: Fermi energy:-10.218354;128.000000 electrons
         Band energy:***********;  BLOECHL correction:  0.000000
       DOS:  cpu time    0.01: real time    0.02
    CHARGE:  cpu time    2.72: real time    5.20
    MIXING:  cpu time    0.04: real time    0.06
    --------------------------------------------
      LOOP:  cpu time  272.30: real time  405.21

 eigenvalue-minimisations  :  7248
 total energy-change (2. order) :-0.5627337E-01  (-0.5626109E-01)
 number of electron     128.0000108 magnetization 
 augmentation part        3.6294237 magnetization 

 Broyden mixing:
  rms(total) = 0.33730E+01    rms(broyden)= 0.33728E+01
  rms(prec ) = 0.44507E+01
  weight for this iteration     100.00

 Free energy of the ion-electron system (eV)
  ---------------------------------------------------
  alpha Z        PSCENC =        74.14856129
  Ewald energy   TEWEN  =     -1216.90217279
  -Hartree energ DENC   =     -1192.41641713
  -exchange      EXHF   =         0.00000000
  -V(xc)+E(xc)   XCENC  =       366.78101948
  PAW double counting   =       655.30793496     -674.29210410
  entropy T*S    EENTRO =         0.00000000
  eigenvalues    EBANDS =     -1602.35748022
  atomic energy  EATOM  =      3153.63586372
  ---------------------------------------------------
  free energy    TOTEN  =      -436.09479479 eV

  energy without entropy =     -436.09479479  energy(sigma->0) =     -436.09479479


--------------------------------------------------------------------------------------------------------




----------------------------------------- Iteration    1(   6)  ---------------------------------------


    POTLOK:  cpu time    0.48: real time    0.76
    SETDIJ:  cpu time    0.07: real time    0.15
     EDDAV:  cpu time  245.12: real time  357.43
 BZINTS: Fermi energy: -7.832285;128.000000 electrons
         Band energy:***********;  BLOECHL correction:  0.000000
       DOS:  cpu time    0.01: real time    0.01
    CHARGE:  cpu time    3.40: real time    4.85
    MIXING:  cpu time    0.03: real time    0.04
    --------------------------------------------
      LOOP:  cpu time  249.12: real time  363.26

 eigenvalue-minimisations  :  6256
 total energy-change (2. order) : 0.4510285E+02  (-0.9108609E+01)
 number of electron     128.0000103 magnetization 
 augmentation part        3.1384809 magnetization 

 Broyden mixing:
  rms(total) = 0.14261E+01    rms(broyden)= 0.14260E+01
  rms(prec ) = 0.17514E+01
  weight for this iteration     100.00

 eigenvalues of (default mixing * dielectric matrix)
  average eigenvalue GAMMA=   1.2674
  1.2674

 Free energy of the ion-electron system (eV)
  ---------------------------------------------------
  alpha Z        PSCENC =        74.14856129
  Ewald energy   TEWEN  =     -1216.90217279
  -Hartree energ DENC   =     -1460.25130174
  -exchange      EXHF   =         0.00000000
  -V(xc)+E(xc)   XCENC  =       386.90413088
  PAW double counting   =      1098.91125051    -1121.29221337
  entropy T*S    EENTRO =         0.00000000
  eigenvalues    EBANDS =     -1306.14606381
  atomic energy  EATOM  =      3153.63586372
  ---------------------------------------------------
  free energy    TOTEN  =      -390.99194531 eV

  energy without entropy =     -390.99194531  energy(sigma->0) =     -390.99194531


--------------------------------------------------------------------------------------------------------




----------------------------------------- Iteration    1(   7)  ---------------------------------------


    POTLOK:  cpu time    0.41: real time    0.69
    SETDIJ:  cpu time    0.05: real time    0.10
     EDDAV:  cpu time  252.30: real time  380.01
 BZINTS: Fermi energy: -6.923845;128.000000 electrons
         Band energy:***********;  BLOECHL correction:  0.000000
       DOS:  cpu time    0.01: real time    0.02
    CHARGE:  cpu time    3.09: real time    5.53
    MIXING:  cpu time    0.04: real time    0.04
    --------------------------------------------
      LOOP:  cpu time  255.89: real time  386.40

 eigenvalue-minimisations  :  6752
 total energy-change (2. order) : 0.4932605E+01  (-0.1181732E+01)
 number of electron     128.0000103 magnetization 
 augmentation part        3.0277137 magnetization 

 Broyden mixing:
  rms(total) = 0.81265E+00    rms(broyden)= 0.81261E+00
  rms(prec ) = 0.93967E+00
  weight for this iteration     100.00

 eigenvalues of (default mixing * dielectric matrix)
  average eigenvalue GAMMA=   2.0434
  1.3121  2.7746

 Free energy of the ion-electron system (eV)
  ---------------------------------------------------
  alpha Z        PSCENC =        74.14856129
  Ewald energy   TEWEN  =     -1216.90217279
  -Hartree energ DENC   =     -1580.87301593
  -exchange      EXHF   =         0.00000000
  -V(xc)+E(xc)   XCENC  =       397.94681403
  PAW double counting   =      1324.73226878    -1347.69159604
  entropy T*S    EENTRO =         0.00000000
  eigenvalues    EBANDS =     -1191.05606288
  atomic energy  EATOM  =      3153.63586372
  ---------------------------------------------------
  free energy    TOTEN  =      -386.05933982 eV

  energy without entropy =     -386.05933982  energy(sigma->0) =     -386.05933982


--------------------------------------------------------------------------------------------------------




----------------------------------------- Iteration    1(   8)  ---------------------------------------


    POTLOK:  cpu time    0.43: real time    0.51
    SETDIJ:  cpu time    0.09: real time    0.09
     EDDAV:  cpu time  247.65: real time  366.22
 BZINTS: Fermi energy: -6.475241;128.000000 electrons
         Band energy:***********;  BLOECHL correction:  0.000000
       DOS:  cpu time    0.01: real time    0.03
    CHARGE:  cpu time    3.15: real time    6.10
    MIXING:  cpu time    0.04: real time    0.07
    --------------------------------------------
      LOOP:  cpu time  251.36: real time  373.03

 eigenvalue-minimisations  :  6542
 total energy-change (2. order) : 0.1091995E+01  (-0.3318454E+00)
 number of electron     128.0000100 magnetization 
 augmentation part        3.0121165 magnetization 

 Broyden mixing:
  rms(total) = 0.25916E+00    rms(broyden)= 0.25915E+00
  rms(prec ) = 0.30058E+00
  weight for this iteration     100.00

 eigenvalues of (default mixing * dielectric matrix)
  average eigenvalue GAMMA=   1.4657
  2.4592  1.2694  0.6686

 Free energy of the ion-electron system (eV)
  ---------------------------------------------------
  alpha Z        PSCENC =        74.14856129
  Ewald energy   TEWEN  =     -1216.90217279
  -Hartree energ DENC   =     -1645.61488479
  -exchange      EXHF   =         0.00000000
  -V(xc)+E(xc)   XCENC  =       407.26902194
  PAW double counting   =      1454.36586424    -1476.67365722
  entropy T*S    EENTRO =         0.00000000
  eigenvalues    EBANDS =     -1135.19594087
  atomic energy  EATOM  =      3153.63586372
  ---------------------------------------------------
  free energy    TOTEN  =      -384.96734448 eV

  energy without entropy =     -384.96734448  energy(sigma->0) =     -384.96734448


--------------------------------------------------------------------------------------------------------




----------------------------------------- Iteration    1(   9)  ---------------------------------------


    POTLOK:  cpu time    0.39: real time    0.74
    SETDIJ:  cpu time    0.08: real time    0.08
     EDDAV:  cpu time  258.43: real time  385.60
 BZINTS: Fermi energy: -6.484685;128.000000 electrons
         Band energy:***********;  BLOECHL correction:  0.000000
       DOS:  cpu time    0.01: real time    0.01
    CHARGE:  cpu time    2.91: real time    5.01
    MIXING:  cpu time    0.03: real time    0.04
    --------------------------------------------
      LOOP:  cpu time  261.86: real time  391.49

 eigenvalue-minimisations  :  7064
 total energy-change (2. order) : 0.1217966E+00  (-0.2009619E-01)
 number of electron     128.0000101 magnetization 
 augmentation part        3.0105267 magnetization 

 Broyden mixing:
  rms(total) = 0.91675E-01    rms(broyden)= 0.91675E-01
  rms(prec ) = 0.10886E+00
  weight for this iteration     100.00

 eigenvalues of (default mixing * dielectric matrix)
  average eigenvalue GAMMA=   1.7001
  2.3077  2.3077  0.9418  1.2432

 Free energy of the ion-electron system (eV)
  ---------------------------------------------------
  alpha Z        PSCENC =        74.14856129
  Ewald energy   TEWEN  =     -1216.90217279
  -Hartree energ DENC   =     -1644.70983139
  -exchange      EXHF   =         0.00000000
  -V(xc)+E(xc)   XCENC  =       406.54960538
  PAW double counting   =      1446.38316800    -1468.84203670
  entropy T*S    EENTRO =         0.00000000
  eigenvalues    EBANDS =     -1135.10870542
  atomic energy  EATOM  =      3153.63586372
  ---------------------------------------------------
  free energy    TOTEN  =      -384.84554790 eV

  energy without entropy =     -384.84554790  energy(sigma->0) =     -384.84554790


--------------------------------------------------------------------------------------------------------




----------------------------------------- Iteration    1(  10)  ---------------------------------------


    POTLOK:  cpu time    0.39: real time    0.61
    SETDIJ:  cpu time    0.05: real time    0.05
     EDDAV:  cpu time  239.48: real time  350.20
 BZINTS: Fermi energy: -6.443652;128.000000 electrons
         Band energy:***********;  BLOECHL correction:  0.000000
       DOS:  cpu time    0.01: real time    0.01
    CHARGE:  cpu time    3.21: real time    5.33
    MIXING:  cpu time    0.04: real time    0.07
    --------------------------------------------
      LOOP:  cpu time  243.17: real time  356.28

 eigenvalue-minimisations  :  6108
 total energy-change (2. order) :-0.1949712E-01  (-0.2315368E-01)
 number of electron     128.0000101 magnetization 
 augmentation part        2.9928784 magnetization 

 Broyden mixing:
  rms(total) = 0.52458E-01    rms(broyden)= 0.52451E-01
  rms(prec ) = 0.65265E-01
  weight for this iteration     100.00

 eigenvalues of (default mixing * dielectric matrix)
  average eigenvalue GAMMA=   1.6541
  2.6397  2.6397  1.0756  1.0756  0.8399

 Free energy of the ion-electron system (eV)
  ---------------------------------------------------
  alpha Z        PSCENC =        74.14856129
  Ewald energy   TEWEN  =     -1216.90217279
  -Hartree energ DENC   =     -1651.07252415
  -exchange      EXHF   =         0.00000000
  -V(xc)+E(xc)   XCENC  =       406.80867782
  PAW double counting   =      1443.47794414    -1466.06117282
  entropy T*S    EENTRO =         0.00000000
  eigenvalues    EBANDS =     -1128.90022223
  atomic energy  EATOM  =      3153.63586372
  ---------------------------------------------------
  free energy    TOTEN  =      -384.86504502 eV

  energy without entropy =     -384.86504502  energy(sigma->0) =     -384.86504502


--------------------------------------------------------------------------------------------------------




----------------------------------------- Iteration    1(  11)  ---------------------------------------


    POTLOK:  cpu time    0.38: real time    0.63
    SETDIJ:  cpu time    0.04: real time    0.08
     EDDAV:  cpu time  249.32: real time  381.35
 BZINTS: Fermi energy: -6.458692;128.000000 electrons
         Band energy:***********;  BLOECHL correction:  0.000000
       DOS:  cpu time    0.01: real time    0.02
    CHARGE:  cpu time    2.32: real time    4.52
    MIXING:  cpu time    0.05: real time    0.09
    --------------------------------------------
      LOOP:  cpu time  252.12: real time  386.68

 eigenvalue-minimisations  :  6630
 total energy-change (2. order) : 0.5918663E-02  (-0.2981123E-02)
 number of electron     128.0000101 magnetization 
 augmentation part        2.9995324 magnetization 

 Broyden mixing:
  rms(total) = 0.96482E-02    rms(broyden)= 0.96481E-02
  rms(prec ) = 0.10978E-01
  weight for this iteration     100.00

 eigenvalues of (default mixing * dielectric matrix)
  average eigenvalue GAMMA=   1.5662
  2.9542  2.3174  1.2150  0.9269  0.9917  0.9917

 Free energy of the ion-electron system (eV)
  ---------------------------------------------------
  alpha Z        PSCENC =        74.14856129
  Ewald energy   TEWEN  =     -1216.90217279
  -Hartree energ DENC   =     -1648.36400731
  -exchange      EXHF   =         0.00000000
  -V(xc)+E(xc)   XCENC  =       406.71682441
  PAW double counting   =      1436.84767226    -1459.35802589
  entropy T*S    EENTRO =         0.00000000
  eigenvalues    EBANDS =     -1131.58384204
  atomic energy  EATOM  =      3153.63586372
  ---------------------------------------------------
  free energy    TOTEN  =      -384.85912635 eV

  energy without entropy =     -384.85912635  energy(sigma->0) =     -384.85912635


--------------------------------------------------------------------------------------------------------




----------------------------------------- Iteration    1(  12)  ---------------------------------------


    POTLOK:  cpu time    0.48: real time    0.69
    SETDIJ:  cpu time    0.05: real time    0.11
     EDDAV:  cpu time  249.65: real time  385.49
 BZINTS: Fermi energy: -6.454925;128.000000 electrons
         Band energy:***********;  BLOECHL correction:  0.000000
       DOS:  cpu time    0.01: real time    0.02
    CHARGE:  cpu time    2.96: real time    4.18
    MIXING:  cpu time    0.02: real time    0.04
    --------------------------------------------
      LOOP:  cpu time  253.16: real time  390.55

 eigenvalue-minimisations  :  6766
 total energy-change (2. order) :-0.3383731E-03  (-0.2148195E-03)
 number of electron     128.0000101 magnetization 
 augmentation part        2.9990501 magnetization 

 Broyden mixing:
  rms(total) = 0.54721E-02    rms(broyden)= 0.54717E-02
  rms(prec ) = 0.70800E-02
  weight for this iteration     100.00

 eigenvalues of (default mixing * dielectric matrix)
  average eigenvalue GAMMA=   1.6105
  2.7470  2.7470  1.7260  1.1468  1.1468  0.8798  0.8798

 Free energy of the ion-electron system (eV)
  ---------------------------------------------------
  alpha Z        PSCENC =        74.14856129
  Ewald energy   TEWEN  =     -1216.90217279
  -Hartree energ DENC   =     -1649.26604253
  -exchange      EXHF   =         0.00000000
  -V(xc)+E(xc)   XCENC  =       406.81418420
  PAW double counting   =      1438.53313897    -1461.03840210
  entropy T*S    EENTRO =         0.00000000
  eigenvalues    EBANDS =     -1130.78459548
  atomic energy  EATOM  =      3153.63586372
  ---------------------------------------------------
  free energy    TOTEN  =      -384.85946473 eV

  energy without entropy =     -384.85946473  energy(sigma->0) =     -384.85946473


--------------------------------------------------------------------------------------------------------




----------------------------------------- Iteration    1(  13)  ---------------------------------------


    POTLOK:  cpu time    0.45: real time    0.71
    SETDIJ:  cpu time    0.04: real time    0.08
     EDDAV:  cpu time  239.02: real time  358.88
 BZINTS: Fermi energy: -6.458814;128.000000 electrons
         Band energy:***********;  BLOECHL correction:  0.000000
       DOS:  cpu time    0.01: real time    0.01
    CHARGE:  cpu time    3.66: real time    4.65
    MIXING:  cpu time    0.06: real time    0.07
    --------------------------------------------
      LOOP:  cpu time  243.24: real time  364.41

 eigenvalue-minimisations  :  6382
 total energy-change (2. order) : 0.2891138E-04  (-0.2736106E-04)
 number of electron     128.0000101 magnetization 
 augmentation part        2.9998487 magnetization 

 Broyden mixing:
  rms(total) = 0.23634E-02    rms(broyden)= 0.23632E-02
  rms(prec ) = 0.27594E-02
  weight for this iteration     100.00

 eigenvalues of (default mixing * dielectric matrix)
  average eigenvalue GAMMA=   1.6576
  3.1082  2.5742  2.1916  1.4162  1.0846  1.0846  0.9005  0.9005

 Free energy of the ion-electron system (eV)
  ---------------------------------------------------
  alpha Z        PSCENC =        74.14856129
  Ewald energy   TEWEN  =     -1216.90217279
  -Hartree energ DENC   =     -1648.66600389
  -exchange      EXHF   =         0.00000000
  -V(xc)+E(xc)   XCENC  =       406.75362354
  PAW double counting   =      1437.46641475    -1459.96225205
  entropy T*S    EENTRO =         0.00000000
  eigenvalues    EBANDS =     -1131.33347038
  atomic energy  EATOM  =      3153.63586372
  ---------------------------------------------------
  free energy    TOTEN  =      -384.85943582 eV

  energy without entropy =     -384.85943582  energy(sigma->0) =     -384.85943582


--------------------------------------------------------------------------------------------------------




----------------------------------------- Iteration    1(  14)  ---------------------------------------


    POTLOK:  cpu time    0.35: real time    0.55
    SETDIJ:  cpu time    0.06: real time    0.08
     EDDAV:  cpu time  247.32: real time  373.21
 BZINTS: Fermi energy: -6.459897;128.000000 electrons
         Band energy:***********;  BLOECHL correction:  0.000000
       DOS:  cpu time    0.01: real time    0.01
    CHARGE:  cpu time    3.14: real time    4.61
    MIXING:  cpu time    0.04: real time    0.04
    --------------------------------------------
      LOOP:  cpu time  250.92: real time  378.51

 eigenvalue-minimisations  :  6796
 total energy-change (2. order) :-0.8720327E-05  (-0.1400169E-04)
 number of electron     128.0000101 magnetization 
 augmentation part        3.0001784 magnetization 

 Broyden mixing:
  rms(total) = 0.10086E-02    rms(broyden)= 0.10081E-02
  rms(prec ) = 0.12530E-02
  weight for this iteration     100.00

 eigenvalues of (default mixing * dielectric matrix)
  average eigenvalue GAMMA=   1.6885
  3.1680  2.8916  2.4307  1.3919  1.3919  1.0763  1.0763  0.8849  0.8849

 Free energy of the ion-electron system (eV)
  ---------------------------------------------------
  alpha Z        PSCENC =        74.14856129
  Ewald energy   TEWEN  =     -1216.90217279
  -Hartree energ DENC   =     -1648.61103437
  -exchange      EXHF   =         0.00000000
  -V(xc)+E(xc)   XCENC  =       406.75732210
  PAW double counting   =      1437.50781793    -1459.99933600
  entropy T*S    EENTRO =         0.00000000
  eigenvalues    EBANDS =     -1131.39646642
  atomic energy  EATOM  =      3153.63586372
  ---------------------------------------------------
  free energy    TOTEN  =      -384.85944454 eV

  energy without entropy =     -384.85944454  energy(sigma->0) =     -384.85944454


--------------------------------------------------------------------------------------------------------




----------------------------------------- Iteration    1(  15)  ---------------------------------------


    POTLOK:  cpu time    0.75: real time    0.84
    SETDIJ:  cpu time    0.13: real time    0.13
     EDDAV:  cpu time  264.78: real time  390.39
 BZINTS: Fermi energy: -6.460351;128.000000 electrons
         Band energy:***********;  BLOECHL correction:  0.000000
       DOS:  cpu time    0.01: real time    0.02
    CHARGE:  cpu time    3.05: real time    5.12
    MIXING:  cpu time    0.06: real time    0.12
    --------------------------------------------
      LOOP:  cpu time  268.78: real time  396.62

 eigenvalue-minimisations  :  7056
 total energy-change (2. order) : 0.1651533E-05  (-0.1097859E-05)
 number of electron     128.0000101 magnetization 
 augmentation part        3.0000531 magnetization 

 Broyden mixing:
  rms(total) = 0.27587E-03    rms(broyden)= 0.27586E-03
  rms(prec ) = 0.31091E-03
  weight for this iteration     100.00

 eigenvalues of (default mixing * dielectric matrix)
  average eigenvalue GAMMA=   1.6228
  3.1225  2.9347  2.3789  1.5447  1.5447  1.0721  1.0721  0.8962  0.8962  0.7661

 Free energy of the ion-electron system (eV)
  ---------------------------------------------------
  alpha Z        PSCENC =        74.14856129
  Ewald energy   TEWEN  =     -1216.90217279
  -Hartree energ DENC   =     -1648.67812053
  -exchange      EXHF   =         0.00000000
  -V(xc)+E(xc)   XCENC  =       406.76110791
  PAW double counting   =      1437.67564165    -1460.16874987
  entropy T*S    EENTRO =         0.00000000
  eigenvalues    EBANDS =     -1131.33157426
  atomic energy  EATOM  =      3153.63586372
  ---------------------------------------------------
  free energy    TOTEN  =      -384.85944288 eV

  energy without entropy =     -384.85944288  energy(sigma->0) =     -384.85944288


--------------------------------------------------------------------------------------------------------




----------------------------------------- Iteration    1(  16)  ---------------------------------------


    POTLOK:  cpu time    0.53: real time    0.86
    SETDIJ:  cpu time    0.04: real time    0.08
     EDDAV:  cpu time  187.56: real time  276.98
 BZINTS: Fermi energy: -6.461216;128.000000 electrons
         Band energy:***********;  BLOECHL correction:  0.000000
       DOS:  cpu time    0.02: real time    0.02
    --------------------------------------------
      LOOP:  cpu time  188.16: real time  277.96

 eigenvalue-minimisations  :  4224
 total energy-change (2. order) : 0.3643977E-06  (-0.5636730E-07)
 number of electron     128.0000101 magnetization 
 augmentation part        3.0000531 magnetization 

 Free energy of the ion-electron system (eV)
  ---------------------------------------------------
  alpha Z        PSCENC =        74.14856129
  Ewald energy   TEWEN  =     -1216.90217279
  -Hartree energ DENC   =     -1648.66504962
  -exchange      EXHF   =         0.00000000
  -V(xc)+E(xc)   XCENC  =       406.75978696
  PAW double counting   =      1437.64894775    -1460.14234931
  entropy T*S    EENTRO =         0.00000000
  eigenvalues    EBANDS =     -1131.34303053
  atomic energy  EATOM  =      3153.63586372
  ---------------------------------------------------
  free energy    TOTEN  =      -384.85944252 eV

  energy without entropy =     -384.85944252  energy(sigma->0) =     -384.85944252


--------------------------------------------------------------------------------------------------------




 average (electrostatic) potential at core
  the test charge radii are     0.5201  0.6991
  (the norm of the test charge is              1.0000)
       1 -39.2332       2 -39.2332       3 -39.2332       4 -39.2332       5 -39.2332
       6 -39.2332       7 -39.2332       8 -39.2332       9 -39.2332      10 -39.2332
      11 -39.2332      12 -39.2332      13 -39.2332      14 -39.2332      15 -39.2332
      16 -39.2332      17 -39.1510      18 -39.1510      19 -39.1510      20 -39.1510
      21 -39.1510      22 -39.1510      23 -39.1510      24 -39.1510      25 -39.1510
      26 -39.1510      27 -39.1510      28 -39.1510      29 -39.1510      30 -39.1510
      31 -39.1510      32 -39.1510      33 -39.1284      34 -39.1284      35 -39.1284
      36 -39.1284      37 -39.1284      38 -39.1284      39 -39.1284      40 -39.1284
      41 -39.1284      42 -39.1284      43 -39.1284      44 -39.1284      45 -39.1284
      46 -39.1284      47 -39.1284      48 -39.1284      49 -39.1852      50 -39.1852
      51 -39.1852      52 -39.1852      53 -39.1852      54 -39.1852      55 -39.1852
      56 -39.1852      57 -39.1742      58 -39.1742      59 -39.1742      60 -39.1742
      61 -39.1742      62 -39.1742      63 -39.1742      64 -39.1742      65 -55.5910
      66 -55.5910      67 -55.5910      68 -55.5910      69 -55.5910      70 -55.5910
      71 -55.5910      72 -55.5910      73 -55.5169      74 -55.5169      75 -55.5169
      76 -55.5169      77 -55.5169      78 -55.5169      79 -55.5169      80 -55.5169
 
 
 
 E-fermi :  -6.4612     XC(G=0):  -6.2285     alpha+bet : -4.0557


 k-point     1 :       0.0000    0.0000    0.0000
  band No.  band energies     occupation 
      1     -14.8580      2.00000
      2     -14.6892      2.00000
      3     -14.6098      2.00000
      4     -14.5779      2.00000
      5     -14.5732      2.00000
      6     -14.5608      2.00000
      7     -14.5565      2.00000
      8     -14.5180      2.00000
      9     -14.5048      2.00000
     10     -14.4977      2.00000
     11     -14.4950      2.00000
     12     -14.4584      2.00000
     13     -14.4452      2.00000
     14     -14.4235      2.00000
     15     -14.3980      2.00000
     16     -14.3964      2.00000
     17      -7.6260      2.00000
     18      -7.6121      2.00000
     19      -7.6026      2.00000
     20      -7.5546      2.00000
     21      -7.5439      2.00000
     22      -7.5401      2.00000
     23      -7.5238      2.00000
     24      -7.4665      2.00000
     25      -7.3003      2.00000
     26      -7.2639      2.00000
     27      -7.2334      2.00000
     28      -7.2202      2.00000
     29      -7.2026      2.00000
     30      -7.0962      2.00000
     31      -7.0884      2.00000
     32      -7.0838      2.00000
     33      -7.0799      2.00000
     34      -7.0182      2.00000
     35      -6.9696      2.00000
     36      -6.9465      2.00000
     37      -6.8900      2.00000
     38      -6.8643      2.00000
     39      -6.8605      2.00000
     40      -6.8288      2.00000
     41      -6.8229      2.00000
     42      -6.8162      2.00000
     43      -6.8126      2.00000
     44      -6.8017      2.00000
     45      -6.7922      2.00000
     46      -6.7008      2.00000
     47      -6.6850      2.00000
     48      -6.6781      2.00000
     49      -6.6638      2.00000
     50      -6.6348      2.00000
     51      -6.6306      2.00000
     52      -6.6286      2.00000
     53      -6.6248      2.00000
     54      -6.6153      2.00000
     55      -6.5978      2.00000
     56      -6.5960      2.00000
     57      -6.5910      2.00000
     58      -6.5910      2.00000
     59      -6.5855      2.00000
     60      -6.5839      2.00000
     61      -6.5725      2.00000
     62      -6.5305      2.00000
     63      -6.5135      2.00000
     64      -6.4724      2.00000
     65       1.1374      0.00000
     66       2.4446      0.00000
     67       2.4847      0.00000
     68       2.8191      0.00000
     69       2.9357      0.00000
     70       3.0295      0.00000
     71       3.2388      0.00000
     72       3.2588      0.00000
     73       3.3406      0.00000
     74       3.3588      0.00000
     75       3.4121      0.00000
     76       3.5765      0.00000
     77       3.6344      0.00000
     78       3.6513      0.00000
     79       3.6723      0.00000
     80       3.8452      0.00000
     81       4.1592      0.00000
     82       4.3332      0.00000
     83       4.4652      0.00000
     84       4.5455      0.00000
     85       4.6230      0.00000
     86       4.6735      0.00000
     87       4.7258      0.00000
     88       4.8035      0.00000
     89       4.8534      0.00000
     90       4.9032      0.00000
     91       4.9055      0.00000
     92       4.9233      0.00000
     93       4.9431      0.00000
     94       5.0331      0.00000
     95       5.3985      0.00000
     96       5.4137      0.00000
     97       5.4332      0.00000
     98       5.4985      0.00000
     99       5.5159      0.00000
    100       5.6439      0.00000
    101       5.6578      0.00000
    102       5.8708      0.00000
    103       5.8731      0.00000
    104       6.0297      0.00000
    105       6.0617      0.00000
    106       6.1439      0.00000

 k-point     2 :       0.2500    0.0000    0.0000
  band No.  band energies     occupation 
      1     -14.8432      2.00000
      2     -14.7389      2.00000
      3     -14.5772      2.00000
      4     -14.5739      2.00000
      5     -14.5602      2.00000
      6     -14.5576      2.00000
      7     -14.5571      2.00000
      8     -14.5160      2.00000
      9     -14.5062      2.00000
     10     -14.4983      2.00000
     11     -14.4958      2.00000
     12     -14.4558      2.00000
     13     -14.4467      2.00000
     14     -14.4410      2.00000
     15     -14.3977      2.00000
     16     -14.3964      2.00000
     17      -7.6001      2.00000
     18      -7.5990      2.00000
     19      -7.5828      2.00000
     20      -7.5418      2.00000
     21      -7.5342      2.00000
     22      -7.5045      2.00000
     23      -7.5029      2.00000
     24      -7.4633      2.00000
     25      -7.3683      2.00000
     26      -7.3207      2.00000
     27      -7.3017      2.00000
     28      -7.2892      2.00000
     29      -7.2814      2.00000
     30      -7.2454      2.00000
     31      -7.0313      2.00000
     32      -7.0309      2.00000
     33      -6.9965      2.00000
     34      -6.9427      2.00000
     35      -6.9413      2.00000
     36      -6.8565      2.00000
     37      -6.8510      2.00000
     38      -6.8361      2.00000
     39      -6.8355      2.00000
     40      -6.8272      2.00000
     41      -6.8139      2.00000
     42      -6.8137      2.00000
     43      -6.8038      2.00000
     44      -6.7960      2.00000
     45      -6.7855      2.00000
     46      -6.7365      2.00000
     47      -6.6924      2.00000
     48      -6.6673      2.00000
     49      -6.6536      2.00000
     50      -6.6466      2.00000
     51      -6.6433      2.00000
     52      -6.6351      2.00000
     53      -6.6306      2.00000
     54      -6.6268      2.00000
     55      -6.6078      2.00000
     56      -6.6065      2.00000
     57      -6.6034      2.00000
     58      -6.5945      2.00000
     59      -6.5919      2.00000
     60      -6.5763      2.00000
     61      -6.5748      2.00000
     62      -6.5307      2.00000
     63      -6.5241      2.00000
     64      -6.5189      2.00000
     65       1.2400      0.00000
     66       1.9636      0.00000
     67       2.8953      0.00000
     68       2.9256      0.00000
     69       2.9772      0.00000
     70       3.0798      0.00000
     71       3.2049      0.00000
     72       3.2602      0.00000
     73       3.2677      0.00000
     74       3.3373      0.00000
     75       3.3509      0.00000
     76       3.5335      0.00000
     77       3.6472      0.00000
     78       3.6613      0.00000
     79       3.7636      0.00000
     80       3.9055      0.00000
     81       4.1959      0.00000
     82       4.2494      0.00000
     83       4.3020      0.00000
     84       4.4409      0.00000
     85       4.5965      0.00000
     86       4.6432      0.00000
     87       4.7098      0.00000
     88       4.8142      0.00000
     89       4.8277      0.00000
     90       4.8525      0.00000
     91       4.8914      0.00000
     92       4.9361      0.00000
     93       5.0157      0.00000
     94       5.1088      0.00000
     95       5.2634      0.00000
     96       5.3656      0.00000
     97       5.4315      0.00000
     98       5.5113      0.00000
     99       5.5396      0.00000
    100       5.6130      0.00000
    101       5.6433      0.00000
    102       5.7455      0.00000
    103       5.9303      0.00000
    104       5.9932      0.00000
    105       6.1048      0.00000
    106       6.3974      0.00000

 k-point     3 :       0.5000    0.0000    0.0000
  band No.  band energies     occupation 
      1     -14.8011      2.00000
      2     -14.8011      2.00000
      3     -14.5755      2.00000
      4     -14.5755      2.00000
      5     -14.5586      2.00000
      6     -14.5586      2.00000
      7     -14.5111      2.00000
      8     -14.5111      2.00000
      9     -14.4975      2.00000
     10     -14.4975      2.00000
     11     -14.4894      2.00000
     12     -14.4894      2.00000
     13     -14.4509      2.00000
     14     -14.4509      2.00000
     15     -14.3970      2.00000
     16     -14.3970      2.00000
     17      -7.5770      2.00000
     18      -7.5770      2.00000
     19      -7.5348      2.00000
     20      -7.5348      2.00000
     21      -7.5081      2.00000
     22      -7.5081      2.00000
     23      -7.4071      2.00000
     24      -7.4071      2.00000
     25      -7.4048      2.00000
     26      -7.4048      2.00000
     27      -7.4022      2.00000
     28      -7.4022      2.00000
     29      -7.3388      2.00000
     30      -7.3388      2.00000
     31      -6.9678      2.00000
     32      -6.9678      2.00000
     33      -6.9621      2.00000
     34      -6.9621      2.00000
     35      -6.8855      2.00000
     36      -6.8855      2.00000
     37      -6.8365      2.00000
     38      -6.8365      2.00000
     39      -6.8253      2.00000
     40      -6.8253      2.00000
     41      -6.7858      2.00000
     42      -6.7858      2.00000
     43      -6.7185      2.00000
     44      -6.7185      2.00000
     45      -6.7127      2.00000
     46      -6.7127      2.00000
     47      -6.7063      2.00000
     48      -6.7063      2.00000
     49      -6.6778      2.00000
     50      -6.6778      2.00000
     51      -6.6586      2.00000
     52      -6.6586      2.00000
     53      -6.6516      2.00000
     54      -6.6516      2.00000
     55      -6.6241      2.00000
     56      -6.6241      2.00000
     57      -6.5999      2.00000
     58      -6.5999      2.00000
     59      -6.5961      2.00000
     60      -6.5961      2.00000
     61      -6.5518      2.00000
     62      -6.5518      2.00000
     63      -6.5465      2.00000
     64      -6.5465      2.00000
     65       1.5311      0.00000
     66       1.5311      0.00000
     67       3.0830      0.00000
     68       3.0830      0.00000
     69       3.0848      0.00000
     70       3.0848      0.00000
     71       3.2094      0.00000
     72       3.2094      0.00000
     73       3.2223      0.00000
     74       3.2223      0.00000
     75       3.3620      0.00000
     76       3.3620      0.00000
     77       3.6940      0.00000
     78       3.6940      0.00000
     79       4.0060      0.00000
     80       4.0060      0.00000
     81       4.0726      0.00000
     82       4.0726      0.00000
     83       4.2984      0.00000
     84       4.2984      0.00000
     85       4.6051      0.00000
     86       4.6051      0.00000
     87       4.7682      0.00000
     88       4.7682      0.00000
     89       4.7745      0.00000
     90       4.7745      0.00000
     91       4.7967      0.00000
     92       4.7967      0.00000
     93       5.2440      0.00000
     94       5.2440      0.00000
     95       5.3166      0.00000
     96       5.3166      0.00000
     97       5.4189      0.00000
     98       5.4189      0.00000
     99       5.6311      0.00000
    100       5.6311      0.00000
    101       5.6772      0.00000
    102       5.6772      0.00000
    103       5.7962      0.00000
    104       5.7962      0.00000
    105       6.2351      0.00000
    106       6.2351      0.00000

 k-point     4 :       0.0000    0.2500    0.0000
  band No.  band energies     occupation 
      1     -14.8288      2.00000
      2     -14.6729      2.00000
      3     -14.6481      2.00000
      4     -14.5935      2.00000
      5     -14.5909      2.00000
      6     -14.5470      2.00000
      7     -14.5438      2.00000
      8     -14.5124      2.00000
      9     -14.5093      2.00000
     10     -14.4832      2.00000
     11     -14.4831      2.00000
     12     -14.4551      2.00000
     13     -14.4531      2.00000
     14     -14.4235      2.00000
     15     -14.4127      2.00000
     16     -14.4116      2.00000
     17      -7.6385      2.00000
     18      -7.5607      2.00000
     19      -7.5519      2.00000
     20      -7.5392      2.00000
     21      -7.5046      2.00000
     22      -7.4983      2.00000
     23      -7.4797      2.00000
     24      -7.3512      2.00000
     25      -7.3480      2.00000
[...]
 -----------------------------------------------------------------------------------------------
   -.360E+02 -.154E+02 -.196E+02   0.405E+02 0.173E+02 0.221E+02   -.451E+01 -.195E+01 -.249E+01   -.104E-04 0.294E-04 0.367E-04
   0.360E+02 0.154E+02 0.196E+02   -.405E+02 -.173E+02 -.221E+02   0.451E+01 0.195E+01 0.249E+01   0.104E-04 -.294E-04 -.367E-04
   0.360E+02 0.154E+02 -.196E+02   -.405E+02 -.173E+02 0.221E+02   0.451E+01 0.195E+01 -.249E+01   0.104E-04 -.294E-04 0.367E-04
   -.360E+02 -.154E+02 0.196E+02   0.405E+02 0.173E+02 -.221E+02   -.451E+01 -.195E+01 0.249E+01   -.104E-04 0.294E-04 -.367E-04
   0.360E+02 -.154E+02 0.196E+02   -.405E+02 0.173E+02 -.221E+02   0.451E+01 -.195E+01 0.249E+01   0.104E-04 0.294E-04 -.367E-04
   -.360E+02 0.154E+02 -.196E+02   0.405E+02 -.173E+02 0.221E+02   -.451E+01 0.195E+01 -.249E+01   -.104E-04 -.294E-04 0.367E-04
   -.360E+02 0.154E+02 0.196E+02   0.405E+02 -.173E+02 -.221E+02   -.451E+01 0.195E+01 0.249E+01   -.104E-04 -.294E-04 -.367E-04
   0.360E+02 -.154E+02 -.196E+02   -.405E+02 0.173E+02 0.221E+02   0.451E+01 -.195E+01 -.249E+01   0.104E-04 0.294E-04 0.367E-04
   -.360E+02 -.154E+02 -.196E+02   0.405E+02 0.173E+02 0.221E+02   -.451E+01 -.195E+01 -.249E+01   -.104E-04 0.294E-04 0.367E-04
   0.360E+02 0.154E+02 0.196E+02   -.405E+02 -.173E+02 -.221E+02   0.451E+01 0.195E+01 0.249E+01   0.104E-04 -.294E-04 -.367E-04
   0.360E+02 0.154E+02 -.196E+02   -.405E+02 -.173E+02 0.221E+02   0.451E+01 0.195E+01 -.249E+01   0.104E-04 -.294E-04 0.367E-04
   -.360E+02 -.154E+02 0.196E+02   0.405E+02 0.173E+02 -.221E+02   -.451E+01 -.195E+01 0.249E+01   -.104E-04 0.294E-04 -.367E-04
   0.360E+02 -.154E+02 0.196E+02   -.405E+02 0.173E+02 -.221E+02   0.451E+01 -.195E+01 0.249E+01   0.104E-04 0.294E-04 -.367E-04
   -.360E+02 0.154E+02 -.196E+02   0.405E+02 -.173E+02 0.221E+02   -.451E+01 0.195E+01 -.249E+01   -.104E-04 -.294E-04 0.367E-04
   -.360E+02 0.154E+02 0.196E+02   0.405E+02 -.173E+02 -.221E+02   -.451E+01 0.195E+01 0.249E+01   -.104E-04 -.294E-04 -.367E-04
   0.360E+02 -.154E+02 -.196E+02   -.405E+02 0.173E+02 0.221E+02   0.451E+01 -.195E+01 -.249E+01   0.104E-04 0.294E-04 0.367E-04
   -.247E+02 -.277E+02 0.230E+02   0.279E+02 0.311E+02 -.259E+02   -.319E+01 -.348E+01 0.285E+01   -.275E-04 -.272E-04 0.179E-04
   0.247E+02 0.277E+02 -.230E+02   -.279E+02 -.311E+02 0.259E+02   0.319E+01 0.348E+01 -.285E+01   0.275E-04 0.272E-04 -.179E-04
   0.247E+02 0.277E+02 0.230E+02   -.279E+02 -.311E+02 -.259E+02   0.319E+01 0.348E+01 0.285E+01   0.275E-04 0.272E-04 0.179E-04
   -.247E+02 -.277E+02 -.230E+02   0.279E+02 0.311E+02 0.259E+02   -.319E+01 -.348E+01 -.285E+01   -.275E-04 -.272E-04 -.179E-04
   0.247E+02 -.277E+02 -.230E+02   -.279E+02 0.311E+02 0.259E+02   0.319E+01 -.348E+01 -.285E+01   0.275E-04 -.272E-04 -.179E-04
   -.247E+02 0.277E+02 0.230E+02   0.279E+02 -.311E+02 -.259E+02   -.319E+01 0.348E+01 0.285E+01   -.275E-04 0.272E-04 0.179E-04
   -.247E+02 0.277E+02 -.230E+02   0.279E+02 -.311E+02 0.259E+02   -.319E+01 0.348E+01 -.285E+01   -.275E-04 0.272E-04 -.179E-04
   0.247E+02 -.277E+02 0.230E+02   -.279E+02 0.311E+02 -.259E+02   0.319E+01 -.348E+01 0.285E+01   0.275E-04 -.272E-04 0.179E-04
   -.247E+02 -.277E+02 0.230E+02   0.279E+02 0.311E+02 -.259E+02   -.319E+01 -.348E+01 0.285E+01   -.275E-04 -.272E-04 0.179E-04
   0.247E+02 0.277E+02 -.230E+02   -.279E+02 -.311E+02 0.259E+02   0.319E+01 0.348E+01 -.285E+01   0.275E-04 0.272E-04 -.179E-04
   0.247E+02 0.277E+02 0.230E+02   -.279E+02 -.311E+02 -.259E+02   0.319E+01 0.348E+01 0.285E+01   0.275E-04 0.272E-04 0.179E-04
   -.247E+02 -.277E+02 -.230E+02   0.279E+02 0.311E+02 0.259E+02   -.319E+01 -.348E+01 -.285E+01   -.275E-04 -.272E-04 -.179E-04
   0.247E+02 -.277E+02 -.230E+02   -.279E+02 0.311E+02 0.259E+02   0.319E+01 -.348E+01 -.285E+01   0.275E-04 -.272E-04 -.179E-04
   -.247E+02 0.277E+02 0.230E+02   0.279E+02 -.311E+02 -.259E+02   -.319E+01 0.348E+01 0.285E+01   -.275E-04 0.272E-04 0.179E-04
   -.247E+02 0.277E+02 -.230E+02   0.279E+02 -.311E+02 0.259E+02   -.319E+01 0.348E+01 -.285E+01   -.275E-04 0.272E-04 -.179E-04
   0.247E+02 -.277E+02 0.230E+02   -.279E+02 0.311E+02 -.259E+02   0.319E+01 -.348E+01 0.285E+01   0.275E-04 -.272E-04 0.179E-04
   0.253E+02 -.227E+02 -.277E+02   -.285E+02 0.255E+02 0.312E+02   0.320E+01 -.287E+01 -.350E+01   0.159E-04 -.296E-04 -.372E-04
   -.253E+02 0.227E+02 0.277E+02   0.285E+02 -.255E+02 -.312E+02   -.320E+01 0.287E+01 0.350E+01   -.159E-04 0.296E-04 0.372E-04
   -.253E+02 0.227E+02 -.277E+02   0.285E+02 -.255E+02 0.312E+02   -.320E+01 0.287E+01 -.350E+01   -.159E-04 0.296E-04 -.372E-04
   0.253E+02 -.227E+02 0.277E+02   -.285E+02 0.255E+02 -.312E+02   0.320E+01 -.287E+01 0.350E+01   0.159E-04 -.296E-04 0.372E-04
   -.253E+02 -.227E+02 0.277E+02   0.285E+02 0.255E+02 -.312E+02   -.320E+01 -.287E+01 0.350E+01   -.159E-04 -.296E-04 0.372E-04
   0.253E+02 0.227E+02 -.277E+02   -.285E+02 -.255E+02 0.312E+02   0.320E+01 0.287E+01 -.350E+01   0.159E-04 0.296E-04 -.372E-04
   0.253E+02 0.227E+02 0.277E+02   -.285E+02 -.255E+02 -.312E+02   0.320E+01 0.287E+01 0.350E+01   0.159E-04 0.296E-04 0.372E-04
   -.253E+02 -.227E+02 -.277E+02   0.285E+02 0.255E+02 0.312E+02   -.320E+01 -.287E+01 -.350E+01   -.159E-04 -.296E-04 -.372E-04
   0.253E+02 -.227E+02 -.277E+02   -.285E+02 0.255E+02 0.312E+02   0.320E+01 -.287E+01 -.350E+01   0.159E-04 -.296E-04 -.372E-04
   -.253E+02 0.227E+02 0.277E+02   0.285E+02 -.255E+02 -.312E+02   -.320E+01 0.287E+01 0.350E+01   -.159E-04 0.296E-04 0.372E-04
   -.253E+02 0.227E+02 -.277E+02   0.285E+02 -.255E+02 0.312E+02   -.320E+01 0.287E+01 -.350E+01   -.159E-04 0.296E-04 -.372E-04
   0.253E+02 -.227E+02 0.277E+02   -.285E+02 0.255E+02 -.312E+02   0.320E+01 -.287E+01 0.350E+01   0.159E-04 -.296E-04 0.372E-04
   -.253E+02 -.227E+02 0.277E+02   0.285E+02 0.255E+02 -.312E+02   -.320E+01 -.287E+01 0.350E+01   -.159E-04 -.296E-04 0.372E-04
   0.253E+02 0.227E+02 -.277E+02   -.285E+02 -.255E+02 0.312E+02   0.320E+01 0.287E+01 -.350E+01   0.159E-04 0.296E-04 -.372E-04
   0.253E+02 0.227E+02 0.277E+02   -.285E+02 -.255E+02 -.312E+02   0.320E+01 0.287E+01 0.350E+01   0.159E-04 0.296E-04 0.372E-04
   -.253E+02 -.227E+02 -.277E+02   0.285E+02 0.255E+02 0.312E+02   -.320E+01 -.287E+01 -.350E+01   -.159E-04 -.296E-04 -.372E-04
   0.155E-07 0.438E+02 -.190E+01   -.712E-06 -.493E+02 0.211E+01   0.000E+00 0.554E+01 -.210E+00   -.748E-11 -.635E-04 0.511E-04
   0.155E-07 -.438E+02 0.190E+01   -.712E-06 0.493E+02 -.211E+01   -.265E-22 -.554E+01 0.210E+00   -.737E-11 0.635E-04 -.511E-04
   0.155E-07 -.438E+02 -.190E+01   -.712E-06 0.493E+02 0.211E+01   0.794E-22 -.554E+01 -.210E+00   -.749E-11 0.635E-04 0.511E-04
   0.155E-07 0.438E+02 0.190E+01   -.712E-06 -.493E+02 -.211E+01   0.794E-22 0.554E+01 0.210E+00   -.740E-11 -.635E-04 -.511E-04
   -.167E-07 0.438E+02 -.190E+01   0.770E-06 -.493E+02 0.211E+01   -.159E-21 0.554E+01 -.210E+00   0.925E-11 -.635E-04 0.511E-04
   -.167E-07 -.438E+02 0.190E+01   0.770E-06 0.493E+02 -.211E+01   -.794E-22 -.554E+01 0.210E+00   0.931E-11 0.635E-04 -.511E-04
   -.167E-07 -.438E+02 -.190E+01   0.770E-06 0.493E+02 0.211E+01   0.265E-22 -.554E+01 -.210E+00   0.919E-11 0.635E-04 0.511E-04
   -.167E-07 0.438E+02 0.190E+01   0.770E-06 -.493E+02 -.211E+01   -.794E-22 0.554E+01 0.210E+00   0.932E-11 -.635E-04 -.511E-04
   0.155E-07 0.138E+02 -.415E+02   -.712E-06 -.155E+02 0.468E+02   -.265E-22 0.166E+01 -.530E+01   -.728E-11 -.657E-04 0.468E-04
   0.155E-07 -.138E+02 0.415E+02   -.712E-06 0.155E+02 -.468E+02   0.265E-22 -.166E+01 0.530E+01   -.733E-11 0.657E-04 -.468E-04
   0.155E-07 -.138E+02 -.415E+02   -.712E-06 0.155E+02 0.468E+02   -.132E-22 -.166E+01 -.530E+01   -.715E-11 0.657E-04 0.468E-04
   0.155E-07 0.138E+02 0.415E+02   -.712E-06 -.155E+02 -.468E+02   0.265E-22 0.166E+01 0.530E+01   -.738E-11 -.657E-04 -.468E-04
   -.167E-07 0.138E+02 -.415E+02   0.769E-06 -.155E+02 0.468E+02   -.265E-22 0.166E+01 -.530E+01   0.911E-11 -.657E-04 0.468E-04
   -.167E-07 -.138E+02 0.415E+02   0.769E-06 0.155E+02 -.468E+02   -.265E-22 -.166E+01 0.530E+01   0.904E-11 0.657E-04 -.468E-04
   -.167E-07 -.138E+02 -.415E+02   0.769E-06 0.155E+02 0.468E+02   0.794E-22 -.166E+01 -.530E+01   0.913E-11 0.657E-04 0.468E-04
   -.167E-07 0.138E+02 0.415E+02   0.769E-06 -.155E+02 -.468E+02   0.265E-22 0.166E+01 0.530E+01   0.899E-11 -.657E-04 -.468E-04
   -.190E-06 -.326E+00 0.271E+00   0.948E-05 0.222E+00 -.898E-01   -.169E-20 0.108E+00 -.181E+00   -.430E-10 0.314E-03 -.382E-03
   -.190E-06 0.326E+00 -.271E+00   0.948E-05 -.222E+00 0.898E-01   0.169E-20 -.108E+00 0.181E+00   -.437E-10 -.314E-03 0.382E-03
   -.190E-06 0.326E+00 0.271E+00   0.948E-05 -.222E+00 -.898E-01   -.212E-20 -.108E+00 -.181E+00   -.432E-10 -.314E-03 -.382E-03
   -.190E-06 -.326E+00 -.271E+00   0.948E-05 0.222E+00 0.898E-01   0.212E-20 0.108E+00 0.181E+00   -.437E-10 0.314E-03 0.382E-03
   0.265E-06 -.326E+00 0.271E+00   -.132E-04 0.222E+00 -.898E-01   -.169E-20 0.108E+00 -.181E+00   0.557E-10 0.314E-03 -.382E-03
   0.265E-06 0.326E+00 -.271E+00   -.132E-04 -.222E+00 0.898E-01   0.000E+00 -.108E+00 0.181E+00   0.550E-10 -.314E-03 0.382E-03
   0.265E-06 0.326E+00 0.271E+00   -.132E-04 -.222E+00 -.898E-01   -.847E-21 -.108E+00 -.181E+00   0.556E-10 -.314E-03 -.382E-03
   0.265E-06 -.326E+00 -.271E+00   -.132E-04 0.222E+00 0.899E-01   0.127E-20 0.108E+00 0.181E+00   0.553E-10 0.314E-03 0.382E-03
   0.158E+01 -.420E-07 -.122E-07   -.166E+01 -.322E-07 -.228E-07   0.740E-01 0.212E-21 0.000E+00   -.832E-04 0.298E-11 0.293E-09
   -.158E+01 0.436E-07 0.155E-07   0.166E+01 -.322E-07 -.228E-07   -.740E-01 0.212E-21 0.169E-20   0.832E-04 0.233E-11 0.291E-09
   -.158E+01 -.429E-07 0.178E-07   0.166E+01 0.210E-08 -.201E-06   -.740E-01 0.635E-21 0.000E+00   0.832E-04 -.376E-11 -.306E-09
   0.158E+01 0.427E-07 -.985E-08   -.166E+01 0.210E-08 -.201E-06   0.740E-01 0.424E-21 0.000E+00   -.832E-04 -.476E-11 -.304E-09
   0.158E+01 -.420E-07 -.122E-07   -.166E+01 -.322E-07 -.228E-07   0.740E-01 -.212E-21 -.169E-20   -.832E-04 0.288E-11 0.291E-09
   -.158E+01 0.436E-07 0.155E-07   0.166E+01 -.322E-07 -.228E-07   -.740E-01 -.212E-21 0.000E+00   0.832E-04 0.260E-11 0.289E-09
   -.158E+01 -.429E-07 0.178E-07   0.166E+01 0.210E-08 -.201E-06   -.740E-01 0.635E-21 0.000E+00   0.832E-04 -.319E-11 -.308E-09
   0.158E+01 0.427E-07 -.985E-08   -.166E+01 0.210E-08 -.201E-06   0.740E-01 0.847E-21 0.000E+00   -.832E-04 -.392E-11 -.306E-09
 -----------------------------------------------------------------------------------------------
   0.118E-04 0.293E-04 0.966E-04   -.377E-14 -.860E-14 0.229E-13   -.458E-15 0.420E-14 -.888E-15   0.548E-10 -.766E-10 -.961E-10
 
 
 POSITION                                       TOTAL-FORCE (eV/Angst)
 -----------------------------------------------------------------------------------
      0.89527      6.50259      2.17607        -0.002955     -0.001151     -0.008069
     11.04225      1.84732      6.16864         0.002955      0.001151      0.008069
     11.04225      6.02228      6.34843         0.002955      0.001151     -0.008069
      0.89527      2.32763      1.99629        -0.002955     -0.001151      0.008069
     11.04225      2.32763      1.99629         0.002955     -0.001151      0.008069
      0.89527      6.02228      6.34843        -0.002955      0.001151     -0.008069
      0.89527      1.84732      6.16864        -0.002955      0.001151      0.008069
     11.04225      6.50259      2.17607         0.002955     -0.001151     -0.008069
      6.86404      2.32763      2.17607        -0.002955     -0.001151     -0.008069
      5.07349      6.02228      6.16864         0.002955      0.001151      0.008069
      5.07349      1.84732      6.34843         0.002955      0.001151     -0.008069
      6.86404      6.50259      1.99629        -0.002955     -0.001151      0.008069
      5.07349      6.50259      1.99629         0.002955     -0.001151      0.008069
      6.86404      1.84732      6.34843        -0.002955      0.001151     -0.008069
      6.86404      6.02228      6.16864        -0.002955      0.001151      0.008069
      5.07349      2.32763      2.17607         0.002955     -0.001151     -0.008069
      9.57874      4.86502      7.77727        -0.002667      0.003743      0.002556
      2.35878      3.48489      0.56744         0.002667     -0.003743     -0.002556
      2.35878      7.65985      3.60492         0.002667     -0.003743      0.002556
      9.57874      0.69007      4.73980        -0.002667      0.003743     -0.002556
      2.35878      0.69007      4.73980         0.002667      0.003743     -0.002556
      9.57874      7.65985      3.60492        -0.002667     -0.003743      0.002556
      9.57874      3.48489      0.56744        -0.002667     -0.003743     -0.002556
      2.35878      4.86502      7.77727         0.002667      0.003743      0.002556
      3.60998      0.69007      7.77727        -0.002667      0.003743      0.002556
      8.32754      7.65985      0.56744         0.002667     -0.003743     -0.002556
      8.32754      3.48489      3.60492         0.002667     -0.003743      0.002556
      3.60998      4.86502      4.73980        -0.002667      0.003743     -0.002556
      8.32754      4.86502      4.73980         0.002667      0.003743     -0.002556
      3.60998      3.48489      3.60492        -0.002667     -0.003743      0.002556
      3.60998      7.65985      0.56744        -0.002667     -0.003743     -0.002556
      8.32754      0.69007      7.77727         0.002667      0.003743      0.002556
      8.31328      4.74351      0.69112        -0.004005     -0.003147      0.002987
      3.62425      3.60641      7.65360         0.004005      0.003147     -0.002987
      3.62425      7.78136      4.86348         0.004005      0.003147      0.002987
      8.31328      0.56855      3.48124        -0.004005     -0.003147     -0.002987
      3.62425      0.56855      3.48124         0.004005     -0.003147     -0.002987
      8.31328      7.78136      4.86348        -0.004005      0.003147      0.002987
      8.31328      3.60641      7.65360        -0.004005      0.003147     -0.002987
      3.62425      4.74351      0.69112         0.004005     -0.003147      0.002987
      2.34452      0.56855      0.69112        -0.004005     -0.003147      0.002987
      9.59301      7.78136      7.65360         0.004005      0.003147     -0.002987
      9.59301      3.60641      4.86348         0.004005      0.003147      0.002987
      2.34452      4.74351      3.48124        -0.004005     -0.003147     -0.002987
      9.59301      4.74351      3.48124         0.004005     -0.003147     -0.002987
      2.34452      3.60641      4.86348        -0.004005      0.003147      0.002987
      2.34452      7.78136      7.65360        -0.004005      0.003147     -0.002987
      9.59301      0.56855      0.69112         0.004005     -0.003147      0.002987
     -0.00000      5.02095      1.71956         0.000000     -0.002874     -0.002992
     -0.00000      3.32896      6.62516         0.000000      0.002874      0.002992
     -0.00000      7.50392      5.89191         0.000000      0.002874     -0.002992
     -0.00000      0.84600      2.45280         0.000000     -0.002874      0.002992
      5.96876      0.84600      1.71956         0.000000     -0.002874     -0.002992
      5.96876      7.50392      6.62516         0.000000      0.002874      0.002992
      5.96876      3.32896      5.89191         0.000000      0.002874     -0.002992
      5.96876      5.02095      2.45280         0.000000     -0.002874      0.002992
     -0.00000      1.90791      7.71416         0.000000      0.002494      0.008793
     -0.00000      6.44200      0.63055         0.000000     -0.002494     -0.008793
     -0.00000      2.26704      3.54181         0.000000     -0.002494      0.008793
     -0.00000      6.08287      4.80291         0.000000      0.002494     -0.008793
      5.96876      6.08287      7.71416         0.000000      0.002494      0.008793
      5.96876      2.26704      0.63055         0.000000     -0.002494     -0.008793
      5.96876      6.44200      3.54181         0.000000     -0.002494      0.008793
      5.96876      1.90791      4.80291         0.000000      0.002494     -0.008793
     -0.00000      1.94069      2.49636         0.000000      0.004569      0.000814
     -0.00000      6.40923      5.84835         0.000000     -0.004569     -0.000814
     -0.00000      2.23427      6.66872         0.000000     -0.004569      0.000814
     -0.00000      6.11564      1.67599         0.000000      0.004569     -0.000814
      5.96876      6.11564      2.49636         0.000000      0.004569      0.000814
      5.96876      2.23427      5.84835         0.000000     -0.004569     -0.000814
      5.96876      6.40923      6.66872         0.000000     -0.004569      0.000814
      5.96876      1.94069      1.67599         0.000000      0.004569     -0.000814
      8.94498      4.17496      0.00000        -0.005494      0.000000      0.000000
      2.99255      4.17496      0.00000         0.005494      0.000000      0.000000
      2.99255      0.00000      4.17236         0.005494      0.000000      0.000000
      8.94498      0.00000      4.17236        -0.005494      0.000000      0.000000
      2.97621      0.00000      0.00000        -0.005494      0.000000      0.000000
      8.96131      0.00000      0.00000         0.005494      0.000000      0.000000
      8.96131      4.17496      4.17236         0.005494      0.000000      0.000000
      2.97621      4.17496      4.17236        -0.005494      0.000000      0.000000
 -----------------------------------------------------------------------------------
    total drift:                                0.000012      0.000029      0.000097


--------------------------------------------------------------------------------------------------------



  FREE ENERGIE OF THE ION-ELECTRON SYSTEM (eV)
  ---------------------------------------------------
  free  energy   TOTEN  =      -387.34039049 eV

  energy  without entropy=     -387.34039049  energy(sigma->0) =     -387.34039049
 
 d Force = 0.2565432E-06[ 0.139E-06, 0.374E-06]  d Energy = 0.2762980E-06-0.198E-07
 d Force = 0.9685370E-03[ 0.968E-03, 0.969E-03]  d Ewald  = 0.9685370E-03-0.227E-10


--------------------------------------------------------------------------------------------------------


    POTLOK:  cpu time    0.77: real time    1.14


--------------------------------------------------------------------------------------------------------




--------------------------------------------------------------------------------------------------------


  
 reached required accuracy - stopping structural energy minimisation
     LOOP+:  cpu time  642.01: real time  953.34
    4ORBIT:  cpu time    0.00: real time    0.00
 BZINTS: Fermi energy: -6.471315;128.000000 electrons
         Band energy:***********;  BLOECHL correction:  0.000000

 total amount of memory used by VASP on root node   459016. kBytes
========================================================================

   base      :      30000. kBytes
   nonl-proj :      65915. kBytes
   fftplans  :      15108. kBytes
   grid      :      24076. kBytes
   one-center:        122. kBytes
   wavefun   :     323795. kBytes
 
  
  
 General timing and accounting informations for this job:
 ========================================================
  
                  Total CPU time used (sec):    28613.734
                            User time (sec):    21273.499
                          System time (sec):     7340.236
                         Elapsed time (sec):    42954.911
  
                   Maximum memory used (kb):      629472.
                   Average memory used (kb):           0.
  
                          Minor page faults:    185748063
                          Major page faults:            0
                 Voluntary context switches:         2577
