diamond                                 
           1
    11.937525    0.000000    0.000000
     0.000000    8.349915    0.000000
     0.000000    0.000000    8.344716
   H    C 
  64  16
Direct configuration=     1
   0.07496258  0.77863942  0.26175302
   0.92503744  0.22136058  0.73824701
   0.92503744  0.72136058  0.76175299
   0.07496258  0.27863942  0.23824698
   0.92503744  0.27863942  0.23824698
   0.07496258  0.72136058  0.76175299
   0.07496258  0.22136058  0.73824701
   0.92503744  0.77863942  0.26175302
   0.57496256  0.27863942  0.26175302
   0.42503741  0.72136058  0.73824701
   0.42503741  0.22136058  0.76175299
   0.57496256  0.77863942  0.23824698
   0.42503741  0.77863942  0.23824698
   0.57496256  0.22136058  0.76175299
   0.57496256  0.72136058  0.73824701
   0.42503741  0.27863942  0.26175302
   0.80278266  0.58221714  0.93157996
   0.19721734  0.41778286  0.06842004
   0.19721734  0.91778286  0.43157996
   0.80278266  0.08221714  0.56842004
   0.19721734  0.08221714  0.56842004
   0.80278266  0.91778286  0.43157996
   0.80278266  0.41778286  0.06842004
   0.19721734  0.58221714  0.93157996
   0.30278266  0.08221714  0.93157996
   0.69721734  0.91778286  0.06842004
   0.69721734  0.41778286  0.43157996
   0.30278266  0.58221714  0.56842004
   0.69721734  0.58221714  0.56842004
   0.30278266  0.41778286  0.43157996
   0.30278266  0.91778286  0.06842004
   0.69721734  0.08221714  0.93157996
   0.69676663  0.56851243  0.08242000
   0.30323337  0.43148757  0.91758000
   0.30323337  0.93148757  0.58242000
   0.69676663  0.06851243  0.41758000
   0.30323337  0.06851243  0.41758000
   0.69676663  0.93148757  0.58242000
   0.69676663  0.43148757  0.91758000
   0.30323337  0.56851243  0.08242000
   0.19676663  0.06851243  0.08242000
   0.80323337  0.93148757  0.91758000
   0.80323337  0.43148757  0.58242000
   0.19676663  0.56851243  0.41758000
   0.80323337  0.56851243  0.41758000
   0.19676663  0.43148757  0.58242000
   0.19676663  0.93148757  0.91758000
   0.80323337  0.06851243  0.08242000
   0.00000000  0.60141758  0.20663685
   0.00000000  0.39858242  0.79336312
   0.00000000  0.89858242  0.70663688
   0.00000000  0.10141758  0.29336315
   0.50000000  0.10141758  0.20663685
   0.50000000  0.89858242  0.79336312
   0.50000000  0.39858242  0.70663688
   0.50000000  0.60141758  0.29336315
   0.00000000  0.22802544  0.92368784
   0.00000000  0.77197456  0.07631216
   0.00000000  0.27197456  0.42368784
   0.00000000  0.72802544  0.57631216
   0.50000000  0.72802544  0.92368784
   0.50000000  0.27197456  0.07631216
   0.50000000  0.77197456  0.42368784
   0.50000000  0.22802544  0.57631216
   0.00000000  0.23254117  0.29842156
   0.00000000  0.76745883  0.70157842
   0.00000000  0.26745883  0.79842158
   0.00000000  0.73254117  0.20157842
   0.50000000  0.73254117  0.29842156
   0.50000000  0.26745883  0.70157842
   0.50000000  0.76745883  0.79842158
   0.50000000  0.23254117  0.20157842
   0.74967585  0.50000000  0.00000000
   0.25032415  0.50000000  0.00000000
   0.25032415  0.00000000  0.50000000
   0.74967585  0.00000000  0.50000000
   0.24967585  0.00000000  0.00000000
   0.75032415  0.00000000  0.00000000
   0.75032415  0.50000000  0.50000000
   0.24967585  0.50000000  0.50000000
Direct configuration=     2
   0.07496993  0.77866255  0.26168175
   0.92503009  0.22133745  0.73831828
   0.92503009  0.72133745  0.76168172
   0.07496993  0.27866255  0.23831825
   0.92503009  0.27866255  0.23831825
   0.07496993  0.72133745  0.76168172
   0.07496993  0.22133745  0.73831828
   0.92503009  0.77866255  0.26168175
   0.57496991  0.27866255  0.26168175
   0.42503006  0.72133745  0.73831828
   0.42503006  0.22133745  0.76168172
   0.57496991  0.77866255  0.23831825
   0.42503006  0.77866255  0.23831825
   0.57496991  0.22133745  0.76168172
   0.57496991  0.72133745  0.73831828
   0.42503006  0.27866255  0.26168175
   0.80278327  0.58228177  0.93156083
   0.19721673  0.41771823  0.06843917
   0.19721673  0.91771823  0.43156083
   0.80278327  0.08228177  0.56843917
   0.19721673  0.08228177  0.56843917
   0.80278327  0.91771823  0.43156083
   0.80278327  0.41771823  0.06843917
   0.19721673  0.58228177  0.93156083
   0.30278327  0.08228177  0.93156083
   0.69721673  0.91771823  0.06843917
   0.69721673  0.41771823  0.43156083
   0.30278327  0.58228177  0.56843917
   0.69721673  0.58228177  0.56843917
   0.30278327  0.41771823  0.43156083
   0.30278327  0.91771823  0.06843917
   0.69721673  0.08228177  0.93156083
   0.69673288  0.56853033  0.08247723
   0.30326712  0.43146967  0.91752277
   0.30326712  0.93146967  0.58247723
   0.69673288  0.06853033  0.41752277
   0.30326712  0.06853033  0.41752277
   0.69673288  0.93146967  0.58247723
   0.69673288  0.43146967  0.91752277
   0.30326712  0.56853033  0.08247723
   0.19673288  0.06853033  0.08247723
   0.80326712  0.93146967  0.91752277
   0.80326712  0.43146967  0.58247723
   0.19673288  0.56853033  0.41752277
   0.80326712  0.56853033  0.41752277
   0.19673288  0.43146967  0.58247723
   0.19673288  0.93146967  0.91752277
   0.80326712  0.06853033  0.08247723
   0.00000000  0.60141795  0.20657117
   0.00000000  0.39858205  0.79342880
   0.00000000  0.89858205  0.70657120
   0.00000000  0.10141795  0.29342883
   0.50000000  0.10141795  0.20657117
   0.50000000  0.89858205  0.79342880
   0.50000000  0.39858205  0.70657120
   0.50000000  0.60141795  0.29342883
   0.00000000  0.22809047  0.92358883
   0.00000000  0.77190953  0.07641117
   0.00000000  0.27190953  0.42358883
   0.00000000  0.72809047  0.57641117
   0.50000000  0.72809047  0.92358883
   0.50000000  0.27190953  0.07641117
   0.50000000  0.77190953  0.42358883
   0.50000000  0.22809047  0.57641117
   0.00000000  0.23253965  0.29848354
   0.00000000  0.76746035  0.70151645
   0.00000000  0.26746035  0.79848355
   0.00000000  0.73253965  0.20151645
   0.50000000  0.73253965  0.29848354
   0.50000000  0.26746035  0.70151645
   0.50000000  0.76746035  0.79848355
   0.50000000  0.23253965  0.20151645
   0.74966309  0.50000000  0.00000000
   0.25033691  0.50000000  0.00000000
   0.25033691 -0.00000000  0.50000000
   0.74966309 -0.00000000  0.50000000
   0.24966309 -0.00000000  0.00000000
   0.75033691 -0.00000000  0.00000000
   0.75033691  0.50000000  0.50000000
   0.24966309  0.50000000  0.50000000
Direct configuration=     3
   0.07496812  0.77865686  0.26169927
   0.92503190  0.22134314  0.73830076
   0.92503190  0.72134314  0.76169924
   0.07496812  0.27865686  0.23830073
   0.92503190  0.27865686  0.23830073
   0.07496812  0.72134314  0.76169924
   0.07496812  0.22134314  0.73830076
   0.92503190  0.77865686  0.26169927
   0.57496810  0.27865686  0.26169927
   0.42503187  0.72134314  0.73830076
   0.42503187  0.22134314  0.76169924
   0.57496810  0.77865686  0.23830073
   0.42503187  0.77865686  0.23830073
   0.57496810  0.22134314  0.76169924
   0.57496810  0.72134314  0.73830076
   0.42503187  0.27865686  0.26169927
   0.80278312  0.58226588  0.93156554
   0.19721688  0.41773412  0.06843446
   0.19721688  0.91773412  0.43156554
   0.80278312  0.08226588  0.56843446
   0.19721688  0.08226588  0.56843446
   0.80278312  0.91773412  0.43156554
   0.80278312  0.41773412  0.06843446
   0.19721688  0.58226588  0.93156554
   0.30278312  0.08226588  0.93156554
   0.69721688  0.91773412  0.06843446
   0.69721688  0.41773412  0.43156554
   0.30278312  0.58226588  0.56843446
   0.69721688  0.58226588  0.56843446
   0.30278312  0.41773412  0.43156554
   0.30278312  0.91773412  0.06843446
   0.69721688  0.08226588  0.93156554
   0.69674118  0.56852593  0.08246316
   0.30325882  0.43147407  0.91753684
   0.30325882  0.93147407  0.58246316
   0.69674118  0.06852593  0.41753684
   0.30325882  0.06852593  0.41753684
   0.69674118  0.93147407  0.58246316
   0.69674118  0.43147407  0.91753684
   0.30325882  0.56852593  0.08246316
   0.19674118  0.06852593  0.08246316
   0.80325882  0.93147407  0.91753684
   0.80325882  0.43147407  0.58246316
   0.19674118  0.56852593  0.41753684
   0.80325882  0.56852593  0.41753684
   0.19674118  0.43147407  0.58246316
   0.19674118  0.93147407  0.91753684
   0.80325882  0.06852593  0.08246316
   0.00000000  0.60141786  0.20658732
   0.00000000  0.39858214  0.79341265
   0.00000000  0.89858214  0.70658735
   0.00000000  0.10141786  0.29341268
   0.50000000  0.10141786  0.20658732
   0.50000000  0.89858214  0.79341265
   0.50000000  0.39858214  0.70658735
   0.50000000  0.60141786  0.29341268
   0.00000000  0.22807448  0.92361317
   0.00000000  0.77192552  0.07638683
   0.00000000  0.27192552  0.42361317
   0.00000000  0.72807448  0.57638683
   0.50000000  0.72807448  0.92361317
   0.50000000  0.27192552  0.07638683
   0.50000000  0.77192552  0.42361317
   0.50000000  0.22807448  0.57638683
   0.00000000  0.23254002  0.29846830
   0.00000000  0.76745998  0.70153169
   0.00000000  0.26745998  0.79846831
   0.00000000  0.73254002  0.20153169
   0.50000000  0.73254002  0.29846830
   0.50000000  0.26745998  0.70153169
   0.50000000  0.76745998  0.79846831
   0.50000000  0.23254002  0.20153169
   0.74966623  0.50000000  0.00000000
   0.25033377  0.50000000  0.00000000
   0.25033377 -0.00000000  0.50000000
   0.74966623 -0.00000000  0.50000000
   0.24966623 -0.00000000  0.00000000
   0.75033377 -0.00000000  0.00000000
   0.75033377  0.50000000  0.50000000
   0.24966623  0.50000000  0.50000000
