diamond                                 
           1
    11.785438    0.000000    0.000000
     0.000000    8.243535    0.000000
     0.000000    0.000000    8.238402
   H    C 
  64  16
Direct configuration=     1
   0.07280000  0.78549999  0.18230000
   0.92720002  0.21450001  0.81770003
   0.92720002  0.71450001  0.68229997
   0.07280000  0.28549999  0.31770000
   0.92720002  0.28549999  0.31770000
   0.07280000  0.71450001  0.68229997
   0.07280000  0.21450001  0.81770003
   0.92720002  0.78549999  0.18230000
   0.57279998  0.28549999  0.18230000
   0.42719999  0.71450001  0.81770003
   0.42719999  0.21450001  0.68229997
   0.57279998  0.78549999  0.31770000
   0.42719999  0.78549999  0.31770000
   0.57279998  0.21450001  0.68229997
   0.57279998  0.71450001  0.81770003
   0.42719999  0.28549999  0.18230000
   0.80100000  0.57950002  0.93360001
   0.19900000  0.42049998  0.06639999
   0.19900000  0.92049998  0.43360001
   0.80100000  0.07950002  0.56639999
   0.19900000  0.07950002  0.56639999
   0.80100000  0.92049998  0.43360001
   0.80100000  0.42049998  0.06639999
   0.19900000  0.57950002  0.93360001
   0.30100000  0.07950002  0.93360001
   0.69900000  0.92049998  0.06639999
   0.69900000  0.42049998  0.43360001
   0.30100000  0.57950002  0.56639999
   0.69900000  0.57950002  0.56639999
   0.30100000  0.42049998  0.43360001
   0.30100000  0.92049998  0.06639999
   0.69900000  0.07950002  0.93360001
   0.69859999  0.56629997  0.07959998
   0.30140001  0.43370003  0.92040002
   0.30140001  0.93370003  0.57959998
   0.69859999  0.06629997  0.42040002
   0.30140001  0.06629997  0.42040002
   0.69859999  0.93370003  0.57959998
   0.69859999  0.43370003  0.92040002
   0.30140001  0.56629997  0.07959998
   0.19859999  0.06629997  0.07959998
   0.80140001  0.93370003  0.92040002
   0.80140001  0.43370003  0.57959998
   0.19859999  0.56629997  0.42040002
   0.80140001  0.56629997  0.42040002
   0.19859999  0.43370003  0.57959998
   0.19859999  0.93370003  0.92040002
   0.80140001  0.06629997  0.07959998
   0.00000000  0.60589999  0.19920000
   0.00000000  0.39410001  0.80079997
   0.00000000  0.89410001  0.69920003
   0.00000000  0.10589999  0.30080000
   0.50000000  0.10589999  0.19920000
   0.50000000  0.89410001  0.80079997
   0.50000000  0.39410001  0.69920003
   0.50000000  0.60589999  0.30080000
   0.00000000  0.74159998  0.78549999
   0.00000000  0.25840002  0.21450001
   0.00000000  0.75840002  0.28549999
   0.00000000  0.24159998  0.71450001
   0.50000000  0.24159998  0.78549999
   0.50000000  0.75840002  0.21450001
   0.50000000  0.25840002  0.28549999
   0.50000000  0.74159998  0.71450001
   0.00000000  0.72960001  0.23029999
   0.00000000  0.27039999  0.76969999
   0.00000000  0.77039999  0.73030001
   0.00000000  0.22960001  0.26969999
   0.50000000  0.22960001  0.23029999
   0.50000000  0.77039999  0.76969999
   0.50000000  0.27039999  0.73030001
   0.50000000  0.72960001  0.26969999
   0.74980003  0.50000000  0.00000000
   0.25019997  0.50000000  0.00000000
   0.25019997  0.00000000  0.50000000
   0.74980003  0.00000000  0.50000000
   0.24980003  0.00000000  0.00000000
   0.75019997  0.00000000  0.00000000
   0.75019997  0.50000000  0.50000000
   0.24980003  0.50000000  0.50000000
Direct configuration=     2
   0.07747951  0.78779360  0.17237807
   0.92252052  0.21220640  0.82762196
   0.92252052  0.71220640  0.67237804
   0.07747951  0.28779360  0.32762193
   0.92252052  0.28779360  0.32762193
   0.07747951  0.71220640  0.67237804
   0.07747951  0.21220640  0.82762196
   0.92252052  0.78779360  0.17237807
   0.57747948  0.28779360  0.17237807
   0.42252049  0.71220640  0.82762196
   0.42252049  0.21220640  0.67237804
   0.57747948  0.78779360  0.32762193
   0.42252049  0.78779360  0.32762193
   0.57747948  0.21220640  0.67237804
   0.57747948  0.71220640  0.82762196
   0.42252049  0.28779360  0.17237807
   0.80549058  0.58646985  0.92786166
   0.19450942  0.41353015  0.07213834
   0.19450942  0.91353015  0.42786166
   0.80549058  0.08646985  0.57213834
   0.19450942  0.08646985  0.57213834
   0.80549058  0.91353015  0.42786166
   0.80549058  0.41353015  0.07213834
   0.19450942  0.58646985  0.92786166
   0.30549058  0.08646985  0.92786166
   0.69450942  0.91353015  0.07213834
   0.69450942  0.41353015  0.42786166
   0.30549058  0.58646985  0.57213834
   0.69450942  0.58646985  0.57213834
   0.30549058  0.41353015  0.42786166
   0.30549058  0.91353015  0.07213834
   0.69450942  0.08646985  0.92786166
   0.69412020  0.57210356  0.08650210
   0.30587980  0.42789644  0.91349790
   0.30587980  0.92789644  0.58650210
   0.69412020  0.07210356  0.41349790
   0.30587980  0.07210356  0.41349790
   0.69412020  0.92789644  0.58650210
   0.69412020  0.42789644  0.91349790
   0.30587980  0.57210356  0.08650210
   0.19412020  0.07210356  0.08650210
   0.80587980  0.92789644  0.91349790
   0.80587980  0.42789644  0.58650210
   0.19412020  0.57210356  0.41349790
   0.80587980  0.57210356  0.41349790
   0.19412020  0.42789644  0.58650210
   0.19412020  0.92789644  0.91349790
   0.80587980  0.07210356  0.08650210
   0.00000000  0.59948373  0.20245185
   0.00000000  0.40051627  0.79754812
   0.00000000  0.90051627  0.70245188
   0.00000000  0.09948373  0.29754815
   0.50000000  0.09948373  0.20245185
   0.50000000  0.90051627  0.79754812
   0.50000000  0.40051627  0.70245188
   0.50000000  0.59948373  0.29754815
   0.00000000  0.33890516  0.60898842
   0.00000000  0.66109484 -0.60898842
   0.00000000  0.16109484  0.10898842
   0.00000000 -0.16109484 -0.10898842
   0.50000000 -0.16109484  0.60898842
   0.50000000  0.16109484 -0.60898842
   0.50000000  0.66109484  0.10898842
   0.50000000  0.33890516 -0.10898842
   0.00000000  0.32873242 -0.57661119
   0.00000000  0.67126758  0.57661118
   0.00000000  0.17126758 -0.07661118
   0.00000000 -0.17126758  0.07661118
   0.50000000 -0.17126758 -0.57661119
   0.50000000  0.17126758  0.57661118
   0.50000000  0.67126758 -0.07661118
   0.50000000  0.32873242  0.07661118
   0.74979320  0.50000000 -0.00000000
   0.25020680  0.50000000 -0.00000000
   0.25020680  0.00000000  0.50000000
   0.74979320  0.00000000  0.50000000
   0.24979320  0.00000000 -0.00000000
   0.75020680 -0.00000000 -0.00000000
   0.75020680  0.50000000  0.50000000
   0.24979320  0.50000000  0.50000000
Direct configuration=     3
   0.07739498  0.78775217  0.17255729
   0.92260504  0.21224783  0.82744274
   0.92260504  0.71224783  0.67255726
   0.07739498  0.28775217  0.32744271
   0.92260504  0.28775217  0.32744271
   0.07739498  0.71224783  0.67255726
   0.07739498  0.21224783  0.82744274
   0.92260504  0.78775217  0.17255729
   0.57739496  0.28775217  0.17255729
   0.42260502  0.71224783  0.82744274
   0.42260502  0.21224783  0.67255726
   0.57739496  0.78775217  0.32744271
   0.42260502  0.78775217  0.32744271
   0.57739496  0.21224783  0.67255726
   0.57739496  0.71224783  0.82744274
   0.42260502  0.28775217  0.17255729
   0.80540946  0.58634395  0.92796531
   0.19459054  0.41365605  0.07203469
   0.19459054  0.91365605  0.42796531
   0.80540946  0.08634395  0.57203469
   0.19459054  0.08634395  0.57203469
   0.80540946  0.91365605  0.42796531
   0.80540946  0.41365605  0.07203469
   0.19459054  0.58634395  0.92796531
   0.30540946  0.08634395  0.92796531
   0.69459054  0.91365605  0.07203469
   0.69459054  0.41365605  0.42796531
   0.30540946  0.58634395  0.57203469
   0.69459054  0.58634395  0.57203469
   0.30540946  0.41365605  0.42796531
   0.30540946  0.91365605  0.07203469
   0.69459054  0.08634395  0.92796531
   0.69420112  0.57199873  0.08637743
   0.30579888  0.42800127  0.91362257
   0.30579888  0.92800127  0.58637743
   0.69420112  0.07199873  0.41362257
   0.30579888  0.07199873  0.41362257
   0.69420112  0.92800127  0.58637743
   0.69420112  0.42800127  0.91362257
   0.30579888  0.57199873  0.08637743
   0.19420112  0.07199873  0.08637743
   0.80579888  0.92800127  0.91362257
   0.80579888  0.42800127  0.58637743
   0.19420112  0.57199873  0.41362257
   0.80579888  0.57199873  0.41362257
   0.19420112  0.42800127  0.58637743
   0.19420112  0.92800127  0.91362257
   0.80579888  0.07199873  0.08637743
   0.00000000  0.59959963  0.20239311
   0.00000000  0.40040037  0.79760686
   0.00000000  0.90040037  0.70239314
   0.00000000  0.09959963  0.29760689
   0.50000000  0.09959963  0.20239311
   0.50000000  0.90040037  0.79760686
   0.50000000  0.40040037  0.70239314
   0.50000000  0.59959963  0.29760689
   0.00000000  0.34617916  0.59411349
   0.00000000  0.65382084 -0.59411349
   0.00000000  0.15382084  0.09411349
   0.00000000 -0.15382084 -0.09411349
   0.50000000 -0.15382084  0.59411349
   0.50000000  0.15382084 -0.59411349
   0.50000000  0.65382084  0.09411349
   0.50000000  0.34617916 -0.09411349
   0.00000000  0.33597341 -0.56203570
   0.00000000  0.66402659  0.56203569
   0.00000000  0.16402659 -0.06203569
   0.00000000 -0.16402659  0.06203569
   0.50000000 -0.16402659 -0.56203570
   0.50000000  0.16402659  0.56203569
   0.50000000  0.66402659 -0.06203569
   0.50000000  0.33597341  0.06203569
   0.74979332  0.50000000 -0.00000000
   0.25020668  0.50000000 -0.00000000
   0.25020668  0.00000000  0.50000000
   0.74979332  0.00000000  0.50000000
   0.24979332  0.00000000 -0.00000000
   0.75020668 -0.00000000 -0.00000000
   0.75020668  0.50000000  0.50000000
   0.24979332  0.50000000  0.50000000
Direct configuration=     4
   0.07739719  0.78775325  0.17255260
   0.92260283  0.21224675  0.82744743
   0.92260283  0.71224675  0.67255257
   0.07739719  0.28775325  0.32744740
   0.92260283  0.28775325  0.32744740
   0.07739719  0.71224675  0.67255257
   0.07739719  0.21224675  0.82744743
   0.92260283  0.78775325  0.17255260
   0.57739717  0.28775325  0.17255260
   0.42260280  0.71224675  0.82744743
   0.42260280  0.21224675  0.67255257
   0.57739717  0.78775325  0.32744740
   0.42260280  0.78775325  0.32744740
   0.57739717  0.21224675  0.67255257
   0.57739717  0.71224675  0.82744743
   0.42260280  0.28775325  0.17255260
   0.80541158  0.58634725  0.92796260
   0.19458842  0.41365275  0.07203740
   0.19458842  0.91365275  0.42796260
   0.80541158  0.08634725  0.57203740
   0.19458842  0.08634725  0.57203740
   0.80541158  0.91365275  0.42796260
   0.80541158  0.41365275  0.07203740
   0.19458842  0.58634725  0.92796260
   0.30541158  0.08634725  0.92796260
   0.69458842  0.91365275  0.07203740
   0.69458842  0.41365275  0.42796260
   0.30541158  0.58634725  0.57203740
   0.69458842  0.58634725  0.57203740
   0.30541158  0.41365275  0.42796260
   0.30541158  0.91365275  0.07203740
   0.69458842  0.08634725  0.92796260
   0.69419900  0.57200147  0.08638069
   0.30580100  0.42799853  0.91361931
   0.30580100  0.92799853  0.58638069
   0.69419900  0.07200147  0.41361931
   0.30580100  0.07200147  0.41361931
   0.69419900  0.92799853  0.58638069
   0.69419900  0.42799853  0.91361931
   0.30580100  0.57200147  0.08638069
   0.19419900  0.07200147  0.08638069
   0.80580100  0.92799853  0.91361931
   0.80580100  0.42799853  0.58638069
   0.19419900  0.57200147  0.41361931
   0.80580100  0.57200147  0.41361931
   0.19419900  0.42799853  0.58638069
   0.19419900  0.92799853  0.91361931
   0.80580100  0.07200147  0.08638069
   0.00000000  0.59959660  0.20239464
   0.00000000  0.40040340  0.79760533
   0.00000000  0.90040340  0.70239467
   0.00000000  0.09959660  0.29760536
   0.50000000  0.09959660  0.20239464
   0.50000000  0.90040340  0.79760533
   0.50000000  0.40040340  0.70239467
   0.50000000  0.59959660  0.29760536
   0.00000000  0.34598883  0.59450270
   0.00000000  0.65401117 -0.59450270
   0.00000000  0.15401117  0.09450270
   0.00000000 -0.15401117 -0.09450270
   0.50000000 -0.15401117  0.59450270
   0.50000000  0.15401117 -0.59450270
   0.50000000  0.65401117  0.09450270
   0.50000000  0.34598883 -0.09450270
   0.00000000  0.33578395 -0.56241708
   0.00000000  0.66421605  0.56241707
   0.00000000  0.16421605 -0.06241707
   0.00000000 -0.16421605  0.06241707
   0.50000000 -0.16421605 -0.56241708
   0.50000000  0.16421605  0.56241707
   0.50000000  0.66421605 -0.06241707
   0.50000000  0.33578395  0.06241707
   0.74979332  0.50000000 -0.00000000
   0.25020668  0.50000000 -0.00000000
   0.25020668  0.00000000  0.50000000
   0.74979332  0.00000000  0.50000000
   0.24979332  0.00000000 -0.00000000
   0.75020668 -0.00000000 -0.00000000
   0.75020668  0.50000000  0.50000000
   0.24979332  0.50000000  0.50000000
Direct configuration=     5
   0.07743835  0.78777342  0.17246534
   0.92256167  0.21222658  0.82753469
   0.92256167  0.71222658  0.67246531
   0.07743835  0.28777342  0.32753466
   0.92256167  0.28777342  0.32753466
   0.07743835  0.71222658  0.67246531
   0.07743835  0.21222658  0.82753469
   0.92256167  0.78777342  0.17246534
   0.57743833  0.28777342  0.17246534
   0.42256165  0.71222658  0.82753469
   0.42256165  0.21222658  0.67246531
   0.57743833  0.78777342  0.32753466
   0.42256165  0.78777342  0.32753466
   0.57743833  0.21222658  0.67246531
   0.57743833  0.71222658  0.82753469
   0.42256165  0.28777342  0.17246534
   0.80545108  0.58640855  0.92791213
   0.19454892  0.41359145  0.07208787
   0.19454892  0.91359145  0.42791213
   0.80545108  0.08640855  0.57208787
   0.19454892  0.08640855  0.57208787
   0.80545108  0.91359145  0.42791213
   0.80545108  0.41359145  0.07208787
   0.19454892  0.58640855  0.92791213
   0.30545108  0.08640855  0.92791213
   0.69454892  0.91359145  0.07208787
   0.69454892  0.41359145  0.42791213
   0.30545108  0.58640855  0.57208787
   0.69454892  0.58640855  0.57208787
   0.30545108  0.41359145  0.42791213
   0.30545108  0.91359145  0.07208787
   0.69454892  0.08640855  0.92791213
   0.69415960  0.57205252  0.08644140
   0.30584040  0.42794748  0.91355860
   0.30584040  0.92794748  0.58644140
   0.69415960  0.07205252  0.41355860
   0.30584040  0.07205252  0.41355860
   0.69415960  0.92794748  0.58644140
   0.69415960  0.42794748  0.91355860
   0.30584040  0.57205252  0.08644140
   0.19415960  0.07205252  0.08644140
   0.80584040  0.92794748  0.91355860
   0.80584040  0.42794748  0.58644140
   0.19415960  0.57205252  0.41355860
   0.80584040  0.57205252  0.41355860
   0.19415960  0.42794748  0.58644140
   0.19415960  0.92794748  0.91355860
   0.80584040  0.07205252  0.08644140
   0.00000000  0.59954016  0.20242324
   0.00000000  0.40045984  0.79757673
   0.00000000  0.90045984  0.70242327
   0.00000000  0.09954016  0.29757676
   0.50000000  0.09954016  0.20242324
   0.50000000  0.90045984  0.79757673
   0.50000000  0.40045984  0.70242327
   0.50000000  0.59954016  0.29757676
   0.00000000  0.34244699  0.60174556
   0.00000000  0.65755301 -0.60174556
   0.00000000  0.15755301  0.10174556
   0.00000000 -0.15755301 -0.10174556
   0.50000000 -0.15755301  0.60174556
   0.50000000  0.15755301 -0.60174556
   0.50000000  0.65755301  0.10174556
   0.50000000  0.34244699 -0.10174556
   0.00000000  0.33225818 -0.56951414
   0.00000000  0.66774182  0.56951412
   0.00000000  0.16774182 -0.06951412
   0.00000000 -0.16774182  0.06951412
   0.50000000 -0.16774182 -0.56951414
   0.50000000  0.16774182  0.56951412
   0.50000000  0.66774182 -0.06951412
   0.50000000  0.33225818  0.06951412
   0.74979326  0.50000000 -0.00000000
   0.25020674  0.50000000 -0.00000000
   0.25020674  0.00000000  0.50000000
   0.74979326  0.00000000  0.50000000
   0.24979326  0.00000000 -0.00000000
   0.75020674 -0.00000000 -0.00000000
   0.75020674  0.50000000  0.50000000
   0.24979326  0.50000000  0.50000000
Direct configuration=     6
   0.07740265  0.78775593  0.17254103
   0.92259737  0.21224407  0.82745900
   0.92259737  0.71224407  0.67254100
   0.07740265  0.28775593  0.32745897
   0.92259737  0.28775593  0.32745897
   0.07740265  0.71224407  0.67254100
   0.07740265  0.21224407  0.82745900
   0.92259737  0.78775593  0.17254103
   0.57740263  0.28775593  0.17254103
   0.42259734  0.71224407  0.82745900
   0.42259734  0.21224407  0.67254100
   0.57740263  0.78775593  0.32745897
   0.42259734  0.78775593  0.32745897
   0.57740263  0.21224407  0.67254100
   0.57740263  0.71224407  0.82745900
   0.42259734  0.28775593  0.17254103
   0.80541682  0.58635538  0.92795591
   0.19458318  0.41364462  0.07204409
   0.19458318  0.91364462  0.42795591
   0.80541682  0.08635538  0.57204409
   0.19458318  0.08635538  0.57204409
   0.80541682  0.91364462  0.42795591
   0.80541682  0.41364462  0.07204409
   0.19458318  0.58635538  0.92795591
   0.30541682  0.08635538  0.92795591
   0.69458318  0.91364462  0.07204409
   0.69458318  0.41364462  0.42795591
   0.30541682  0.58635538  0.57204409
   0.69458318  0.58635538  0.57204409
   0.30541682  0.41364462  0.42795591
   0.30541682  0.91364462  0.07204409
   0.69458318  0.08635538  0.92795591
   0.69419377  0.57200824  0.08638874
   0.30580623  0.42799176  0.91361126
   0.30580623  0.92799176  0.58638874
   0.69419377  0.07200824  0.41361126
   0.30580623  0.07200824  0.41361126
   0.69419377  0.92799176  0.58638874
   0.69419377  0.42799176  0.91361126
   0.30580623  0.57200824  0.08638874
   0.19419377  0.07200824  0.08638874
   0.80580623  0.92799176  0.91361126
   0.80580623  0.42799176  0.58638874
   0.19419377  0.57200824  0.41361126
   0.80580623  0.57200824  0.41361126
   0.19419377  0.42799176  0.58638874
   0.19419377  0.92799176  0.91361126
   0.80580623  0.07200824  0.08638874
   0.00000000  0.59958911  0.20239844
   0.00000000  0.40041089  0.79760153
   0.00000000  0.90041089  0.70239847
   0.00000000  0.09958911  0.29760156
   0.50000000  0.09958911  0.20239844
   0.50000000  0.90041089  0.79760153
   0.50000000  0.40041089  0.70239847
   0.50000000  0.59958911  0.29760156
   0.00000000  0.34551905  0.59546339
   0.00000000  0.65448095 -0.59546339
   0.00000000  0.15448095  0.09546339
   0.00000000 -0.15448095 -0.09546339
   0.50000000 -0.15448095  0.59546339
   0.50000000  0.15448095 -0.59546339
   0.50000000  0.65448095  0.09546339
   0.50000000  0.34551905 -0.09546339
   0.00000000  0.33531629 -0.56335843
   0.00000000  0.66468371  0.56335841
   0.00000000  0.16468371 -0.06335841
   0.00000000 -0.16468371  0.06335841
   0.50000000 -0.16468371 -0.56335843
   0.50000000  0.16468371  0.56335841
   0.50000000  0.66468371 -0.06335841
   0.50000000  0.33531629  0.06335841
   0.74979331  0.50000000 -0.00000000
   0.25020669  0.50000000 -0.00000000
   0.25020669  0.00000000  0.50000000
   0.74979331  0.00000000  0.50000000
   0.24979331  0.00000000 -0.00000000
   0.75020669 -0.00000000 -0.00000000
   0.75020669  0.50000000  0.50000000
   0.24979331  0.50000000  0.50000000
Direct configuration=     7
   0.07768060  0.78936854  0.16443186
   0.92231943  0.21063146  0.83556817
   0.92231943  0.71063146  0.66443183
   0.07768060  0.28936854  0.33556814
   0.92231943  0.28936854  0.33556814
   0.07768060  0.71063146  0.66443183
   0.07768060  0.21063146  0.83556817
   0.92231943  0.78936854  0.16443186
   0.57768057  0.28936854  0.16443186
   0.42231940  0.71063146  0.83556817
   0.42231940  0.21063146  0.66443183
   0.57768057  0.78936854  0.33556814
   0.42231940  0.78936854  0.33556814
   0.57768057  0.21063146  0.66443183
   0.57768057  0.71063146  0.83556817
   0.42231940  0.28936854  0.16443186
   0.80773771  0.58730993  0.92655127
   0.19226229  0.41269007  0.07344873
   0.19226229  0.91269007  0.42655127
   0.80773771  0.08730993  0.57344873
   0.19226229  0.08730993  0.57344873
   0.80773771  0.91269007  0.42655127
   0.80773771  0.41269007  0.07344873
   0.19226229  0.58730993  0.92655127
   0.30773771  0.08730993  0.92655127
   0.69226229  0.91269007  0.07344873
   0.69226229  0.41269007  0.42655127
   0.30773771  0.58730993  0.57344873
   0.69226229  0.58730993  0.57344873
   0.30773771  0.41269007  0.42655127
   0.30773771  0.91269007  0.07344873
   0.69226229  0.08730993  0.92655127
   0.69213010  0.57270935  0.08866290
   0.30786990  0.42729065  0.91133710
   0.30786990  0.92729065  0.58866290
   0.69213010  0.07270935  0.41133710
   0.30786990  0.07270935  0.41133710
   0.69213010  0.92729065  0.58866290
   0.69213010  0.42729065  0.91133710
   0.30786990  0.57270935  0.08866290
   0.19213010  0.07270935  0.08866290
   0.80786990  0.92729065  0.91133710
   0.80786990  0.42729065  0.58866290
   0.19213010  0.57270935  0.41133710
   0.80786990  0.57270935  0.41133710
   0.19213010  0.42729065  0.58866290
   0.19213010  0.92729065  0.91133710
   0.80786990  0.07270935  0.08866290
   0.00000000  0.59576357  0.20980564
   0.00000000  0.40423643  0.79019433
   0.00000000  0.90423643  0.70980567
   0.00000000  0.09576357  0.29019436
   0.50000000  0.09576357  0.20980564
   0.50000000  0.90423643  0.79019433
   0.50000000  0.40423643  0.70980567
   0.50000000  0.59576357  0.29019436
   0.00000000  0.34693084  0.59130250
   0.00000000  0.65306916 -0.59130250
   0.00000000  0.15306916  0.09130250
   0.00000000 -0.15306916 -0.09130250
   0.50000000 -0.15306916  0.59130250
   0.50000000  0.15306916 -0.59130250
   0.50000000  0.65306916  0.09130250
   0.50000000  0.34693084 -0.09130250
   0.00000000  0.33447191 -0.56780757
   0.00000000  0.66552809  0.56780755
   0.00000000  0.16552809 -0.06780755
   0.00000000 -0.16552809  0.06780755
   0.50000000 -0.16552809 -0.56780757
   0.50000000  0.16552809  0.56780755
   0.50000000  0.66552809 -0.06780755
   0.50000000  0.33447191  0.06780755
   0.75035131  0.50000000 -0.00000000
   0.24964869  0.50000000 -0.00000000
   0.24964869  0.00000000  0.50000000
   0.75035131  0.00000000  0.50000000
   0.25035131  0.00000000 -0.00000000
   0.74964869  0.00000000 -0.00000000
   0.74964869  0.50000000  0.50000000
   0.25035131  0.50000000  0.50000000
Direct configuration=     8
   0.07800310  0.79123967  0.15502267
   0.92199692  0.20876033  0.84497736
   0.92199692  0.70876033  0.65502264
   0.07800310  0.29123967  0.34497733
   0.92199692  0.29123967  0.34497733
   0.07800310  0.70876033  0.65502264
   0.07800310  0.20876033  0.84497736
   0.92199692  0.79123967  0.15502267
   0.57800308  0.29123967  0.15502267
   0.42199689  0.70876033  0.84497736
   0.42199689  0.20876033  0.65502264
   0.57800308  0.79123967  0.34497733
   0.42199689  0.79123967  0.34497733
   0.57800308  0.20876033  0.65502264
   0.57800308  0.70876033  0.84497736
   0.42199689  0.29123967  0.15502267
   0.81043067  0.58841751  0.92492144
   0.18956933  0.41158249  0.07507856
   0.18956933  0.91158249  0.42492144
   0.81043067  0.08841751  0.57507856
   0.18956933  0.08841751  0.57507856
   0.81043067  0.91158249  0.42492144
   0.81043067  0.41158249  0.07507856
   0.18956933  0.58841751  0.92492144
   0.31043067  0.08841751  0.92492144
   0.68956933  0.91158249  0.07507856
   0.68956933  0.41158249  0.42492144
   0.31043067  0.58841751  0.57507856
   0.68956933  0.58841751  0.57507856
   0.31043067  0.41158249  0.42492144
   0.31043067  0.91158249  0.07507856
   0.68956933  0.08841751  0.92492144
   0.68973559  0.57352286  0.09130163
   0.31026441  0.42647714  0.90869837
   0.31026441  0.92647714  0.59130163
   0.68973559  0.07352286  0.40869837
   0.31026441  0.07352286  0.40869837
   0.68973559  0.92647714  0.59130163
   0.68973559  0.42647714  0.90869837
   0.31026441  0.57352286  0.09130163
   0.18973559  0.07352286  0.09130163
   0.81026441  0.92647714  0.90869837
   0.81026441  0.42647714  0.59130163
   0.18973559  0.57352286  0.40869837
   0.81026441  0.57352286  0.40869837
   0.18973559  0.42647714  0.59130163
   0.18973559  0.92647714  0.90869837
   0.81026441  0.07352286  0.09130163
   0.00000000  0.59132472  0.21840034
   0.00000000  0.40867528  0.78159963
   0.00000000  0.90867528  0.71840037
   0.00000000  0.09132472  0.28159966
   0.50000000  0.09132472  0.21840034
   0.50000000  0.90867528  0.78159963
   0.50000000  0.40867528  0.71840037
   0.50000000  0.59132472  0.28159966
   0.00000000  0.34856896  0.58647455
   0.00000000  0.65143104 -0.58647455
   0.00000000  0.15143104  0.08647455
   0.00000000 -0.15143104 -0.08647455
   0.50000000 -0.15143104  0.58647455
   0.50000000  0.15143104 -0.58647455
   0.50000000  0.65143104  0.08647455
   0.50000000  0.34856896 -0.08647455
   0.00000000  0.33349216 -0.57296998
   0.00000000  0.66650784  0.57296996
   0.00000000  0.16650784 -0.07296996
   0.00000000 -0.16650784  0.07296996
   0.50000000 -0.16650784 -0.57296998
   0.50000000  0.16650784  0.57296996
   0.50000000  0.66650784 -0.07296996
   0.50000000  0.33349216  0.07296996
   0.75099878  0.50000000 -0.00000000
   0.24900122  0.50000000 -0.00000000
   0.24900122  0.00000000  0.50000000
   0.75099878  0.00000000  0.50000000
   0.25099878  0.00000000 -0.00000000
   0.74900122  0.00000000 -0.00000000
   0.74900122  0.50000000  0.50000000
   0.25099878  0.50000000  0.50000000
Direct configuration=     9
   0.07926306  0.79173695  0.15099756
   0.92073696  0.20826305  0.84900247
   0.92073696  0.70826305  0.65099753
   0.07926306  0.29173695  0.34900244
   0.92073696  0.29173695  0.34900244
   0.07926306  0.70826305  0.65099753
   0.07926306  0.20826305  0.84900247
   0.92073696  0.79173695  0.15099756
   0.57926304  0.29173695  0.15099756
   0.42073693  0.70826305  0.84900247
   0.42073693  0.20826305  0.65099753
   0.57926304  0.79173695  0.34900244
   0.42073693  0.79173695  0.34900244
   0.57926304  0.20826305  0.65099753
   0.57926304  0.70826305  0.84900247
   0.42073693  0.29173695  0.15099756
   0.81127274  0.58814484  0.92483653
   0.18872726  0.41185516  0.07516347
   0.18872726  0.91185516  0.42483653
   0.81127274  0.08814484  0.57516347
   0.18872726  0.08814484  0.57516347
   0.81127274  0.91185516  0.42483653
   0.81127274  0.41185516  0.07516347
   0.18872726  0.58814484  0.92483653
   0.31127274  0.08814484  0.92483653
   0.68872726  0.91185516  0.07516347
   0.68872726  0.41185516  0.42483653
   0.31127274  0.58814484  0.57516347
   0.68872726  0.58814484  0.57516347
   0.31127274  0.41185516  0.42483653
   0.31127274  0.91185516  0.07516347
   0.68872726  0.08814484  0.92483653
   0.68935077  0.57300875  0.09159387
   0.31064923  0.42699125  0.90840613
   0.31064923  0.92699125  0.59159387
   0.68935077  0.07300875  0.40840613
   0.31064923  0.07300875  0.40840613
   0.68935077  0.92699125  0.59159387
   0.68935077  0.42699125  0.90840613
   0.31064923  0.57300875  0.09159387
   0.18935077  0.07300875  0.09159387
   0.81064923  0.92699125  0.90840613
   0.81064923  0.42699125  0.59159387
   0.18935077  0.57300875  0.40840613
   0.81064923  0.57300875  0.40840613
   0.18935077  0.42699125  0.59159387
   0.18935077  0.92699125  0.90840613
   0.81064923  0.07300875  0.09159387
   0.00000000  0.58879443  0.22327928
   0.00000000  0.41120557  0.77672069
   0.00000000  0.91120557  0.72327931
   0.00000000  0.08879443  0.27672072
   0.50000000  0.08879443  0.22327928
   0.50000000  0.91120557  0.77672069
   0.50000000  0.41120557  0.72327931
   0.50000000  0.58879443  0.27672072
   0.00000000  0.34945866  0.58176329
   0.00000000  0.65054134 -0.58176329
   0.00000000  0.15054134  0.08176329
   0.00000000 -0.15054134 -0.08176329
   0.50000000 -0.15054134  0.58176329
   0.50000000  0.15054134 -0.58176329
   0.50000000  0.65054134  0.08176329
   0.50000000  0.34945866 -0.08176329
   0.00000000  0.33411977 -0.57115936
   0.00000000  0.66588023  0.57115934
   0.00000000  0.16588023 -0.07115934
   0.00000000 -0.16588023  0.07115934
   0.50000000 -0.16588023 -0.57115936
   0.50000000  0.16588023  0.57115934
   0.50000000  0.66588023 -0.07115934
   0.50000000  0.33411977  0.07115934
   0.75076675  0.50000000 -0.00000000
   0.24923325  0.50000000 -0.00000000
   0.24923325  0.00000000  0.50000000
   0.75076675  0.00000000  0.50000000
   0.25076675  0.00000000 -0.00000000
   0.74923325  0.00000000 -0.00000000
   0.74923325  0.50000000  0.50000000
   0.25076675  0.50000000  0.50000000
Direct configuration=    10
   0.08155011  0.79263959  0.14369130
   0.91844992  0.20736041  0.85630873
   0.91844992  0.70736041  0.64369127
   0.08155011  0.29263959  0.35630870
   0.91844992  0.29263959  0.35630870
   0.08155011  0.70736041  0.64369127
   0.08155011  0.20736041  0.85630873
   0.91844992  0.79263959  0.14369130
   0.58155008  0.29263959  0.14369130
   0.41844989  0.70736041  0.85630873
   0.41844989  0.20736041  0.64369127
   0.58155008  0.79263959  0.35630870
   0.41844989  0.79263959  0.35630870
   0.58155008  0.20736041  0.64369127
   0.58155008  0.70736041  0.85630873
   0.41844989  0.29263959  0.14369130
   0.81280123  0.58764991  0.92468240
   0.18719877  0.41235009  0.07531760
   0.18719877  0.91235009  0.42468240
   0.81280123  0.08764991  0.57531760
   0.18719877  0.08764991  0.57531760
   0.81280123  0.91235009  0.42468240
   0.81280123  0.41235009  0.07531760
   0.18719877  0.58764991  0.92468240
   0.31280123  0.08764991  0.92468240
   0.68719877  0.91235009  0.07531760
   0.68719877  0.41235009  0.42468240
   0.31280123  0.58764991  0.57531760
   0.68719877  0.58764991  0.57531760
   0.31280123  0.41235009  0.42468240
   0.31280123  0.91235009  0.07531760
   0.68719877  0.08764991  0.92468240
   0.68865227  0.57207554  0.09212434
   0.31134773  0.42792446  0.90787566
   0.31134773  0.92792446  0.59212434
   0.68865227  0.07207554  0.40787566
   0.31134773  0.07207554  0.40787566
   0.68865227  0.92792446  0.59212434
   0.68865227  0.42792446  0.90787566
   0.31134773  0.57207554  0.09212434
   0.18865227  0.07207554  0.09212434
   0.81134773  0.92792446  0.90787566
   0.81134773  0.42792446  0.59212434
   0.18865227  0.57207554  0.40787566
   0.81134773  0.57207554  0.40787566
   0.18865227  0.42792446  0.59212434
   0.18865227  0.92792446  0.90787566
   0.81134773  0.07207554  0.09212434
   0.00000000  0.58420151  0.23213540
   0.00000000  0.41579849  0.76786457
   0.00000000  0.91579849  0.73213543
   0.00000000  0.08420151  0.26786460
   0.50000000  0.08420151  0.23213540
   0.50000000  0.91579849  0.76786457
   0.50000000  0.41579849  0.73213543
   0.50000000  0.58420151  0.26786460
   0.00000000  0.35107362  0.57321154