diamond                                 
           1
    11.785438    0.000000    0.000000
     0.000000    8.243535    0.000000
     0.000000    0.000000    8.238402
   H    C 
  64  16
Direct configuration=     1
   0.07747951  0.78779360  0.17237807
   0.92252052  0.21220640  0.82762196
   0.92252052  0.71220640  0.67237804
   0.07747951  0.28779360  0.32762193
   0.92252052  0.28779360  0.32762193
   0.07747951  0.71220640  0.67237804
   0.07747951  0.21220640  0.82762196
   0.92252052  0.78779360  0.17237807
   0.57747948  0.28779360  0.17237807
   0.42252049  0.71220640  0.82762196
   0.42252049  0.21220640  0.67237804
   0.57747948  0.78779360  0.32762193
   0.42252049  0.78779360  0.32762193
   0.57747948  0.21220640  0.67237804
   0.57747948  0.71220640  0.82762196
   0.42252049  0.28779360  0.17237807
   0.80549058  0.58646985  0.92786166
   0.19450942  0.41353015  0.07213834
   0.19450942  0.91353015  0.42786166
   0.80549058  0.08646985  0.57213834
   0.19450942  0.08646985  0.57213834
   0.80549058  0.91353015  0.42786166
   0.80549058  0.41353015  0.07213834
   0.19450942  0.58646985  0.92786166
   0.30549058  0.08646985  0.92786166
   0.69450942  0.91353015  0.07213834
   0.69450942  0.41353015  0.42786166
   0.30549058  0.58646985  0.57213834
   0.69450942  0.58646985  0.57213834
   0.30549058  0.41353015  0.42786166
   0.30549058  0.91353015  0.07213834
   0.69450942  0.08646985  0.92786166
   0.69412020  0.57210356  0.08650210
   0.30587980  0.42789644  0.91349790
   0.30587980  0.92789644  0.58650210
   0.69412020  0.07210356  0.41349790
   0.30587980  0.07210356  0.41349790
   0.69412020  0.92789644  0.58650210
   0.69412020  0.42789644  0.91349790
   0.30587980  0.57210356  0.08650210
   0.19412020  0.07210356  0.08650210
   0.80587980  0.92789644  0.91349790
   0.80587980  0.42789644  0.58650210
   0.19412020  0.57210356  0.41349790
   0.80587980  0.57210356  0.41349790
   0.19412020  0.42789644  0.58650210
   0.19412020  0.92789644  0.91349790
   0.80587980  0.07210356  0.08650210
   0.00000000  0.59948373  0.20245185
   0.00000000  0.40051627  0.79754812
   0.00000000  0.90051627  0.70245188
   0.00000000  0.09948373  0.29754815
   0.50000000  0.09948373  0.20245185
   0.50000000  0.90051627  0.79754812
   0.50000000  0.40051627  0.70245188
   0.50000000  0.59948373  0.29754815
   0.00000000  0.33890516  0.60898842
   0.00000000  0.66109484  0.39101158
   0.00000000  0.16109484  0.10898842
   0.00000000  0.83890516  0.89101158
   0.50000000  0.83890516  0.60898842
   0.50000000  0.16109484  0.39101158
   0.50000000  0.66109484  0.10898842
   0.50000000  0.33890516  0.89101158
   0.00000000  0.32873242  0.42338881
   0.00000000  0.67126758  0.57661118
   0.00000000  0.17126758  0.92338882
   0.00000000  0.82873242  0.07661118
   0.50000000  0.82873242  0.42338881
   0.50000000  0.17126758  0.57661118
   0.50000000  0.67126758  0.92338882
   0.50000000  0.32873242  0.07661118
   0.74979320  0.50000000  0.00000000
   0.25020680  0.50000000  0.00000000
   0.25020680  0.00000000  0.50000000
   0.74979320  0.00000000  0.50000000
   0.24979320  0.00000000  0.00000000
   0.75020680  0.00000000  0.00000000
   0.75020680  0.50000000  0.50000000
   0.24979320  0.50000000  0.50000000
Direct configuration=     2
   0.07207334  0.79553806  0.15759168
   0.92792669  0.20446194  0.84240835
   0.92792669  0.70446194  0.65759165
   0.07207334  0.29553806  0.34240832
   0.92792669  0.29553806  0.34240832
   0.07207334  0.70446194  0.65759165
   0.07207334  0.20446194  0.84240835
   0.92792669  0.79553806  0.15759168
   0.57207331  0.29553806  0.15759168
   0.42792666  0.70446194  0.84240835
   0.42792666  0.20446194  0.65759165
   0.57207331  0.79553806  0.34240832
   0.42792666  0.79553806  0.34240832
   0.57207331  0.20446194  0.65759165
   0.57207331  0.70446194  0.84240835
   0.42792666  0.29553806  0.15759168
   0.80284693  0.58196903  0.93164359
   0.19715307  0.41803097  0.06835641
   0.19715307  0.91803097  0.43164359
   0.80284693  0.08196903  0.56835641
   0.19715307  0.08196903  0.56835641
   0.80284693  0.91803097  0.43164359
   0.80284693  0.41803097  0.06835641
   0.19715307  0.58196903  0.93164359
   0.30284693  0.08196903  0.93164359
   0.69715307  0.91803097  0.06835641
   0.69715307  0.41803097  0.43164359
   0.30284693  0.58196903  0.56835641
   0.69715307  0.58196903  0.56835641
   0.30284693  0.41803097  0.43164359
   0.30284693  0.91803097  0.06835641
   0.69715307  0.08196903  0.93164359
   0.69708674  0.56820900  0.08202110
   0.30291326  0.43179100  0.91797890
   0.30291326  0.93179100  0.58202110
   0.69708674  0.06820900  0.41797890
   0.30291326  0.06820900  0.41797890
   0.69708674  0.93179100  0.58202110
   0.69708674  0.43179100  0.91797890
   0.30291326  0.56820900  0.08202110
   0.19708674  0.06820900  0.08202110
   0.80291326  0.93179100  0.91797890
   0.80291326  0.43179100  0.58202110
   0.19708674  0.56820900  0.41797890
   0.80291326  0.56820900  0.41797890
   0.19708674  0.43179100  0.58202110
   0.19708674  0.93179100  0.91797890
   0.80291326  0.06820900  0.08202110
  -0.00000000  0.60583808  0.20095636
  -0.00000000  0.39416192  0.79904361
  -0.00000000  0.89416192  0.70095639
  -0.00000000  0.10583808  0.29904364
   0.50000000  0.10583808  0.20095636
   0.50000000  0.89416192  0.79904361
   0.50000000  0.39416192  0.70095639
   0.50000000  0.60583808  0.29904364
  -0.00000000  0.33744254  0.58986770
  -0.00000000  0.66255746  0.41013230
  -0.00000000  0.16255746  0.08986770
  -0.00000000  0.83744254  0.91013230
   0.50000000  0.83744254  0.58986770
   0.50000000  0.16255746  0.41013230
   0.50000000  0.66255746  0.08986770
   0.50000000  0.33744254  0.91013230
  -0.00000000  0.31095574  0.40984259
  -0.00000000  0.68904426  0.59015740
  -0.00000000  0.18904426  0.90984260
  -0.00000000  0.81095574  0.09015740
   0.50000000  0.81095574  0.40984259
   0.50000000  0.18904426  0.59015740
   0.50000000  0.68904426  0.90984260
   0.50000000  0.31095574  0.09015740
   0.75013482  0.50000000 -0.00000000
   0.24986518  0.50000000  0.00000000
   0.24986518 -0.00000000  0.50000000
   0.75013482 -0.00000000  0.50000000
   0.25013482 -0.00000000 -0.00000000
   0.74986518 -0.00000000  0.00000000
   0.74986518  0.50000000  0.50000000
   0.25013482  0.50000000  0.50000000
Direct configuration=     3
   0.07231916  0.79518591  0.15826402
   0.92768086  0.20481409  0.84173601
   0.92768086  0.70481409  0.65826399
   0.07231916  0.29518591  0.34173598
   0.92768086  0.29518591  0.34173598
   0.07231916  0.70481409  0.65826399
   0.07231916  0.20481409  0.84173601
   0.92768086  0.79518591  0.15826402
   0.57231914  0.29518591  0.15826402
   0.42768083  0.70481409  0.84173601
   0.42768083  0.20481409  0.65826399
   0.57231914  0.79518591  0.34173598
   0.42768083  0.79518591  0.34173598
   0.57231914  0.20481409  0.65826399
   0.57231914  0.70481409  0.84173601
   0.42768083  0.29518591  0.15826402
   0.80296714  0.58217369  0.93147162
   0.19703286  0.41782631  0.06852838
   0.19703286  0.91782631  0.43147162
   0.80296714  0.08217369  0.56852838
   0.19703286  0.08217369  0.56852838
   0.80296714  0.91782631  0.43147162
   0.80296714  0.41782631  0.06852838
   0.19703286  0.58217369  0.93147162
   0.30296714  0.08217369  0.93147162
   0.69703286  0.91782631  0.06852838
   0.69703286  0.41782631  0.43147162
   0.30296714  0.58217369  0.56852838
   0.69703286  0.58217369  0.56852838
   0.30296714  0.41782631  0.43147162
   0.30296714  0.91782631  0.06852838
   0.69703286  0.08217369  0.93147162
   0.69695185  0.56838609  0.08222485
   0.30304815  0.43161391  0.91777515
   0.30304815  0.93161391  0.58222485
   0.69695185  0.06838609  0.41777515
   0.30304815  0.06838609  0.41777515
   0.69695185  0.93161391  0.58222485
   0.69695185  0.43161391  0.91777515
   0.30304815  0.56838609  0.08222485
   0.19695185  0.06838609  0.08222485
   0.80304815  0.93161391  0.91777515
   0.80304815  0.43161391  0.58222485
   0.19695185  0.56838609  0.41777515
   0.80304815  0.56838609  0.41777515
   0.19695185  0.43161391  0.58222485
   0.19695185  0.93161391  0.91777515
   0.80304815  0.06838609  0.08222485
  -0.00000000  0.60554915  0.20102436
  -0.00000000  0.39445085  0.79897561
  -0.00000000  0.89445085  0.70102439
  -0.00000000  0.10554915  0.29897564
   0.50000000  0.10554915  0.20102436
   0.50000000  0.89445085  0.79897561
   0.50000000  0.39445085  0.70102439
   0.50000000  0.60554915  0.29897564
  -0.00000000  0.33750905  0.59073713
  -0.00000000  0.66249095  0.40926287
  -0.00000000  0.16249095  0.09073713
  -0.00000000  0.83750905  0.90926287
   0.50000000  0.83750905  0.59073713
   0.50000000  0.16249095  0.40926287
   0.50000000  0.66249095  0.09073713
   0.50000000  0.33750905  0.90926287
  -0.00000000  0.31176405  0.41045854
  -0.00000000  0.68823595  0.58954144
  -0.00000000  0.18823595  0.91045856
  -0.00000000  0.81176405  0.08954144
   0.50000000  0.81176405  0.41045854
   0.50000000  0.18823595  0.58954144
   0.50000000  0.68823595  0.91045856
   0.50000000  0.31176405  0.08954144
   0.75011929  0.50000000 -0.00000000
   0.24988071  0.50000000  0.00000000
   0.24988071 -0.00000000  0.50000000
   0.75011929 -0.00000000  0.50000000
   0.25011929 -0.00000000 -0.00000000
   0.74988071 -0.00000000  0.00000000
   0.74988071  0.50000000  0.50000000
   0.25011929  0.50000000  0.50000000
Direct configuration=     4
   0.07433567  0.80097077  0.15323811
   0.92566435  0.19902923  0.84676192
   0.92566435  0.69902923  0.65323808
   0.07433567  0.30097077  0.34676189
   0.92566435  0.30097077  0.34676189
   0.07433567  0.69902923  0.65323808
   0.07433567  0.19902923  0.84676192
   0.92566435  0.80097077  0.15323811
   0.57433565  0.30097077  0.15323811
   0.42566432  0.69902923  0.84676192
   0.42566432  0.19902923  0.65323808
   0.57433565  0.80097077  0.34676189
   0.42566432  0.80097077  0.34676189
   0.57433565  0.19902923  0.65323808
   0.57433565  0.69902923  0.84676192
   0.42566432  0.30097077  0.15323811
   0.80235991  0.58082470  0.93262433
   0.19764009  0.41917530  0.06737567
   0.19764009  0.91917530  0.43262433
   0.80235991  0.08082470  0.56737567
   0.19764009  0.08082470  0.56737567
   0.80235991  0.91917530  0.43262433
   0.80235991  0.41917530  0.06737567
   0.19764009  0.58082470  0.93262433
   0.30235991  0.08082470  0.93262433
   0.69764009  0.91917530  0.06737567
   0.69764009  0.41917530  0.43262433
   0.30235991  0.58082470  0.56737567
   0.69764009  0.58082470  0.56737567
   0.30235991  0.41917530  0.43262433
   0.30235991  0.91917530  0.06737567
   0.69764009  0.08082470  0.93262433
   0.69790553  0.56712250  0.08086407
   0.30209447  0.43287750  0.91913593
   0.30209447  0.93287750  0.58086407
   0.69790553  0.06712250  0.41913593
   0.30209447  0.06712250  0.41913593
   0.69790553  0.93287750  0.58086407
   0.69790553  0.43287750  0.91913593
   0.30209447  0.56712250  0.08086407
   0.19790553  0.06712250  0.08086407
   0.80209447  0.93287750  0.91913593
   0.80209447  0.43287750  0.58086407
   0.19790553  0.56712250  0.41913593
   0.80209447  0.56712250  0.41913593
   0.19790553  0.43287750  0.58086407
   0.19790553  0.93287750  0.91913593
   0.80209447  0.06712250  0.08086407
  -0.00000000  0.61199224  0.19702091
  -0.00000000  0.38800776  0.80297906
  -0.00000000  0.88800776  0.69702094
  -0.00000000  0.11199224  0.30297909
   0.50000000  0.11199224  0.19702091
   0.50000000  0.88800776  0.80297906
   0.50000000  0.38800776  0.69702094
   0.50000000  0.61199224  0.30297909
  -0.00000000  0.33453305  0.57112424
  -0.00000000  0.66546695  0.42887576
  -0.00000000  0.16546695  0.07112424
  -0.00000000  0.83453305  0.92887576
   0.50000000  0.83453305  0.57112424
   0.50000000  0.16546695  0.42887576
   0.50000000  0.66546695  0.07112424
   0.50000000  0.33453305  0.92887576
  -0.00000000  0.29847352  0.41475904
  -0.00000000  0.70152648  0.58524094
  -0.00000000  0.20152648  0.91475906
  -0.00000000  0.79847352  0.08524094
   0.50000000  0.79847352  0.41475904
   0.50000000  0.20152648  0.58524094
   0.50000000  0.70152648  0.91475906
   0.50000000  0.29847352  0.08524094
   0.75020260  0.50000000  0.00000000
   0.24979740  0.50000000  0.00000000
   0.24979740 -0.00000000  0.50000000
   0.75020260 -0.00000000  0.50000000
   0.25020260 -0.00000000  0.00000000
   0.74979740 -0.00000000  0.00000000
   0.74979740  0.50000000  0.50000000
   0.25020260  0.50000000  0.50000000
Direct configuration=     5
   0.07908736  0.81460213  0.14139509
   0.92091266  0.18539787  0.85860494
   0.92091266  0.68539787  0.64139506
   0.07908736  0.31460213  0.35860491
   0.92091266  0.31460213  0.35860491
   0.07908736  0.68539787  0.64139506
   0.07908736  0.18539787  0.85860494
   0.92091266  0.81460213  0.14139509
   0.57908734  0.31460213  0.14139509
   0.42091263  0.68539787  0.85860494
   0.42091263  0.18539787  0.64139506
   0.57908734  0.81460213  0.35860491
   0.42091263  0.81460213  0.35860491
   0.57908734  0.18539787  0.64139506
   0.57908734  0.68539787  0.85860494
   0.42091263  0.31460213  0.14139509
   0.80092905  0.57764595  0.93534055
   0.19907095  0.42235405  0.06465945
   0.19907095  0.92235405  0.43534055
   0.80092905  0.07764595  0.56465945
   0.19907095  0.07764595  0.56465945
   0.80092905  0.92235405  0.43534055
   0.80092905  0.42235405  0.06465945
   0.19907095  0.57764595  0.93534055
   0.30092905  0.07764595  0.93534055
   0.69907095  0.92235405  0.06465945
   0.69907095  0.42235405  0.43534055
   0.30092905  0.57764595  0.56465945
   0.69907095  0.57764595  0.56465945
   0.30092905  0.42235405  0.43534055
   0.30092905  0.92235405  0.06465945
   0.69907095  0.07764595  0.93534055
   0.70015277  0.56414499  0.07765752
   0.29984723  0.43585501  0.92234248
   0.29984723  0.93585501  0.57765752
   0.70015277  0.06414499  0.42234248
   0.29984723  0.06414499  0.42234248
   0.70015277  0.93585501  0.57765752
   0.70015277  0.43585501  0.92234248
   0.29984723  0.56414499  0.07765752
   0.20015277  0.06414499  0.07765752
   0.79984723  0.93585501  0.92234248
   0.79984723  0.43585501  0.57765752
   0.20015277  0.56414499  0.42234248
   0.79984723  0.56414499  0.42234248
   0.20015277  0.43585501  0.57765752
   0.20015277  0.93585501  0.92234248
   0.79984723  0.06414499  0.07765752
  -0.00000000  0.62717468  0.18758722
  -0.00000000  0.37282532  0.81241275
  -0.00000000  0.87282532  0.68758725
  -0.00000000  0.12717468  0.31241278
   0.50000000  0.12717468  0.18758722
   0.50000000  0.87282532  0.81241275
   0.50000000  0.37282532  0.68758725
   0.50000000  0.62717468  0.31241278
  -0.00000000  0.32752044  0.52490863
  -0.00000000  0.67247956  0.47509137
  -0.00000000  0.17247956  0.02490863
  -0.00000000  0.82752044  0.97509137
   0.50000000  0.82752044  0.52490863
   0.50000000  0.17247956  0.47509137
   0.50000000  0.67247956  0.02490863
   0.50000000  0.32752044  0.97509137
  -0.00000000  0.26715586  0.42489269
  -0.00000000  0.73284414  0.57510729
  -0.00000000  0.23284414  0.92489271
  -0.00000000  0.76715586  0.07510729
   0.50000000  0.76715586  0.42489269
   0.50000000  0.23284414  0.57510729
   0.50000000  0.73284414  0.92489271
   0.50000000  0.26715586  0.07510729
   0.75039892  0.50000000  0.00000000
   0.24960108  0.50000000  0.00000000
   0.24960108 -0.00000000  0.50000000
   0.75039892 -0.00000000  0.50000000
   0.25039892 -0.00000000  0.00000000
   0.74960108 -0.00000000  0.00000000
   0.74960108  0.50000000  0.50000000
   0.25039892  0.50000000  0.50000000
Direct configuration=     6
   0.07677089  0.80795679  0.14716861
   0.92322913  0.19204321  0.85283142
   0.92322913  0.69204321  0.64716858
   0.07677089  0.30795679  0.35283139
   0.92322913  0.30795679  0.35283139
   0.07677089  0.69204321  0.64716858
   0.07677089  0.19204321  0.85283142
   0.92322913  0.80795679  0.14716861
   0.57677087  0.30795679  0.14716861
   0.42322910  0.69204321  0.85283142
   0.42322910  0.19204321  0.64716858
   0.57677087  0.80795679  0.35283139
   0.42322910  0.80795679  0.35283139
   0.57677087  0.19204321  0.64716858
   0.57677087  0.69204321  0.85283142
   0.42322910  0.30795679  0.14716861
   0.80162660  0.57919560  0.93401638
   0.19837340  0.42080440  0.06598362
   0.19837340  0.92080440  0.43401638
   0.80162660  0.07919560  0.56598362
   0.19837340  0.07919560  0.56598362
   0.80162660  0.92080440  0.43401638
   0.80162660  0.42080440  0.06598362
   0.19837340  0.57919560  0.93401638
   0.30162660  0.07919560  0.93401638
   0.69837340  0.92080440  0.06598362
   0.69837340  0.42080440  0.43401638
   0.30162660  0.57919560  0.56598362
   0.69837340  0.57919560  0.56598362
   0.30162660  0.42080440  0.43401638
   0.30162660  0.92080440  0.06598362
   0.69837340  0.07919560  0.93401638
   0.69905723  0.56559654  0.07922073
   0.30094277  0.43440346  0.92077927
   0.30094277  0.93440346  0.57922073
   0.69905723  0.06559654  0.42077927
   0.30094277  0.06559654  0.42077927
   0.69905723  0.93440346  0.57922073
   0.69905723  0.43440346  0.92077927
   0.30094277  0.56559654  0.07922073
   0.19905723  0.06559654  0.07922073
   0.80094277  0.93440346  0.92077927
   0.80094277  0.43440346  0.57922073
   0.19905723  0.56559654  0.42077927
   0.80094277  0.56559654  0.42077927
   0.19905723  0.43440346  0.57922073
   0.19905723  0.93440346  0.92077927
   0.80094277  0.06559654  0.07922073
  -0.00000000  0.61977318  0.19218618
  -0.00000000  0.38022682  0.80781379
  -0.00000000  0.88022682  0.69218621
  -0.00000000  0.11977318  0.30781382
   0.50000000  0.11977318  0.19218618
   0.50000000  0.88022682  0.80781379
   0.50000000  0.38022682  0.69218621
   0.50000000  0.61977318  0.30781382
  -0.00000000  0.33093912  0.54743893
  -0.00000000  0.66906088  0.45256107
  -0.00000000  0.16906088  0.04743893
  -0.00000000  0.83093912  0.95256107
   0.50000000  0.83093912  0.54743893
   0.50000000  0.16906088  0.45256107
   0.50000000  0.66906088  0.04743893
   0.50000000  0.33093912  0.95256107
  -0.00000000  0.28242335  0.41995250
  -0.00000000  0.71757665  0.58004749
  -0.00000000  0.21757665  0.91995251
  -0.00000000  0.78242335  0.08004749
   0.50000000  0.78242335  0.41995250
   0.50000000  0.21757665  0.58004749
   0.50000000  0.71757665  0.91995251
   0.50000000  0.28242335  0.08004749
   0.75030321  0.50000000  0.00000000
   0.24969679  0.50000000  0.00000000
   0.24969679 -0.00000000  0.50000000
   0.75030321 -0.00000000  0.50000000
   0.25030321 -0.00000000  0.00000000
   0.74969679 -0.00000000  0.00000000
   0.74969679  0.50000000  0.50000000
   0.25030321  0.50000000  0.50000000
Direct configuration=     7
   0.07739367  0.80974338  0.14561641
   0.92260635  0.19025662  0.85438362
   0.92260635  0.69025662  0.64561638
   0.07739367  0.30974338  0.35438359
   0.92260635  0.30974338  0.35438359
   0.07739367  0.69025662  0.64561638
   0.07739367  0.19025662  0.85438362
   0.92260635  0.80974338  0.14561641
   0.57739365  0.30974338  0.14561641
   0.42260632  0.69025662  0.85438362
   0.42260632  0.19025662  0.64561638
   0.57739365  0.80974338  0.35438359
   0.42260632  0.80974338  0.35438359
   0.57739365  0.19025662  0.64561638
   0.57739365  0.69025662  0.85438362
   0.42260632  0.30974338  0.14561641
   0.80143907  0.57877898  0.93437238
   0.19856093  0.42122102  0.06562762
   0.19856093  0.92122102  0.43437238
   0.80143907  0.07877898  0.56562762
   0.19856093  0.07877898  0.56562762
   0.80143907  0.92122102  0.43437238
   0.80143907  0.42122102  0.06562762
   0.19856093  0.57877898  0.93437238
   0.30143907  0.07877898  0.93437238
   0.69856093  0.92122102  0.06562762
   0.69856093  0.42122102  0.43437238
   0.30143907  0.57877898  0.56562762
   0.69856093  0.57877898  0.56562762
   0.30143907  0.42122102  0.43437238
   0.30143907  0.92122102  0.06562762
   0.69856093  0.07877898  0.93437238
   0.69935176  0.56520629  0.07880046
   0.30064824  0.43479371  0.92119954
   0.30064824  0.93479371  0.57880046
   0.69935176  0.06520629  0.42119954
   0.30064824  0.06520629  0.42119954
   0.69935176  0.93479371  0.57880046
   0.69935176  0.43479371  0.92119954
   0.30064824  0.56520629  0.07880046
   0.19935176  0.06520629  0.07880046
   0.80064824  0.93479371  0.92119954
   0.80064824  0.43479371  0.57880046
   0.19935176  0.56520629  0.42119954
   0.80064824  0.56520629  0.42119954
   0.19935176  0.43479371  0.57880046
   0.19935176  0.93479371  0.92119954
   0.80064824  0.06520629  0.07880046
  -0.00000000  0.62176306  0.19094976
  -0.00000000  0.37823694  0.80905021
  -0.00000000  0.87823694  0.69094979
  -0.00000000  0.12176306  0.30905024
   0.50000000  0.12176306  0.19094976
   0.50000000  0.87823694  0.80905021
   0.50000000  0.37823694  0.69094979
   0.50000000  0.62176306  0.30905024
  -0.00000000  0.33002001  0.54138170
  -0.00000000  0.66997999  0.45861830
  -0.00000000  0.16997999  0.04138170
  -0.00000000  0.83002001  0.95861830
   0.50000000  0.83002001  0.54138170
   0.50000000  0.16997999  0.45861830
   0.50000000  0.66997999  0.04138170
   0.50000000  0.33002001  0.95861830
  -0.00000000  0.27831871  0.42128066
  -0.00000000  0.72168129  0.57871933
  -0.00000000  0.22168129  0.92128067
  -0.00000000  0.77831871  0.07871933
   0.50000000  0.77831871  0.42128066
   0.50000000  0.22168129  0.57871933
   0.50000000  0.72168129  0.92128067
   0.50000000  0.27831871  0.07871933
   0.75032894  0.50000000  0.00000000
   0.24967106  0.50000000  0.00000000
   0.24967106 -0.00000000  0.50000000
   0.75032894 -0.00000000  0.50000000
   0.25032894 -0.00000000  0.00000000
   0.74967106 -0.00000000  0.00000000
   0.74967106  0.50000000  0.50000000
   0.25032894  0.50000000  0.50000000
Direct configuration=     8
   0.07854673  0.81471535  0.14204714
   0.92145330  0.18528465  0.85795289
   0.92145330  0.68528465  0.64204711
   0.07854673  0.31471535  0.35795286
   0.92145330  0.31471535  0.35795286
   0.07854673  0.68528465  0.64204711
   0.07854673  0.18528465  0.85795289
   0.92145330  0.81471535  0.14204714
   0.57854670  0.31471535  0.14204714
   0.42145327  0.68528465  0.85795289
   0.42145327  0.18528465  0.64204711
   0.57854670  0.81471535  0.35795286
   0.42145327  0.81471535  0.35795286
   0.57854670  0.18528465  0.64204711
   0.57854670  0.68528465  0.85795289
   0.42145327  0.31471535  0.14204714
   0.80217555  0.57960877  0.93373457
   0.19782445  0.42039123  0.06626543
   0.19782445  0.92039123  0.43373457
   0.80217555  0.07960877  0.56626543
   0.19782445  0.07960877  0.56626543
   0.80217555  0.92039123  0.43373457
   0.80217555  0.42039123  0.06626543
   0.19782445  0.57960877  0.93373457
   0.30217555  0.07960877  0.93373457
   0.69782445  0.92039123  0.06626543
   0.69782445  0.42039123  0.43373457
   0.30217555  0.57960877  0.56626543
   0.69782445  0.57960877  0.56626543
   0.30217555  0.42039123  0.43373457
   0.30217555  0.92039123  0.06626543
   0.69782445  0.07960877  0.93373457
   0.69884341  0.56590000  0.07974057
   0.30115659  0.43410000  0.92025943
   0.30115659  0.93410000  0.57974057
   0.69884341  0.06590000  0.42025943
   0.30115659  0.06590000  0.42025943
   0.69884341  0.93410000  0.57974057
   0.69884341  0.43410000  0.92025943
   0.30115659  0.56590000  0.07974057
   0.19884341  0.06590000  0.07974057
   0.80115659  0.93410000  0.92025943
   0.80115659  0.43410000  0.57974057
   0.19884341  0.56590000  0.42025943
   0.80115659  0.56590000  0.42025943
   0.19884341  0.43410000  0.57974057
   0.19884341  0.93410000  0.92025943
   0.80115659  0.06590000  0.07974057
  -0.00000000  0.62865503  0.18373683
  -0.00000000  0.37134497  0.81626314
  -0.00000000  0.87134497  0.68373686
  -0.00000000  0.12865503  0.31626317
   0.50000000  0.12865503  0.18373683
   0.50000000  0.87134497  0.81626314
   0.50000000  0.37134497  0.68373686
   0.50000000  0.62865503  0.31626317
  -0.00000000  0.32631268  0.52936082
  -0.00000000  0.67368732  0.47063918
  -0.00000000  0.17368732  0.02936082
  -0.00000000  0.82631268  0.97063918
   0.50000000  0.82631268  0.52936082
   0.50000000  0.17368732  0.47063918
   0.50000000  0.67368732  0.02936082
   0.50000000  0.32631268  0.97063918
  -0.00000000  0.26631791  0.41793444
  -0.00000000  0.73368209  0.58206555
  -0.00000000  0.23368209  0.91793445
  -0.00000000  0.76631791  0.08206555
   0.50000000  0.76631791  0.41793444
   0.50000000  0.23368209  0.58206555
   0.50000000  0.73368209  0.91793445
   0.50000000  0.26631791  0.08206555
   0.75051488  0.50000000  0.00000000
   0.24948512  0.50000000  0.00000000
   0.24948512 -0.00000000  0.50000000
   0.75051488 -0.00000000  0.50000000
   0.25051488 -0.00000000  0.00000000
   0.74948512 -0.00000000  0.00000000
   0.74948512  0.50000000  0.50000000
   0.25051488  0.50000000  0.50000000
Direct configuration=     9
   0.07986652  0.82040631  0.13796174
   0.92013351  0.17959369  0.86203829
   0.92013351  0.67959369  0.63796171
   0.07986652  0.32040631  0.36203826
   0.92013351  0.32040631  0.36203826
   0.07986652  0.67959369  0.63796171
   0.07986652  0.17959369  0.86203829
   0.92013351  0.82040631  0.13796174
   0.57986649  0.32040631  0.13796174
   0.42013348  0.67959369  0.86203829
   0.42013348  0.17959369  0.63796171
   0.57986649  0.82040631  0.36203826
   0.42013348  0.82040631  0.36203826
   0.57986649  0.17959369  0.63796171
   0.57986649  0.67959369  0.86203829
   0.42013348  0.32040631  0.13796174
   0.80301854  0.58055854  0.93300453
   0.19698146  0.41944146  0.06699547
   0.19698146  0.91944146  0.43300453
   0.80301854  0.08055854  0.56699547
   0.19698146  0.08055854  0.56699547
   0.80301854  0.91944146  0.43300453
   0.80301854  0.41944146  0.06699547
   0.19698146  0.58055854  0.93300453
   0.30301854  0.08055854  0.93300453
   0.69698146  0.91944146  0.06699547
   0.69698146  0.41944146  0.43300453
   0.30301854  0.58055854  0.56699547
   0.69698146  0.58055854  0.56699547
   0.30301854  0.41944146  0.43300453
   0.30301854  0.91944146  0.06699547
   0.69698146  0.08055854  0.93300453
   0.69826155  0.56669402  0.08081662
   0.30173845  0.43330598  0.91918338
   0.30173845  0.93330598  0.58081662
   0.69826155  0.06669402  0.41918338
   0.30173845  0.06669402  0.41918338
   0.69826155  0.93330598  0.58081662
   0.69826155  0.43330598  0.91918338
   0.30173845  0.56669402  0.08081662
   0.19826155  0.06669402  0.08081662
   0.80173845  0.93330598  0.91918338
   0.80173845  0.43330598  0.58081662
   0.19826155  0.56669402  0.41918338
   0.80173845  0.56669402  0.41918338
   0.19826155  0.43330598  0.58081662
   0.19826155  0.93330598  0.91918338
   0.80173845  0.06669402  0.08081662
  -0.00000000  0.63654361  0.17548088
  -0.00000000  0.36345639  0.82451909
  -0.00000000  0.86345639  0.67548091
  -0.00000000  0.13654361  0.32451912
   0.50000000  0.13654361  0.17548088
   0.50000000  0.86345639  0.82451909
   0.50000000  0.36345639  0.67548091
   0.50000000  0.63654361  0.32451912
  -0.00000000  0.32206924  0.51560166
  -0.00000000  0.67793076  0.48439834
  -0.00000000  0.17793076  0.01560166
  -0.00000000  0.82206924  0.98439834
   0.50000000  0.82206924  0.51560166
   0.50000000  0.17793076  0.48439834
   0.50000000  0.67793076  0.01560166
   0.50000000  0.32206924  0.98439834
  -0.00000000  0.25258172  0.41410433
  -0.00000000  0.74741828  0.58589565
  -0.00000000  0.24741828  0.91410435
  -0.00000000  0.75258172  0.08589565
   0.50000000  0.75258172  0.41410433
   0.50000000  0.24741828  0.58589565
   0.50000000  0.74741828  0.91410435
   0.50000000  0.25258172  0.08589565
   0.75072771  0.50000000  0.00000000
   0.24927229  0.50000000  0.00000000
   0.24927229 -0.00000000  0.50000000
   0.75072771 -0.00000000  0.50000000
   0.25072771 -0.00000000  0.00000000
   0.74927229 -0.00000000  0.00000000
   0.74927229  0.50000000  0.50000000
   0.25072771  0.50000000  0.50000000
Direct configuration=    10
   0.07891855  0.82241350  0.13606300
   0.92108148  0.17758650  0.86393703
   0.92108148  0.67758650  0.63606297
   0.07891855  0.32241350  0.36393700
   0.92108148  0.32241350  0.36393700
   0.07891855  0.67758650  0.63606297
   0.07891855  0.17758650  0.86393703
   0.92108148  0.82241350  0.13606300
   0.57891852  0.32241350  0.13606300
   0.42108145  0.67758650  0.86393703
   0.42108145  0.17758650  0.63606297
   0.57891852  0.82241350  0.36393700
   0.42108145  0.82241350  0.36393700
   0.57891852  0.17758650  0.63606297
   0.57891852  0.67758650  0.86393703
   0.42108145  0.32241350  0.13606300
   0.80423274  0.58230409  0.93163578
   0.19576726  0.41769591  0.06836422
   0.19576726  0.91769591  0.43163578
   0.80423274  0.08230409  0.56836422
   0.19576726  0.08230409  0.56836422
   0.80423274  0.91769591  0.43163578
   0.80423274  0.41769591  0.06836422
   0.19576726  0.58230409  0.93163578
   0.30423274  0.08230409  0.93163578
   0.69576726  0.91769591  0.06836422
   0.69576726  0.41769591  0.43163578
   0.30423274  0.58230409  0.56836422
   0.69576726  0.58230409  0.56836422
   0.30423274  0.41769591  0.43163578
   0.30423274  0.91769591  0.06836422
   0.69576726  0.08230409  0.93163578
   0.69726772  0.56815513  0.08260580
   0.30273228  0.43184487  0.91739420
   0.30273228  0.93184487  0.58260580
   0.69726772  0.06815513  0.41739420
   0.30273228  0.06815513  0.41739420
   0.69726772  0.93184487  0.58260580
   0.69726772  0.43184487  0.91739420
   0.30273228  0.56815513  0.08260580
   0.19726772  0.06815513  0.08260580
   0.80273228  0.93184487  0.91739420
   0.80273228  0.43184487  0.58260580
   0.19726772  0.56815513  0.41739420
   0.80273228  0.56815513  0.41739420
   0.19726772  0.43184487  0.58260580
   0.19726772  0.93184487  0.91739420
   0.80273228  0.06815513  0.08260580
  -0.00000000  0.64249601  0.16593885
  -0.00000000  0.35750399  0.83406112
  -0.00000000  0.85750399  0.66593888
  -0.00000000  0.14249601  0.33406115
   0.50000000  0.14249601  0.16593885
   0.50000000  0.85750399  0.83406112
   0.50000000  0.35750399  0.66593888
   0.50000000  0.64249601  0.33406115
  -0.00000000  0.31902791  0.51528888