   32   32    1    1
  0.8555981E+01  0.4932875E-09  0.4932875E-09  0.1299823E-08  0.5000000E-15
  1.000000000000000E-004
  CAR 
 graphite                                
    128     76     84
 
  0.0000000E+00  0.0000000E+00  0.0000000E+00  0.6944444E-02
    1      -14.706639
    2      -14.523613
    3      -14.522943
    4      -14.324122
    5       -9.364439
    6       -9.354409
    7       -9.351315
    8       -9.285225
    9       -9.283549
   10       -9.273295
   11       -9.271849
   12       -9.271829
   13       -9.267696
   14       -9.221857
   15       -9.208490
   16       -9.206065
   17       -8.272303
   18       -8.270768
   19       -8.269901
   20       -8.235600
   21       -8.234670
   22       -8.232485
   23       -8.232077
   24       -8.232062
   25       -8.229378
   26       -8.164353
   27       -8.163388
   28       -8.160811
   29       -3.682393
   30       -2.651782
   31       -2.649727
   32       -1.447627
   33       -1.445231
   34       -1.429585
   35       -1.410740
   36       -1.409763
   37       -1.409753
   38       -1.405613
   39       -1.393005
   40       -1.391060
   41       -1.379040
   42       -1.372408
   43       -1.369590
   44       -1.354305
   45        1.955927
   46        1.964378
   47        1.967395
   48        1.972870
   49        1.978508
   50        1.983539
   51        1.986869
   52        1.995012
   53        2.107700
   54        2.110245
   55        2.112094
   56        2.599027
   57        2.601720
   58        2.608909
   59        2.609289
   60        2.609406
   61        2.613447
   62        2.903171
   63        2.923102
   64        2.924697
   65        6.493562
   66        6.495666
   67        6.503552
   68        6.606673
   69        6.610013
   70        6.612230
   71        6.614433
   72        6.614900
   73        6.618866
   74        7.237590
   75        7.244293
   76        7.247711
   77        9.554591
   78       12.110916
   79       12.114941
   80       12.146543
   81       12.351724
   82       12.354724
   83       12.356720
   84       12.377223
 
  0.1666667E+00  0.0000000E+00  0.0000000E+00  0.1388889E-01
    1      -14.540625
    2      -14.359281
    3      -14.358620
    4      -14.161795
    5      -10.676991
    6      -10.536358
    7      -10.535784
    8      -10.386617
    9       -9.801494
   10       -9.794263
   11       -9.677242
   12       -9.676549
   13       -9.669524
   14       -9.668504
   15       -9.547330
   16       -9.539184
   17       -7.671050
   18       -7.665280
   19       -7.572885
   20       -7.570686
   21       -7.565886
   22       -7.564955
   23       -7.463226
   24       -7.456900
   25       -6.828514
   26       -6.726273
   27       -6.724826
   28       -6.616963
   29       -3.480805
   30       -2.456323
   31       -2.454275
   32       -1.941245
   33       -1.924527
   34       -1.895764
   35       -1.895559
   36       -1.879734
   37       -1.877847
   38       -1.848886
   39       -1.832169
   40       -1.282882
   41       -1.247453
   42       -1.244399
   43       -1.208535
   44       -1.192365
   45        0.994058
   46        1.301634
   47        1.323104
   48        1.327513
   49        1.348642
   50        1.615257
   51        1.632652
   52        1.637684
   53        1.655898
   54        1.761810
   55        1.764164
   56        1.869004
   57        1.873143
   58        2.491417
   59        2.494053
   60        2.500148
   61        2.501075
   62        2.590434
   63        3.034480
   64        3.049367
   65        6.636766
   66        6.640588
   67        6.889360
   68        6.893078
   69        6.895013
   70        6.899294
   71        7.269376
   72        7.516555
   73        7.523165
   74        7.712817
   75        7.717042
   76        8.423966
   77        9.751316
   78       12.206057
   79       12.439712
   80       12.441290
   81       12.603172
   82       12.606791
   83       12.678165
   84       12.845336
 
  0.3333333E+00  0.0000000E+00  0.0000000E+00  0.1388889E-01
    1      -14.044395
    2      -13.868064
    3      -13.867430
    4      -13.676569
    5      -12.091309
    6      -11.934758
    7      -11.934197
    8      -11.766569
    9      -10.226643
   10      -10.222954
   11      -10.091451
   12      -10.090831
   13      -10.087661
   14      -10.086363
   15       -9.947469
   16       -9.943565
   17       -6.496304
   18       -6.487317
   19       -6.403787
   20       -6.401538
   21       -6.394140
   22       -6.392912
   23       -6.304394
   24       -6.295553
   25       -4.708283
   26       -4.623225
   27       -4.621516
   28       -4.533127
   29       -3.102056
   30       -3.088039
   31       -3.043580
   32       -3.043175
   33       -3.030165
   34       -3.028171
   35       -2.981822
   36       -2.967687
   37       -2.880265
   38       -1.875223
   39       -1.873181
   40       -0.808397
   41       -0.774465
   42       -0.771181
   43       -0.736947
   44       -0.639354
   45       -0.565879
   46       -0.357535
   47       -0.316132
   48       -0.312825
   49       -0.271140
   50        0.339312
   51        0.341317
   52        0.813751
   53        0.839316
   54        0.843825
   55        0.869799
   56        1.418519
   57        1.550966
   58        1.554185
   59        2.302636
   60        2.305383
   61        2.308481
   62        2.309523
   63        3.119871
   64        3.127356
   65        7.091910
   66        7.094557
   67        7.467022
   68        7.469442
   69        7.471690
   70        7.475456
   71        7.969331
   72        7.972512
   73        9.393405
   74        9.853363
   75        9.856979
   76       10.342875
   77       10.462116
   78       12.408726
   79       12.653226
   80       12.676499
   81       12.678424
   82       12.969403
   83       12.973675
   84       13.078166
 
  0.5000000E+00  0.0000000E+00  0.0000000E+00  0.6944444E-02
    1      -13.225334
    2      -13.222477
    3      -13.058254
    4      -13.055660
    5      -13.055652
    6      -13.052446
    7      -12.875550
    8      -12.872619
    9      -10.375824
   10      -10.374061
   11      -10.238446
   12      -10.237066
   13      -10.237009
   14      -10.234813
   15      -10.091329
   16      -10.089515
   17       -5.574388
   18       -5.572504
   19       -5.522453
   20       -5.522449
   21       -5.521612
   22       -5.517422
   23       -5.473419
   24       -5.470997
   25       -3.979255
   26       -3.977633
   27       -3.949012
   28       -3.946311
   29       -3.945282
   30       -3.945278
   31       -3.904550
   32       -3.903289
   33       -2.482582
   34       -2.479170
   35       -2.420461
   36       -2.415023
   37       -2.415011
   38       -2.414290
   39       -2.350798
   40       -2.347951
   41       -1.897025
   42       -1.894680
   43       -0.928277
   44       -0.925875
   45       -0.925636
   46       -0.922093
   47       -0.074121
   48       -0.070222
   49       -0.042107
   50       -0.040959
   51       -0.040937
   52       -0.032655
   53       -0.008691
   54       -0.001983
   55        0.253435
   56        0.256126
   57        1.427177
   58        1.429290
   59        2.218468
   60        2.221907
   61        2.222275
   62        2.223701
   63        3.125348
   64        3.127769
   65        7.407620
   66        7.410255
   67        7.774227
   68        7.774418
   69        7.774475
   70        7.779556
   71        8.141596
   72        8.144198
   73       11.319330
   74       11.320519
   75       11.839420
   76       11.842774
   77       12.132975
   78       12.139916
   79       12.141108
   80       12.144288
   81       12.606932
   82       12.610652
   83       12.873158
   84       12.876018
 
 -0.1355253E-19  0.1666667E+00  0.0000000E+00  0.1388889E-01
    1      -14.540621
    2      -14.359280
    3      -14.358614
    4      -14.161791
    5      -10.677006
    6      -10.536366
    7      -10.535821
    8      -10.386649
    9       -9.801586
   10       -9.794010
   11       -9.677462
   12       -9.676567
   13       -9.669511
   14       -9.667854
   15       -9.547378
   16       -9.538867
   17       -7.671416
   18       -7.666177
   19       -7.572908
   20       -7.572118
   21       -7.565988
   22       -7.565658
   23       -7.463536
   24       -7.457608
   25       -6.827564
   26       -6.724897
   27       -6.724352
   28       -6.616057
   29       -3.480816
   30       -2.456333
   31       -2.454289
   32       -1.940032
   33       -1.924469
   34       -1.895725
   35       -1.893029
   36       -1.879785
   37       -1.877847
   38       -1.847565
   39       -1.832193
   40       -1.284052
   41       -1.247462
   42       -1.246982
   43       -1.209991
   44       -1.192381
   45        0.993413
   46        1.304852
   47        1.327512
   48        1.327881
   49        1.350594
   50        1.613381
   51        1.632647
   52        1.632902
   53        1.652313
   54        1.761550
   55        1.762857
   56        1.869213
   57        1.874089
   58        2.491764
   59        2.494041
   60        2.500197
   61        2.503155
   62        2.589496
   63        3.034567
   64        3.050506
   65        6.634909
   66        6.640441
   67        6.888587
   68        6.891479
   69        6.894821
   70        6.897572
   71        7.271127
   72        7.516032
   73        7.521479
   74        7.714963
   75        7.718046
   76        8.425495
   77        9.751303
   78       12.205403
   79       12.439517
   80       12.440133
   81       12.603015
   82       12.606626
   83       12.677450
   84       12.864554
 
  0.1666667E+00  0.1666667E+00  0.0000000E+00  0.1388889E-01
    1      -14.209274
    2      -14.031262
    3      -14.030618
    4      -13.837790
    5      -11.300934
    6      -11.297936
    7      -11.153841
    8      -11.151172
    9      -11.151154
   10      -11.147758
   11      -10.994261
   12      -10.991188
   13       -8.937984
   14       -8.861806
   15       -8.860620
   16       -8.801130
   17       -7.865585
   18       -7.834939
   19       -7.831164
   20       -7.771567
   21       -5.716545
   22       -5.712995
   23       -5.625297
   24       -5.621408
   25       -5.621389
   26       -5.618273
   27       -5.526078
   28       -5.522573
   29       -3.275268
   30       -3.214420
   31       -3.212587
   32       -3.149342
   33       -3.079411
   34       -2.067675
   35       -2.065637
   36       -1.612569
   37       -1.609809
   38       -1.569404
   39       -1.567951
   40       -1.567941
   41       -1.563527
   42       -1.523793
   43       -1.520597
   44       -0.822079
   45        0.267046
   46        0.288127
   47        0.292821
   48        0.311559
   49        0.341174
   50        0.342677
   51        0.940465
   52        0.953748
   53        0.958771
   54        0.975034
   55        1.186898
   56        1.188993
   57        1.189151
   58        1.192555
   59        2.168762
   60        2.171253
   61        2.705700
   62        3.196146
   63        3.198493
   64        3.483607
   65        6.396564
   66        6.401401
   67        6.446158
   68        6.748563
   69        8.202258
   70        8.204798
   71        8.664705
   72        8.668921
   73        8.669554
   74        8.671593
   75        9.277861
   76        9.280716
   77       10.147669
   78       12.918088
   79       12.922071
   80       13.013653
   81       13.018117
   82       13.252826
   83       13.254788
   84       13.258374
 
  0.3333333E+00  0.1666667E+00  0.0000000E+00  0.1388889E-01
    1      -13.550670
    2      -13.379296
    3      -13.378693
    4      -13.193715
    5      -12.575405
    6      -12.413906
    7      -12.413313
    8      -12.239963
    9      -11.617229
   10      -11.465717
   11      -11.465051
   12      -11.303219
   13       -8.930314
   14       -8.815873
   15       -8.815484
   16       -8.697309
   17       -7.023478
   18       -6.947624
   19       -6.944526
   20       -6.864747
   21       -4.708432
   22       -4.650460
   23       -4.648484
   24       -4.583070
   25       -4.548504
   26       -4.481422
   27       -4.479522
   28       -4.411731
   29       -3.567906
   30       -3.497189
   31       -3.495520
   32       -3.422715
   33       -2.512628
   34       -2.467600
   35       -2.466247
   36       -2.417137
   37       -2.285878
   38       -1.469433
   39       -1.428775
   40       -1.425088
   41       -1.378231
   42       -1.298010
   43       -1.296408
   44       -1.125703
   45       -0.971014
   46       -0.933093
   47       -0.930142
   48       -0.891074
   49       -0.189222
   50       -0.187357
   51       -0.096321
   52       -0.070311
   53       -0.043286
   54       -0.038604
   55       -0.010399
   56        0.001225
   57        0.881473
   58        0.883076
   59        0.941901
   60        1.927284
   61        2.983168
   62        3.603867
   63        3.605941
   64        4.159087
   65        6.004499
   66        6.255809
   67        6.259589
   68        6.657163
   69        9.018435
   70        9.383890
   71        9.386002
   72        9.773760
   73       10.501960
   74       10.874833
   75       10.878112
   76       10.941253
   77       11.335676
   78       12.107329
   79       12.783116
   80       12.973229
   81       12.979688
   82       13.285389
   83       13.331185
   84       13.379592
 
  0.5000000E+00  0.1666667E+00  0.0000000E+00  0.1388889E-01
    1      -13.551867
    2      -13.380497
    3      -13.379877
    4      -13.194902
    5      -12.573721
    6      -12.412216
    7      -12.411640
    8      -12.238286
    9      -11.618447
   10      -11.466943
   11      -11.466269
   12      -11.304451
   13       -8.927539
   14       -8.812764
   15       -8.812339
   16       -8.693702
   17       -7.019086
   18       -6.942148
   19       -6.940850
   20       -6.860146
   21       -4.716420
   22       -4.658120
   23       -4.657637
   24       -4.591811
   25       -4.557915
   26       -4.491095
   27       -4.487756
   28       -4.420153
   29       -3.571593
   30       -3.501290
   31       -3.498888
   32       -3.426504
   33       -2.501704
   34       -2.457087
   35       -2.454078
   36       -2.405494
   37       -2.287166
   38       -1.467358
   39       -1.425922
   40       -1.424160
   41       -1.376326
   42       -1.299191
   43       -1.297668
   44       -1.123977
   45       -0.967448
   46       -0.929954
   47       -0.926127
   48       -0.887475
   49       -0.187554
   50       -0.185623
   51       -0.097613
   52       -0.072329
   53       -0.044499
   54       -0.042017
   55       -0.012946
   56       -0.000215
   57        0.880059
   58        0.881696
   59        0.943493
   60        1.925414
   61        2.983819
   62        3.607951
   63        3.608876
   64        4.169349
   65        5.999616
   66        6.256411
   67        6.258470
   68        6.656420
   69        9.014567
   70        9.380511
   71        9.383327
   72        9.773047
   73       10.502792
   74       10.873322
   75       10.877269
   76       10.939490
   77       11.332628
   78       12.109730
   79       12.779978
   80       12.974183
   81       12.980352
   82       13.284069
   83       13.333604
   84       13.375642
 
 -0.3333333E+00  0.1666667E+00  0.0000000E+00  0.1388889E-01
    1      -14.209990
    2      -14.031980
    3      -14.031324
    4      -13.838498
    5      -11.303051
    6      -11.297258
    7      -11.154993
    8      -11.154345
    9      -11.149120
   10      -11.148580
   11      -10.996499
   12      -10.990654
   13       -8.927761
   14       -8.849732
   15       -8.849306
   16       -8.787836
   17       -7.866719
   18       -7.833508
   19       -7.833083
   20       -7.770961
   21       -5.724299
   22       -5.718812
   23       -5.632309
   24       -5.629843
   25       -5.626576
   26       -5.624913
   27       -5.533731
   28       -5.528604
   29       -3.288646
   30       -3.227169
   31       -3.226697
   32       -3.162794
   33       -3.080203
   34       -2.068458
   35       -2.066433
   36       -1.607897
   37       -1.595137
   38       -1.565576
   39       -1.562380
   40       -1.552444
   41       -1.550027
   42       -1.519050
   43       -1.506382
   44       -0.822874
   45        0.262162
   46        0.285145
   47        0.285194
   48        0.306233
   49        0.338179
   50        0.344191
   51        0.946226
   52        0.961266
   53        0.961548
   54        0.978775
   55        1.184010
   56        1.185628
   57        1.190572
   58        1.192734
   59        2.163900
   60        2.172000
   61        2.706840
   62        3.205235
   63        3.205668
   64        3.502725
   65        6.398107
   66        6.400747
   67        6.437523
   68        6.751369
   69        8.198990
   70        8.202393
   71        8.660913
   72        8.664588
   73        8.664940
   74        8.668319
   75        9.275374
   76        9.275871
   77       10.146562
   78       12.916910
   79       12.920804
   80       13.013928
   81       13.045137
   82       13.252347
   83       13.254353
   84       13.285520
 
 -0.1666667E+00  0.1666667E+00  0.0000000E+00  0.1388889E-01
    1      -14.540859
    2      -14.359518
    3      -14.358848
    4      -14.162026
    5      -10.683283
    6      -10.542750
    7      -10.542204
    8      -10.393143
    9       -9.793007
   10       -9.790904
   11       -9.668729
   12       -9.667163
   13       -9.667125
   14       -9.664432
   15       -9.538041
   16       -9.535884
   17       -7.669635
   18       -7.667754
   19       -7.571260
   20       -7.568709
   21       -7.568679
   22       -7.567543
   23       -7.461392
   24       -7.459580
   25       -6.834733
   26       -6.732911
   27       -6.730614
   28       -6.623117
   29       -3.481082
   30       -2.456598
   31       -2.454557
   32       -1.940797
   33       -1.938602
   34       -1.895579
   35       -1.894884
   36       -1.894872
   37       -1.890802
   38       -1.848606
   39       -1.845983
   40       -1.267031
   41       -1.231245
   42       -1.229001
   43       -1.192903
   44       -1.192649
   45        0.988217
   46        1.293894
   47        1.314891
   48        1.320022
   49        1.341572
   50        1.622697
   51        1.640803
   52        1.645402
   53        1.662991
   54        1.754631
   55        1.756283
   56        1.873937
   57        1.876010
   58        2.500548
   59        2.501267
   60        2.501465
   61        2.505415
   62        2.579387
   63        3.049188
   64        3.051243
   65        6.635113
   66        6.637600
   67        6.888953
   68        6.894670
   69        6.895054
   70        6.897010
   71        7.269129
   72        7.517809
   73        7.520879
   74        7.708781
   75        7.713364
   76        8.420333
   77        9.750919
   78       12.238268
   79       12.472046
   80       12.473200
   81       12.602466
   82       12.606085
   83       12.710147
   84       12.845317
 
  0.0000000E+00  0.3333333E+00  0.0000000E+00  0.1388889E-01
    1      -14.044378
    2      -13.868056
    3      -13.867402
    4      -13.676550
    5      -12.091274
    6      -11.934741
    7      -11.934141
    8      -11.766532
    9      -10.226978
   10      -10.222664
   11      -10.092246
   12      -10.090879
   13      -10.087651
   14      -10.085517
   15       -9.947750
   16       -9.943228
   17       -6.496832
   18       -6.488220
   19       -6.403812
   20       -6.403140
   21       -6.394207
   22       -6.393859
   23       -6.304874
   24       -6.296302
   25       -4.707216
   26       -4.621568
   27       -4.621078
   28       -4.532095
   29       -3.100826
   30       -3.087711
   31       -3.043207
   32       -3.041064
   33       -3.029536
   34       -3.028168
   35       -2.980495
   36       -2.967424
   37       -2.880310
   38       -1.875266
   39       -1.873244
   40       -0.809695
   41       -0.774475
   42       -0.774068
   43       -0.738595
   44       -0.639403
   45       -0.566176
   46       -0.355444
   47       -0.312831
   48       -0.312331
   49       -0.269393
   50        0.339113
   51        0.340836
   52        0.812021
   53        0.839309
   54        0.839706
   55        0.867178
   56        1.418060
   57        1.551025
   58        1.555079
   59        2.302964
   60        2.305317
   61        2.308493
   62        2.311440
   63        3.120120
   64        3.128418
   65        7.090596
   66        7.093538
   67        7.465504
   68        7.467770
   69        7.471728
   70        7.474214
   71        7.967627
   72        7.972161
   73        9.394648
   74        9.854743
   75        9.857697
   76       10.342847
   77       10.463117
   78       12.408117
   79       12.652739
   80       12.676431
   81       12.676829
   82       12.968650
   83       12.972695
   84       13.077702
 
  0.1666667E+00  0.3333333E+00  0.0000000E+00  0.1388889E-01
    1      -13.550656
    2      -13.379288
    3      -13.378669
    4      -13.193697
    5      -12.575370
    6      -12.413890
    7      -12.413253
    8      -12.239922
    9      -11.617274
   10      -11.465733
   11      -11.465129
   12      -11.303268
   13       -8.930246
   14       -8.815781
   15       -8.815429
   16       -8.697228
   17       -7.023858
   18       -6.947626
   19       -6.945417
   20       -6.865268
   21       -4.707974
   22       -4.649673
   23       -4.648480
   24       -4.582733
   25       -4.549910
   26       -4.482421
   27       -4.481406
   28       -4.413208
   29       -3.566504
   30       -3.495539
   31       -3.494381
   32       -3.421320
   33       -2.510943
   34       -2.466253
   35       -2.464231
   36       -2.415439
   37       -2.285915
   38       -1.468218
   39       -1.426905
   40       -1.425068
   41       -1.377414
   42       -1.297986
   43       -1.296452
   44       -1.125931
   45       -0.972589
   46       -0.933489
   47       -0.933081
   48       -0.892864
   49       -0.189417
   50       -0.187642
   51       -0.096436
   52       -0.071137
   53       -0.043287
   54       -0.040867
   55       -0.011798
   56        0.001305
   57        0.881798
   58        0.883514
   59        0.941564
   60        1.927776
   61        2.983646
   62        3.604807
   63        3.605979
   64        4.159462
   65        6.004036
   66        6.255758
   67        6.258194
   68        6.656350
   69        9.017060
   70        9.383072
   71        9.384435
   72        9.772740
   73       10.503173
   74       10.876229
   75       10.878718
   76       10.941283
   77       11.336626
   78       12.107237
   79       12.783496
   80       12.973296
   81       12.979718
   82       13.285797
   83       13.331491
   84       13.378239
 
  0.3333333E+00  0.3333333E+00  0.0000000E+00  0.1388889E-01
    1      -12.740199
    2      -12.737481
    3      -12.734944
    4      -12.578493
    5      -12.575235
    6      -12.575218
    7      -12.573556
    8      -12.572343
    9      -12.569610
   10      -12.401114
   11      -12.398408
   12      -12.395806
   13       -7.718139
   14       -7.601543
   15       -7.599959
   16       -7.592483
   17       -7.590120
   18       -7.585044
   19       -7.582898
   20       -7.469423
   21       -5.549299
   22       -5.548890
   23       -5.541485
   24       -5.540388
   25       -2.797549
   26       -2.794299
   27       -2.792481
   28       -2.762281
   29       -2.757454
   30       -2.757440
   31       -2.756782
   32       -2.756596
   33       -2.751346
   34       -2.724073
   35       -2.721633
   36       -2.717923
   37       -1.431806
   38       -1.427790
   39       -1.425209
   40       -1.409161
   41       -1.405477
   42       -1.403687
   43       -1.403020
   44       -1.403002
   45       -1.397496
   46       -1.376441
   47       -1.374738
   48       -1.370363
   49       -1.316551
   50       -1.314047
   51       -1.311731
   52       -0.371624
   53       -0.368025
   54       -0.367783
   55       -0.366465
   56       -0.365306
   57       -0.361984
   58        0.776802
   59        0.779228
   60        0.782001
   61        4.201398
   62        4.923071
   63        4.932890
   64        4.949011
   65        4.949511
   66        4.976472
   67        4.977498
   68        5.822969
   69       11.036014
   70       11.038868
   71       11.043726
   72       11.319773
   73       11.323866
   74       11.324190
   75       11.325231
   76       11.325852
   77       11.328459
   78       11.622476
   79       11.627970
   80       11.630850
   81       11.929123
   82       11.930637
   83       11.934598
   84       14.335771
 
  0.5000000E+00  0.3333333E+00  0.0000000E+00  0.1388889E-01
    1      -13.552567
    2      -13.381207
    3      -13.380562
    4      -13.195596
    5      -12.577259
    6      -12.415806
    7      -12.415110
    8      -12.241807
    9      -11.613442
   10      -11.461874
   11      -11.461331
   12      -11.299442
   13       -8.920147
   14       -8.805527
   15       -8.804907
   16       -8.686504
   17       -7.027228
   18       -6.950669
   19       -6.950112
   20       -6.869792
   21       -4.714546
   22       -4.656772
   23       -4.655549
   24       -4.590233
   25       -4.556334
   26       -4.489778
   27       -4.487298
   28       -4.420029
   29       -3.578293
   30       -3.508069
   31       -3.504900
   32       -3.432548
   33       -2.506838
   34       -2.463059
   35       -2.459275
   36       -2.411371
   37       -2.287991
   38       -1.476350
   39       -1.434627
   40       -1.432195
   41       -1.384472
   42       -1.300241
   43       -1.298790
   44       -1.127949
   45       -0.957437
   46       -0.919473
   47       -0.916405
   48       -0.877441
   49       -0.191597
   50       -0.189819
   51       -0.098526
   52       -0.062622
   53       -0.034495
   54       -0.032253
   55       -0.003059
   56        0.005152
   57        0.885381
   58        0.887358
   59        0.939052
   60        1.931352
   61        2.989289
   62        3.612615
   63        3.614058
   64        4.171254
   65        6.005482
   66        6.252423
   67        6.254082
   68        6.644122
   69        9.019744
   70        9.380468
   71        9.383058
   72        9.765486
   73       10.496166
   74       10.870394
   75       10.873151
   76       10.938540
   77       11.334210
   78       12.105190
   79       12.775863
   80       12.970719
   81       12.977043
   82       13.290704
   83       13.333248
   84       13.405941
 
 -0.3333333E+00  0.3333333E+00  0.0000000E+00  0.1388889E-01
    1      -14.045330
    2      -13.869011
    3      -13.868342
    4      -13.677493
    5      -12.095102
    6      -11.938609
    7      -11.937939
    8      -11.770369
    9      -10.219394
   10      -10.217562
   11      -10.084415
   12      -10.082928
   13      -10.082879
   14      -10.080654
   15       -9.940049
   16       -9.938167
   17       -6.495572
   18       -6.493599
   19       -6.403462
   20       -6.400628
   21       -6.400597
   22       -6.399573
   23       -6.304131
   24       -6.302238
   25       -4.717142
   26       -4.632341
   27       -4.629841
   28       -4.541659
   29       -3.099355
   30       -3.097524
   31       -3.040863
   32       -3.040780
   33       -3.040700
   34       -3.036769
   35       -2.979420
   36       -2.977222
   37       -2.881368
   38       -1.876320
   39       -1.874313
   40       -0.793668
   41       -0.759444
   42       -0.756879
   43       -0.722434
   44       -0.640522
   45       -0.570099
   46       -0.367292
   47       -0.326124
   48       -0.321888
   49       -0.280335
   50        0.334875
   51        0.336564
   52        0.824106
   53        0.850056
   54        0.853846
   55        0.879806
   56        1.413145
   57        1.557220
   58        1.559238
   59        2.310792
   60        2.311738
   61        2.311981
   62        2.315910
   63        3.129310
   64        3.131671
   65        7.092632
   66        7.095412
   67        7.464179
   68        7.469293
   69        7.469518
   70        7.470896
   71        7.962228
   72        7.964996
   73        9.387434
   74        9.847736
   75        9.851384
   76       10.341459
   77       10.459332
   78       12.428022
   79       12.669577
   80       12.705926
   81       12.707247
   82       12.971605
   83       12.975989
   84       13.097835
 
 -0.1666667E+00  0.3333333E+00  0.0000000E+00  0.1388889E-01
    1      -14.209978
    2      -14.031975
    3      -14.031304
    4      -13.838485
    5      -11.303471
    6      -11.296913
    7      -11.155812
    8      -11.154852
    9      -11.149025
   10      -11.147348
   11      -10.996861
   12      -10.990221
   13       -8.926995
   14       -8.849708
   15       -8.847766
   16       -8.787089
   17       -7.868489
   18       -7.836340
   19       -7.833494
   20       -7.772534
   21       -5.724858
   22       -5.717581
   23       -5.632325
   24       -5.631684
   25       -5.624940
   26       -5.623137
   27       -5.534247
   28       -5.527192
   29       -3.287614
   30       -3.227149
   31       -3.224530
   32       -3.161633
   33       -3.080235
   34       -2.068491
   35       -2.066475
   36       -1.609199
   37       -1.594967
   38       -1.565594
   39       -1.565235
   40       -1.551684
   41       -1.550027
   42       -1.520392
   43       -1.506085
   44       -0.822922
   45        0.264034
   46        0.285188
   47        0.289647
   48        0.309132
   49        0.337955