   4   4   0   0
  0.8835079E+01  0.2464945E-09  0.2464945E-09  0.6716226E-09  0.5000000E-15
  1.000000000000000E-004
  CAR 
 graphite                                
     16.97803683    -17.95552552  301      3.57637605      1.00000000
    -17.956  0.0000E+00  0.0000E+00
    -17.839  0.0000E+00  0.0000E+00
    -17.723  0.0000E+00  0.0000E+00
    -17.606  0.0000E+00  0.0000E+00
    -17.490  0.0000E+00  0.0000E+00
    -17.373  0.0000E+00  0.0000E+00
    -17.257  0.0000E+00  0.0000E+00
    -17.140  0.0000E+00  0.0000E+00
    -17.024  0.0000E+00  0.0000E+00
    -16.908  0.0000E+00  0.0000E+00
    -16.791  0.0000E+00  0.0000E+00
    -16.675  0.0000E+00  0.0000E+00
    -16.558  0.0000E+00  0.0000E+00
    -16.442  0.0000E+00  0.0000E+00
    -16.325  0.0000E+00  0.0000E+00
    -16.209  0.0000E+00  0.0000E+00
    -16.092  0.0000E+00  0.0000E+00
    -15.976  0.0000E+00  0.0000E+00
    -15.860  0.2149E-02  0.1027E-03
    -15.743  0.3069E-02  0.4415E-03
    -15.627  0.3046E-02  0.8080E-03
    -15.510  0.3085E-02  0.1158E-02
    -15.394  0.3151E-02  0.1526E-02
    -15.277  0.3023E-02  0.1883E-02
    -15.161  0.3102E-02  0.2238E-02
    -15.044  0.3186E-02  0.2606E-02
    -14.928  0.3055E-02  0.2969E-02
    -14.812  0.3076E-02  0.3326E-02
    -14.695  0.3124E-02  0.3686E-02
    -14.579  0.3198E-02  0.4055E-02
    -14.462  0.3112E-02  0.4422E-02
    -14.346  0.3091E-02  0.4783E-02
    -14.229  0.3123E-02  0.5144E-02
    -14.113  0.3157E-02  0.5510E-02
    -13.996  0.3205E-02  0.5880E-02
    -13.880  0.3150E-02  0.6251E-02
    -13.763  0.3138E-02  0.6617E-02
    -13.647  0.3145E-02  0.6982E-02
    -13.531  0.3175E-02  0.7350E-02
    -13.414  0.3205E-02  0.7722E-02
    -13.298  0.3235E-02  0.8097E-02
    -13.181  0.3197E-02  0.8471E-02
    -13.065  0.3190E-02  0.8843E-02
    -12.948  0.3204E-02  0.9215E-02
    -12.832  0.3219E-02  0.9589E-02
    -12.715  0.3247E-02  0.9965E-02
    -12.599  0.3275E-02  0.1035E-01
    -12.483  0.3291E-02  0.1073E-01
    -12.366  0.3271E-02  0.1111E-01
    -12.250  0.3281E-02  0.1149E-01
    -12.133  0.3302E-02  0.1187E-01
    -12.017  0.3328E-02  0.1226E-01
    -11.900  0.3354E-02  0.1265E-01
    -11.784  0.3395E-02  0.1304E-01
    -11.667  0.3439E-02  0.1344E-01
    -11.551  0.3461E-02  0.1384E-01
    -11.435  0.3502E-02  0.1425E-01
    -11.318  0.3601E-02  0.1466E-01
    -11.202  0.3735E-02  0.1509E-01
    -11.085  0.3955E-02  0.1553E-01
    -10.969  0.4178E-02  0.1601E-01
    -10.852  0.5968E-02  0.1660E-01
    -10.736  0.4354E-02  0.1721E-01
    -10.619  0.3244E-02  0.1763E-01
    -10.503  0.6216E-02  0.1810E-01
    -10.387  0.2300E-02  0.1848E-01
    -10.270  0.2052E-02  0.1873E-01
    -10.154  0.1803E-02  0.1896E-01
    -10.037  0.1555E-02  0.1915E-01
     -9.921  0.1475E-02  0.1932E-01
     -9.804  0.2305E-02  0.1954E-01
     -9.688  0.8902E-03  0.1971E-01
     -9.571  0.1029E-02  0.1981E-01
     -9.455  0.1629E-02  0.1996E-01
     -9.339  0.4511E-02  0.2030E-01
     -9.222  0.2664E-02  0.2075E-01
     -9.106  0.2787E-02  0.2106E-01
     -8.989  0.4196E-02  0.2140E-01
     -8.873  0.3817E-02  0.2199E-01
     -8.756  0.4495E-02  0.2247E-01
     -8.640  0.5213E-02  0.2303E-01
     -8.523  0.5241E-02  0.2368E-01
     -8.407  0.3890E-02  0.2417E-01
     -8.291  0.3737E-02  0.2461E-01
     -8.174  0.3585E-02  0.2504E-01
     -8.058  0.3439E-02  0.2544E-01
     -7.941  0.3300E-02  0.2584E-01
     -7.825  0.3162E-02  0.2621E-01
     -7.708  0.3024E-02  0.2657E-01
     -7.592  0.2975E-02  0.2692E-01
     -7.475  0.2939E-02  0.2727E-01
     -7.359  0.2903E-02  0.2761E-01
     -7.243  0.2867E-02  0.2794E-01
     -7.126  0.2829E-02  0.2827E-01
     -7.010  0.2584E-02  0.2859E-01
     -6.893  0.2740E-02  0.2889E-01
     -6.777  0.3166E-02  0.2924E-01
     -6.660  0.3591E-02  0.2963E-01
     -6.544  0.4015E-02  0.3007E-01
     -6.427  0.3745E-02  0.3052E-01
     -6.311  0.3689E-02  0.3096E-01
     -6.195  0.3633E-02  0.3138E-01
     -6.078  0.3583E-02  0.3180E-01
     -5.962  0.3672E-02  0.3222E-01
     -5.845  0.3767E-02  0.3266E-01
     -5.729  0.3859E-02  0.3310E-01
     -5.612  0.3937E-02  0.3356E-01
     -5.496  0.3958E-02  0.3402E-01
     -5.379  0.3964E-02  0.3448E-01
     -5.263  0.3888E-02  0.3494E-01
     -5.147  0.4009E-02  0.3539E-01
     -5.030  0.4049E-02  0.3586E-01
     -4.914  0.4088E-02  0.3634E-01
     -4.797  0.4128E-02  0.3681E-01
     -4.681  0.4168E-02  0.3730E-01
     -4.564  0.4286E-02  0.3779E-01
     -4.448  0.4433E-02  0.3829E-01
     -4.331  0.5041E-02  0.3885E-01
     -4.215  0.5415E-02  0.3946E-01
     -4.099  0.5712E-02  0.4011E-01
     -3.982  0.5982E-02  0.4079E-01
     -3.866  0.6272E-02  0.4151E-01
     -3.749  0.6621E-02  0.4225E-01
     -3.633  0.7379E-02  0.4306E-01
     -3.516  0.8309E-02  0.4397E-01
     -3.400  0.8912E-02  0.4498E-01
     -3.283  0.1043E-01  0.4611E-01
     -3.167  0.8732E-02  0.4723E-01
     -3.051  0.8030E-02  0.4819E-01
     -2.934  0.9952E-02  0.4926E-01
     -2.818  0.1106E-01  0.5048E-01
     -2.701  0.9589E-02  0.5169E-01
     -2.585  0.9463E-02  0.5282E-01
     -2.468  0.8188E-02  0.5384E-01
     -2.352  0.8291E-02  0.5480E-01
     -2.235  0.8457E-02  0.5576E-01
     -2.119  0.5822E-02  0.5666E-01
     -2.003  0.5408E-02  0.5730E-01
     -1.886  0.6378E-02  0.5794E-01
     -1.770  0.6455E-02  0.5867E-01
     -1.653  0.8272E-02  0.5958E-01
     -1.537  0.7571E-02  0.6049E-01
     -1.420  0.7073E-02  0.6134E-01
     -1.304  0.6622E-02  0.6214E-01
     -1.187  0.6266E-02  0.6289E-01
     -1.071  0.6226E-02  0.6361E-01
     -0.955  0.6111E-02  0.6433E-01
     -0.838  0.5993E-02  0.6504E-01
     -0.722  0.5878E-02  0.6573E-01
     -0.605  0.5765E-02  0.6640E-01
     -0.489  0.5756E-02  0.6707E-01
     -0.372  0.5868E-02  0.6775E-01
     -0.256  0.5764E-02  0.6843E-01
     -0.139  0.5629E-02  0.6910E-01
     -0.023  0.5501E-02  0.6974E-01
      0.093  0.5730E-02  0.7040E-01
      0.210  0.5571E-02  0.7106E-01
      0.326  0.5741E-02  0.7173E-01
      0.443  0.5610E-02  0.7238E-01
      0.559  0.3936E-02  0.7293E-01
      0.676  0.3760E-02  0.7336E-01
      0.792  0.3988E-02  0.7381E-01
      0.909  0.4338E-02  0.7430E-01
      1.025  0.5340E-02  0.7486E-01
      1.141  0.5142E-02  0.7547E-01
      1.258  0.5092E-02  0.7606E-01
      1.374  0.4501E-02  0.7665E-01
      1.491  0.3690E-02  0.7713E-01
      1.607  0.3080E-02  0.7752E-01
      1.724  0.2804E-02  0.7786E-01
      1.840  0.2492E-02  0.7817E-01
      1.957  0.2198E-02  0.7844E-01
      2.073  0.1992E-02  0.7869E-01
      2.189  0.1739E-02  0.7890E-01
      2.306  0.1562E-02  0.7909E-01
      2.422  0.1464E-02  0.7927E-01
      2.539  0.1287E-02  0.7943E-01
      2.655  0.1102E-02  0.7957E-01
      2.772  0.9165E-03  0.7969E-01
      2.888  0.7098E-03  0.7978E-01
      3.005  0.5643E-03  0.7986E-01
      3.121  0.4291E-03  0.7991E-01
      3.238  0.2939E-03  0.7996E-01
      3.354  0.1667E-03  0.7998E-01
      3.470  0.6909E-04  0.8000E-01
      3.587  0.1097E-05  0.8000E-01
      3.703  0.7283E-04  0.8000E-01
      3.820  0.1688E-03  0.8002E-01
      3.936  0.3008E-03  0.8004E-01
      4.053  0.4447E-03  0.8009E-01
      4.169  0.5887E-03  0.8015E-01
      4.286  0.7328E-03  0.8023E-01
      4.402  0.1031E-02  0.8032E-01
      4.518  0.1387E-02  0.8047E-01
      4.635  0.1633E-02  0.8065E-01
      4.751  0.1554E-02  0.8083E-01
      4.868  0.1989E-02  0.8103E-01
      4.984  0.2496E-02  0.8130E-01
      5.101  0.4347E-02  0.8167E-01
      5.217  0.5566E-02  0.8222E-01
      5.334  0.5410E-02  0.8287E-01
      5.450  0.5081E-02  0.8347E-01
      5.566  0.5059E-02  0.8407E-01
      5.683  0.4093E-02  0.8459E-01
      5.799  0.3740E-02  0.8505E-01
      5.916  0.3457E-02  0.8547E-01
      6.032  0.3254E-02  0.8586E-01
      6.149  0.3088E-02  0.8623E-01
      6.265  0.2931E-02  0.8658E-01
      6.382  0.2802E-02  0.8691E-01
      6.498  0.2697E-02  0.8723E-01
      6.614  0.2629E-02  0.8754E-01
      6.731  0.2568E-02  0.8784E-01
      6.847  0.2509E-02  0.8814E-01
      6.964  0.2453E-02  0.8843E-01
      7.080  0.2406E-02  0.8871E-01
      7.197  0.2621E-02  0.8900E-01
      7.313  0.2667E-02  0.8931E-01
      7.430  0.2714E-02  0.8962E-01
      7.546  0.2733E-02  0.8994E-01
      7.662  0.2773E-02  0.9026E-01
      7.779  0.2812E-02  0.9059E-01
      7.895  0.2836E-02  0.9092E-01
      8.012  0.2873E-02  0.9125E-01
      8.128  0.2915E-02  0.9159E-01
      8.245  0.2940E-02  0.9193E-01
      8.361  0.2951E-02  0.9227E-01
      8.478  0.2974E-02  0.9261E-01
      8.594  0.3000E-02  0.9296E-01
      8.710  0.3027E-02  0.9331E-01
      8.827  0.3079E-02  0.9367E-01
      8.943  0.3124E-02  0.9403E-01
      9.060  0.3414E-02  0.9440E-01
      9.176  0.3648E-02  0.9482E-01
      9.293  0.3562E-02  0.9524E-01
      9.409  0.3394E-02  0.9565E-01
      9.526  0.3230E-02  0.9603E-01
      9.642  0.2798E-02  0.9639E-01
      9.758  0.2655E-02  0.9670E-01
      9.875  0.2336E-02  0.9700E-01
      9.991  0.2487E-02  0.9727E-01
     10.108  0.2935E-02  0.9759E-01
     10.224  0.3279E-02  0.9795E-01
     10.341  0.3334E-02  0.9834E-01
     10.457  0.3360E-02  0.9873E-01
     10.574  0.3421E-02  0.9912E-01
     10.690  0.3640E-02  0.9953E-01
     10.806  0.3790E-02  0.9997E-01
     10.923  0.4637E-02  0.1004E+00
     11.039  0.7474E-02  0.1011E+00
     11.156  0.9630E-02  0.1022E+00
     11.272  0.9605E-02  0.1033E+00
     11.389  0.8390E-02  0.1044E+00
     11.505  0.7661E-02  0.1053E+00
     11.622  0.7346E-02  0.1062E+00
     11.738  0.7359E-02  0.1070E+00
     11.854  0.8888E-02  0.1079E+00
     11.971  0.1465E-01  0.1093E+00
     12.087  0.1396E-01  0.1110E+00
     12.204  0.8386E-02  0.1123E+00
     12.320  0.4531E-02  0.1130E+00
     12.437  0.3466E-02  0.1135E+00
     12.553  0.3241E-02  0.1139E+00
     12.670  0.2985E-02  0.1142E+00
     12.786  0.2796E-02  0.1146E+00
     12.902  0.2676E-02  0.1149E+00
     13.019  0.2581E-02  0.1152E+00
     13.135  0.2508E-02  0.1155E+00
     13.252  0.2461E-02  0.1158E+00
     13.368  0.2470E-02  0.1161E+00
     13.485  0.2617E-02  0.1164E+00
     13.601  0.2781E-02  0.1167E+00
     13.718  0.2732E-02  0.1170E+00
     13.834  0.2535E-02  0.1173E+00
     13.950  0.3501E-02  0.1176E+00
     14.067  0.4649E-02  0.1182E+00
     14.183  0.4000E-02  0.1187E+00
     14.300  0.3159E-02  0.1191E+00
     14.416  0.2589E-02  0.1194E+00
     14.533  0.1974E-02  0.1197E+00
     14.649  0.1201E-02  0.1199E+00
     14.766  0.5037E-03  0.1200E+00
     14.882  0.3665E-04  0.1200E+00
     14.998  0.0000E+00  0.1200E+00
     15.115  0.0000E+00  0.1200E+00
     15.231  0.0000E+00  0.1200E+00
     15.348  0.0000E+00  0.1200E+00
     15.464  0.0000E+00  0.1200E+00
     15.581  0.0000E+00  0.1200E+00
     15.697  0.0000E+00  0.1200E+00
     15.814  0.0000E+00  0.1200E+00
     15.930  0.0000E+00  0.1200E+00
     16.046  0.0000E+00  0.1200E+00
     16.163  0.0000E+00  0.1200E+00
     16.279  0.0000E+00  0.1200E+00
     16.396  0.0000E+00  0.1200E+00
     16.512  0.0000E+00  0.1200E+00
     16.629  0.0000E+00  0.1200E+00
     16.745  0.0000E+00  0.1200E+00
     16.862  0.0000E+00  0.1200E+00
     16.978  0.0000E+00  0.1200E+00
