    4    4  200    1
  0.8835079E+01  0.2464945E-09  0.2464945E-09  0.6716226E-09  0.5000000E-15
  1.000000000000000E-004
  CAR 
 graphite                                
     16    455     12
 
  0.0000000E+00  0.0000000E+00  0.0000000E+00  0.3858025E-03
    1      -15.955526
    2      -15.856137
    3       -4.467967
    4       -3.518225
    5        0.531548
    6        0.535720
    7        0.586604
    8        0.590773
    9        7.061168
   10       11.490857
   11       11.813445
   12       11.828473
 
  0.5555556E-01  0.0000000E+00  0.0000000E+00  0.1543210E-02
    1      -15.882531
    2      -15.783595
    3       -4.379753
    4       -3.433269
    5        0.267529
    6        0.273638
    7        0.394920
    8        0.400342
    9        7.153798
   10       11.572241
   11       11.878613
   12       11.901945
 
  0.1111111E+00  0.0000000E+00  0.0000000E+00  0.1543210E-02
    1      -15.663737
    2      -15.566327
    3       -4.116024
    4       -3.179456
    5       -0.553094
    6       -0.541847
    7       -0.020823
    8       -0.012993
    9        7.432121
   10       11.812655
   11       11.927588
   12       11.974271
 
  0.1666667E+00  0.1387779E-16  0.0000000E+00  0.1543210E-02
    1      -15.300360
    2      -15.205410
    3       -3.679684
    4       -2.760465
    5       -1.733548
    6       -1.716031
    7       -0.576071
    8       -0.566254
    9        7.896286
   10       11.862926
   11       11.938886
   12       12.176922
 
  0.2222222E+00  0.0000000E+00  0.0000000E+00  0.1543210E-02
    1      -14.794208
    2      -14.702800
    3       -3.113129
    4       -3.088595
    5       -3.076430
    6       -2.183362
    7       -1.166223
    8       -1.154791
    9        8.544963
   10       11.430924
   11       11.623389
   12       11.687380
 
  0.2777778E+00  0.0000000E+00  0.0000000E+00  0.1543210E-02
    1      -14.148567
    2      -14.061524
    3       -4.577161
    4       -4.545356
    5       -2.316835
    6       -1.715911
    7       -1.703565
    8       -1.461600
    9        9.374090
   10        9.887882
   11       10.189389
   12       11.461991
 
  0.3333333E+00  0.2775558E-16  0.0000000E+00  0.1543210E-02
    1      -13.368612
    2      -13.286740
    3       -6.048554
    4       -6.009047
    5       -2.177808
    6       -2.164845
    7       -1.421092
    8       -0.621918
    9        8.300844
   10        8.696770
   11       10.367793
   12       11.245102
 
  0.3888889E+00 -0.2775558E-16  0.0000000E+00  0.1543210E-02
    1      -12.464496
    2      -12.389028
    3       -7.472147
    4       -7.425415
    5       -2.523803
    6       -2.510240
    7       -0.434018
    8        0.273508
    9        6.802537
   10        7.263780
   11       11.039518
   12       11.145517
 
  0.4444444E+00  0.0000000E+00  0.0000000E+00  0.1543210E-02
    1      -11.466943
    2      -11.400716
    3       -8.787905
    4       -8.736937
    5       -2.737112
    6       -2.723113
    7        0.522457
    8        1.053255
    9        5.606379
   10        6.060276
   11       10.941268
   12       11.075086
 
  0.5000000E+00 -0.2775558E-16  0.0000000E+00  0.7716049E-03
    1      -10.710688
    2      -10.675929
    3       -9.624554
    4       -9.597391
    5       -2.808984
    6       -2.794834
    7        1.038400
    8        1.350482
    9        5.123000
   10        5.503754
   11       10.903361
   12       11.041961
 
  0.5555556E-01  0.5555556E-01  0.0000000E+00  0.7716049E-03
    1      -15.736917
    2      -15.638966
    3       -4.204263
    4       -3.264396
    5       -0.242922
    6       -0.236607
    7        0.061024
    8        0.065918
    9        7.338793
   10       11.733034
   11       11.961247
   12       11.999177
 
  0.1111111E+00  0.5555556E-01  0.0000000E+00  0.1543210E-02
    1      -15.446097
    2      -15.350168
    3       -3.854649
    4       -2.928399
    5       -1.194880
    6       -1.182983
    7       -0.475071
    8       -0.467052
    9        7.709941
   10       12.046776
   11       12.086974
   12       12.149702
 
  0.1666667E+00  0.5555556E-01  0.0000000E+00  0.1543210E-02
    1      -15.011641
    2      -14.918691
    3       -3.335030
    4       -2.438375
    5       -2.430413
    6       -2.418776
    7       -1.086854
    8       -1.075786
    9        8.266705
   10       12.039835
   11       12.050986
   12       12.142452
 
  0.2222222E+00  0.5555556E-01  0.0000000E+00  0.1543210E-02
    1      -14.436059
    2      -14.347028
    3       -3.837373
    4       -3.810166
    5       -2.653135
    6       -1.780124
    7       -1.680501
    8       -1.667337
    9        9.006659
   10       10.600428
   11       10.837573
   12       11.882320
 
  0.2777778E+00  0.5555556E-01  0.0000000E+00  0.1543210E-02
    1      -13.723375
    2      -13.639177
    3       -5.292173
    4       -5.257187
    5       -2.199338
    6       -2.184908
    7       -1.823321
    8       -0.996014
    9        9.049037
   10        9.383638
   11        9.923934
   12       11.669277
 
  0.3333333E+00  0.5555556E-01  0.0000000E+00  0.1543210E-02
    1      -12.880788
    2      -12.802569
    3       -6.733319
    4       -6.690751
    5       -2.609664
    6       -2.594381
    7       -0.874629
    8       -0.117266
    9        7.509188
   10        7.926972
   11       10.985050
   12       11.478366
 
  0.3888889E+00  0.5555556E-01  0.0000000E+00  0.1543210E-02
    1      -11.924595
    2      -11.853352
    3       -8.105794
    4       -8.056604
    5       -2.891701
    6       -2.875902
    7        0.122325
    8        0.756151
    9        6.136038
   10        6.591884
   11       11.310440
   12       11.439473
 
  0.4444444E+00  0.5555556E-01  0.0000000E+00  0.1543210E-02
    1      -10.936935
    2      -10.881247
    3       -9.297914
    4       -9.251690
    5       -3.034418
    6       -3.018303
    7        0.949701
    8        1.346264
    9        5.239796
   10        5.633681
   11       11.237627
   12       11.381572
 
  0.5000000E+00  0.5555556E-01  0.0000000E+00  0.1543210E-02
    1      -10.932820
    2      -10.877276
    3       -9.302936
    4       -9.256864
    5       -3.032761
    6       -3.016670
    7        0.953056
    8        1.348219
    9        5.236879
   10        5.629619
   11       11.237281
   12       11.381381
 
 -0.4444444E+00  0.5555556E-01  0.0000000E+00  0.1543210E-02
    1      -11.920138
    2      -11.848923
    3       -8.113481
    4       -8.064326
    5       -2.886637
    6       -2.870921
    7        0.128035
    8        0.761244
    9        6.128610
   10        6.583697
   11       11.309998
   12       11.439932
 
 -0.3888889E+00  0.5555556E-01  0.0000000E+00  0.1543210E-02
    1      -12.876943
    2      -12.798749
    3       -6.742920
    4       -6.700406
    5       -2.600920
    6       -2.585782
    7       -0.868879
    8       -0.111614
    9        7.499901
   10        7.917513
   11       10.993684
   12       11.477129
 
 -0.3333333E+00  0.5555556E-01  0.0000000E+00  0.1543210E-02
    1      -13.720175
    2      -13.635999
    3       -5.304294
    4       -5.269401
    5       -2.186371
    6       -2.172165
    7       -1.818183
    8       -0.990808
    9        9.039336
   10        9.374161
   11        9.929873
   12       11.670343
 
 -0.2777778E+00  0.5555556E-01  0.0000000E+00  0.1543210E-02
    1      -14.433479
    2      -14.344468
    3       -3.853194
    4       -3.826157
    5       -2.648828
    6       -1.775705
    7       -1.662358
    8       -1.649526
    9        9.011342
   10       10.591363
   11       10.828825
   12       11.889723
 
 -0.2222222E+00  0.5555556E-01  0.0000000E+00  0.1543210E-02
    1      -15.009657
    2      -14.916724
    3       -3.331640
    4       -2.459974
    5       -2.440681
    6       -2.426914
    7       -1.061873
    8       -1.051292
    9        8.270379
   10       12.031813
   11       12.073386
   12       12.163796
 
 -0.1666667E+00  0.5555556E-01  0.0000000E+00  0.1543210E-02
    1      -15.444692
    2      -15.348774
    3       -3.852214
    4       -2.925876
    5       -1.225633
    6       -1.214156
    7       -0.440642
    8       -0.433231
    9        7.712635
   10       12.049154
   11       12.140087
   12       12.202001
 
 -0.1111111E+00  0.5555556E-01  0.0000000E+00  0.1543210E-02
    1      -15.736078
    2      -15.638135
    3       -4.202797
    4       -3.262875
    5       -0.285187
    6       -0.278860
    7        0.105698
    8        0.110599
    9        7.340448
   10       11.734859
   11       12.054869
   12       12.092469
 
 -0.5555556E-01  0.5555556E-01  0.0000000E+00  0.7716049E-03
    1      -15.882252
    2      -15.783318
    3       -4.379264
    4       -3.432761
    5        0.236329
    6        0.242489
    7        0.426891
    8        0.432515
    9        7.154355
   10       11.572873
   11       12.131584
   12       12.146473
 
  0.1111111E+00  0.1111111E+00  0.0000000E+00  0.7716049E-03
    1      -15.084288
    2      -14.990788
    3       -3.421530
    4       -2.513151
    5       -2.086899
    6       -2.076243
    7       -1.185427
    8       -1.178205
    9        8.174377
   10       12.283149
   11       12.434030
   12       12.491807
 
  0.1666667E+00  0.1111111E+00  0.0000000E+00  0.1543210E-02
    1      -14.580349
    2      -14.490311
    3       -3.230719
    4       -3.212738
    5       -2.822420
    6       -1.940738
    7       -1.921564
    8       -1.909944
    9        8.823735
   10       11.038783
   11       11.214088
   12       12.706004
 
  0.2222222E+00  0.1111111E+00  0.0000000E+00  0.1543210E-02
    1      -13.937630
    2      -13.851973
    3       -4.554224
    4       -4.526495
    5       -2.553988
    6       -2.537848
    7       -2.067556
    8       -1.224084
    9        9.627655
   10        9.654495
   11        9.873311
   12       12.629407
 
  0.2777778E+00  0.1111111E+00  0.0000000E+00  0.1543210E-02
    1      -13.161725
    2      -13.081481
    3       -5.946310
    4       -5.909765
    5       -3.055869
    6       -3.037100
    7       -1.176433
    8       -0.388493
    9        8.148554
   10        8.479599
   11       10.659785
   12       12.453428
 
  0.3333333E+00  0.1111111E+00  0.0000000E+00  0.1543210E-02
    1      -12.263375
    2      -12.189314
    3       -7.324112
    4       -7.279610
    5       -3.419443
    6       -3.399432
    7       -0.191334
    8        0.508038
    9        6.721739
   10        7.120749
   11       11.808885
   12       12.292526
 
  0.3888889E+00  0.1111111E+00  0.0000000E+00  0.1543210E-02
    1      -11.274230
    2      -11.209266
    3       -8.612905
    4       -8.563552
    5       -3.638978
    6       -3.618233
    7        0.772018
    8        1.301974
    9        5.556277
   10        5.950358
   11       12.159612
   12       12.320925
 
  0.4444444E+00  0.1111111E+00  0.0000000E+00  0.1543210E-02
    1      -10.522830
    2      -10.488705
    3       -9.441299
    4       -9.415311
    5       -3.710588
    6       -3.689591
    7        1.305272
    8        1.614663
    9        5.078044
   10        5.381618
   11       12.122704
   12       12.294488
 
  0.5000000E+00  0.1111111E+00  0.0000000E+00  0.1543210E-02
    1      -11.264904
    2      -11.200028
    3       -8.626689
    4       -8.577453
    5       -3.632480
    6       -3.611839
    7        0.782417
    8        1.310207
    9        5.545060
   10        5.936823
   11       12.159676
   12       12.322637
 
 -0.4444444E+00  0.1111111E+00  0.0000000E+00  0.1543210E-02
    1      -12.254987
    2      -12.180972
    3       -7.342068
    4       -7.297673
    5       -3.405966
    6       -3.386174
    7       -0.179368
    8        0.519516
    9        6.704689
   10        7.103088
   11       11.826562
   12       12.290985
 
 -0.3888889E+00  0.1111111E+00  0.0000000E+00  0.1543210E-02
    1      -13.154655
    2      -13.074452
    3       -5.969185
    4       -5.932824
    5       -3.034347
    6       -3.015937
    7       -1.165296
    8       -0.377278
    9        8.129924
   10        8.461451
   11       10.672065
   12       12.456344
 
 -0.3333333E+00  0.1111111E+00  0.0000000E+00  0.1543210E-02
    1      -13.931843
    2      -13.846223
    3       -4.584020
    4       -4.556589
    5       -2.522708
    6       -2.507077
    7       -2.057962
    8       -1.214249
    9        9.610023
   10        9.664346
   11        9.856775
   12       12.644476
 
 -0.2777778E+00  0.1111111E+00  0.0000000E+00  0.1543210E-02
    1      -14.575784
    2      -14.485781
    3       -3.269313
    4       -3.251589
    5       -2.814624
    6       -1.932685
    7       -1.879443
    8       -1.868293
    9        8.831642
   10       11.024498
   11       11.200521
   12       12.749153
 
 -0.2222222E+00  0.1111111E+00  0.0000000E+00  0.1543210E-02
    1      -15.080901
    2      -14.987428
    3       -3.415639
    4       -2.507040
    5       -2.129871
    6       -2.119173
    7       -1.138241
    8       -1.131023
    9        8.180422
   10       12.274327
   11       12.408255
   12       12.449460
 
 -0.1666667E+00  0.1111111E+00  0.0000000E+00  0.1543210E-02
    1      -15.443854
    2      -15.347945
    3       -3.850707
    4       -2.924300
    5       -1.229849
    6       -1.218391
    7       -0.435897
    8       -0.428035
    9        7.714046
   10       12.052948
   11       12.145147
   12       12.207641
 
 -0.1111111E+00  0.1111111E+00  0.0000000E+00  0.7716049E-03
    1      -15.662620
    2      -15.565220
    3       -4.114050
    4       -3.177401
    5       -0.575659
    6       -0.564662
    7        0.004064
    8        0.012047
    9        7.434183
   10       11.815717
   11       11.976587
   12       12.023821
 
  0.1666667E+00  0.1666667E+00  0.0000000E+00  0.7716049E-03
    1      -14.009226
    2      -13.923090
    3       -4.141899
    4       -4.126813
    5       -2.844036
    6       -2.832981
    7       -2.149451
    8       -1.300713
    9        9.564058
   10        9.859032
   11       10.050729
   12       13.486205
 
  0.2222222E+00  0.1666667E+00  0.0000000E+00  0.1543210E-02
    1      -13.303097
    2      -13.221797
    3       -5.260974
    4       -5.236507
    5       -3.601971
    6       -3.584746
    7       -1.329575
    8       -0.527068
    9        8.560755
   10        8.794083
   11       10.482227
   12       13.744707
 
  0.2777778E+00  0.1666667E+00  0.0000000E+00  0.1543210E-02
    1      -12.470003
    2      -12.394449
    3       -6.525429
    4       -6.489431
    5       -4.126242
    6       -4.103119
    7       -0.389098
    8        0.346006
    9        7.214552
   10        7.514086
   11       11.569130
   12       13.637528
 
  0.3333333E+00  0.1666667E+00  0.0000000E+00  0.1543210E-02
    1      -11.527585
    2      -11.459132
    3       -7.805501
    4       -7.760980
    5       -4.455645
    6       -4.430007
    7        0.609863
    8        1.232095
    9        5.954161
   10        6.296611
   11       12.800486
   12       13.503542
 
  0.3888889E+00  0.1666667E+00  0.0000000E+00  0.1543210E-02
    1      -10.558370
    2      -10.504933
    3       -8.948826
    4       -8.905848
    5       -4.614243
    6       -4.587570
    7        1.466139
    8        1.863434
    9        5.093003
   10        5.355133
   11       13.406864
   12       13.640956
 
  0.4444444E+00  0.1666667E+00  0.0000000E+00  0.1543210E-02
    1      -10.545552
    2      -10.492531
    3       -8.965002
    4       -8.922571
    5       -4.609350
    6       -4.582756
    7        1.477521
    8        1.870420
    9        5.084340
   10        5.341381
   11       13.408334
   12       13.646206
 
  0.5000000E+00  0.1666667E+00  0.0000000E+00  0.1543210E-02
    1      -11.513853
    2      -11.445467
    3       -7.831176
    4       -7.786863
    5       -4.440425
    6       -4.415037
    7        0.628231
    8        1.249052
    9        5.931676
   10        6.272572
   11       12.825612
   12       13.502998
 
 -0.4444444E+00  0.1666667E+00  0.0000000E+00  0.1543210E-02
    1      -12.458269
    2      -12.382771
    3       -6.558969
    4       -6.523261
    5       -4.099129
    6       -4.076429
    7       -0.371008
    8        0.364116
    9        7.188220
   10        7.488636
   11       11.587876
   12       13.644981
 
 -0.3888889E+00  0.1666667E+00  0.0000000E+00  0.1543210E-02
    1      -13.293392
    2      -13.212149
    3       -5.303728
    4       -5.279469
    5       -3.562004
    6       -3.545128
    7       -1.313568
    8       -0.510648
    9        8.535660
   10        8.771064
   11       10.497594
   12       13.774969
 
 -0.3333333E+00  0.1666667E+00  0.0000000E+00  0.1543210E-02
    1      -14.001436
    2      -13.915353
    3       -4.187180
    4       -4.171990
    5       -2.798823
    6       -2.787622
    7       -2.136102
    8       -1.286882
    9        9.576641
   10        9.839038
   11       10.032671
   12       13.478020
 
 -0.2777778E+00  0.1666667E+00  0.0000000E+00  0.1543210E-02
    1      -14.574376
    2      -14.484384
    3       -3.264042
    4       -3.246615
    5       -2.811945
    6       -1.929831
    7       -1.885661
    8       -1.874268
    9        8.833652
   10       11.026463
   11       11.203780
   12       12.716186
 
 -0.2222222E+00  0.1666667E+00  0.0000000E+00  0.1543210E-02
    1      -15.007416
    2      -14.914503
    3       -3.327516
    4       -2.458317
    5       -2.439271
    6       -2.422570
    7       -1.063673
    8       -1.052734
    9        8.273864
   10       12.039729
   11       12.048035
   12       12.138822
 
 -0.1666667E+00  0.1666667E+00  0.0000000E+00  0.7716049E-03
    1      -15.297840
    2      -15.202914
    3       -3.675167
    4       -2.755744
    5       -1.744364
    6       -1.727195
    7       -0.562999
    8       -0.553013
    9        7.900567
   10       11.862272
   11       11.938329
   12       12.190864
 
  0.2222222E+00  0.2222222E+00  0.0000000E+00  0.7716049E-03
    1      -12.539228
    2      -12.463337
    3       -6.051987
    4       -6.032235
    5       -4.569119
    6       -4.554247
    7       -0.456456
    8        0.289944
    9        7.420485
   10        7.654614
   11       11.480437
   12       14.845054
 
  0.2777778E+00  0.2222222E+00  0.0000000E+00  0.1543210E-02
    1      -11.658808
    2      -11.589015
    3       -7.060138
    4       -7.029199
    5       -5.221762
    6       -5.198980
    7        0.517500
    8        1.183072
    9        6.245918
   10        6.512272
   11       12.632970
   12       14.978037
 
  0.3333333E+00  0.2222222E+00  0.0000000E+00  0.1543210E-02
    1      -10.695325
    2      -10.634486
    3       -8.179356
    4       -8.138266
    5       -5.554691
    6       -5.525724
    7        1.501567
    8        2.025120
    9        5.189381
   10        5.455073
   11       13.901075
   12       14.861818
 
  0.3888889E+00  0.2222222E+00  0.0000000E+00  0.1543210E-02
    1       -9.960012
    2       -9.927976
    3       -8.957560
    4       -8.938068
    5       -5.651629
    6       -5.621318
    7        2.099496
    8        2.400264
    9        4.755596
   10        4.813588
   11       14.786729
   12       14.868982
 
  0.4444444E+00  0.2222222E+00  0.0000000E+00  0.1543210E-02
    1      -10.675292
    2      -10.614565
    3       -8.212234
    4       -8.171585
    5       -5.539715
    6       -5.510994
    7        1.526006
    8        2.046280
    9        5.164643
   10        5.426512
   11       13.934495
   12       14.861421
 
  0.5000000E+00  0.2222222E+00  0.0000000E+00  0.1543210E-02
    1      -11.641260
    2      -11.571514
    3       -7.104569
    4       -7.073880
    5       -5.191200
    6       -5.168640
    7        0.543814
    8        1.209347
    9        6.212673
   10        6.480482
   11       12.658878
   12       14.670543
 
 -0.4444444E+00  0.2222222E+00  0.0000000E+00  0.1543210E-02
    1      -12.524673
    2      -12.448844
    3       -6.099892
    4       -6.079970
    5       -4.531030
    6       -4.515793
    7       -0.432574
    8        0.314555
    9        7.388861
   10        7.625616
   11       11.501908
   12       14.433002
 
 -0.3888889E+00  0.2222222E+00  0.0000000E+00  0.1543210E-02
    1      -13.291307
    2      -13.210071
    3       -5.295378
    4       -5.271514
    5       -3.572681
    6       -3.555721
    7       -1.309242
    8       -0.505871
    9        8.536133
   10        8.770862
   11       10.500058
   12       13.712110
 
 -0.3333333E+00  0.2222222E+00  0.0000000E+00  0.1543210E-02
    1      -13.928394
    2      -13.842798
    3       -4.573726
    4       -4.546615
    5       -2.536487
    6       -2.520569
    7       -2.051146
    8       -1.206881
    9        9.612560
   10        9.668862
   11        9.858317
   12       12.584956
 
 -0.2777778E+00  0.2222222E+00  0.0000000E+00  0.1543210E-02
    1      -14.429234
    2      -14.340255
    3       -3.846306
    4       -3.819587
    5       -2.640784
    6       -1.767141
    7       -1.671875
    8       -1.658738
    9        9.017455
   10       10.595099
   11       10.832367
   12       11.838992
 
 -0.2222222E+00  0.2222222E+00  0.0000000E+00  0.7716049E-03
    1      -14.789703
    2      -14.698332
    3       -3.115066
    4       -3.090909
    5       -3.068185
    6       -2.174683
    7       -1.164211
    8       -1.152602
    9        8.552071
   10       11.434133
   11       11.628334
   12       11.650943
 
  0.2777778E+00  0.2777778E+00  0.0000000E+00  0.7716049E-03
    1      -10.749655
    2      -10.687519
    3       -7.680684
    4       -7.656436
    5       -6.094318
    6       -6.077332
    7        1.503548
    8        2.075688
    9        5.246177
   10        5.512148
   11       13.815570
   12       14.517365
 
  0.3333333E+00  0.2777778E+00  0.0000000E+00  0.1543210E-02
    1       -9.819030
    2       -9.770072
    3       -8.497469
    4       -8.467302
    5       -6.516665
    6       -6.493259
    7        2.444469
    8        2.849990
    9        4.380756
   10        4.609168
   11       14.439161
   12       14.709443
 
  0.3888889E+00  0.2777778E+00  0.0000000E+00  0.1543210E-02
    1       -9.792043
    2       -9.743508
    3       -8.534254
    4       -8.505354
    5       -6.505443
    6       -6.481990
    7        2.473542
    8        2.872309
    9        4.357343
   10        4.578352
   11       14.457333
   12       14.698805
 
  0.4444444E+00  0.2777778E+00  0.0000000E+00  0.1543210E-02
    1      -10.723820
    2      -10.661638
    3       -7.730892
    4       -7.706418
    5       -6.068616
    6       -6.050979
    7        1.540534
    8        2.113047
    9        5.204209
   10        5.473190
   11       13.850248
   12       14.545509
 
  0.5000000E+00  0.2777778E+00  0.0000000E+00  0.1543210E-02
    1      -11.637740
    2      -11.567959
    3       -7.098448
    4       -7.067992
    5       -5.201226
    6       -5.178661
    7        0.551570
    8        1.218577
    9        6.206855
   10        6.476161
   11       12.661489
   12       14.666638
 
 -0.4444444E+00  0.2777778E+00  0.0000000E+00  0.1543210E-02
    1      -12.453039
    2      -12.377536
    3       -6.548280
    4       -6.512821
    5       -4.116024
    6       -4.093123
    7       -0.359728
    8        0.376958
    9        7.184349
   10        7.484416
   11       11.592944
   12       13.562862
 
 -0.3888889E+00  0.2777778E+00  0.0000000E+00  0.1543210E-02
    1      -13.148328
    2      -13.068148
    3       -5.957691
    4       -5.921594
    5       -3.053084
    6       -3.034387
    7       -1.152266
    8       -0.362887
    9        8.129139
   10        8.458891
   11       10.679185
   12       12.381584
 
 -0.3333333E+00  0.2777778E+00  0.0000000E+00  0.1543210E-02
    1      -13.713206
    2      -13.629071
    3       -5.295161
    4       -5.260567
    5       -2.202008
    6       -2.187534
    7       -1.804510
    8       -0.976028
    9        9.040138
   10        9.372744
   11        9.938808
   12       11.602641
 
 -0.2777778E+00  0.2777778E+00  0.0000000E+00  0.7716049E-03
    1      -14.141421
    2      -14.054429
    3       -4.574007
    4       -4.542556
    5       -2.303411
    6       -1.722951
    7       -1.710428
    8       -1.447318
    9        9.384490
   10        9.887440
   11       10.187222
   12       11.402446
 
  0.3333333E+00  0.3333333E+00  0.0000000E+00  0.7716049E-03
    1       -9.045857
    2       -9.017185
    3       -8.969777
    4       -8.941717
    5       -6.939080
    6       -6.938349
    7        3.296426
    8        3.573508
    9        3.581667
   10        3.883035
   11       14.360043
   12       14.381527
 
  0.3888889E+00  0.3333333E+00  0.0000000E+00  0.1543210E-02
    1       -9.774548
    2       -9.724889
    3       -8.551658
    4       -8.520638
    5       -6.507246
    6       -6.483691
    7        2.498313
    8        2.903966
    9        4.323325
   10        4.558047
   11       14.460552
   12       14.694374
 
  0.4444444E+00  0.3333333E+00  0.0000000E+00  0.1543210E-02
    1      -10.662802
    2      -10.601686
    3       -8.214008
    4       -8.172909
    5       -5.551503
    6       -5.522658
    7        1.550038
    8        2.075640
    9        5.138808
   10        5.408267
   11       13.937803
   12       14.768841
 
  0.5000000E+00  0.3333333E+00  0.0000000E+00  0.1543210E-02
    1      -11.502784
    2      -11.434262
    3       -7.825408
    4       -7.781062
    5       -4.458762
    6       -4.433157
    7        0.651662
    8        1.276518
    9        5.914763
   10        6.257458
   11       12.829839
   12       13.414565
 
 -0.4444444E+00  0.3333333E+00  0.0000000E+00  0.1543210E-02
    1      -12.244177
    2      -12.170134
    3       -7.333513
    4       -7.289249
    5       -3.427014
    6       -3.406963
    7       -0.156589
    8        0.545322
    9        6.694560
   10        7.091719
   11       11.828364
   12       12.209467
 
 -0.3888889E+00  0.3333333E+00  0.0000000E+00  0.1543210E-02
    1      -12.866140
    2      -12.787973
    3       -6.734780
    4       -6.692485
    5       -2.620662
    6       -2.605287
    7       -0.846988
    8       -0.087469
    9        7.493662
   10        7.908697
   11       10.997550
   12       11.400225
 
 -0.3333333E+00  0.3333333E+00  0.0000000E+00  0.7716049E-03
    1      -13.357957
    2      -13.276138
    3       -6.043854
    4       -6.004636
    5       -2.191700
    6       -2.178564
    7       -1.400484
    8       -0.599658
    9        8.295120
   10        8.688222
   11       10.379929
   12       11.171534
 
  0.3888889E+00  0.3888889E+00  0.0000000E+00  0.7716049E-03
    1       -9.905390
    2       -9.873759
    3       -9.004474
    4       -8.985845
    5       -5.658806
    6       -5.628435
    7        2.156101
    8        2.453009
    9        4.708785
   10        4.758254
   11       14.694479
   12       14.880245
 
  0.4444444E+00  0.3888889E+00  0.0000000E+00  0.1543210E-02
    1      -10.514890
    2      -10.460722
    3       -8.981534
    4       -8.937857
    5       -4.625786
    6       -4.599020
    7        1.523899
    8        1.920142
    9        5.045645
   10        5.301891
   11       13.313886
   12       13.550065
 
  0.5000000E+00  0.3888889E+00  0.0000000E+00  0.1543210E-02
    1      -11.244245
    2      -11.178986
    3       -8.628520
    4       -8.578940
    5       -3.653553
    6       -3.632693
    7        0.821718
    8        1.354318
    9        5.517777
   10        5.907966
   11       12.069920
   12       12.233046
 
 -0.4444444E+00  0.3888889E+00  0.0000000E+00  0.1543210E-02
    1      -11.902837
    2      -11.831515
    3       -8.110724
    4       -8.061569
    5       -2.908514
    6       -2.892589
    7        0.162670
    8        0.799943
    9        6.109425
   10        6.561871
   11       11.224762
   12       11.356222
 
 -0.3888889E+00  0.3888889E+00  0.0000000E+00  0.7716049E-03
    1      -12.448724
    2      -12.373258
    3       -7.469556
    4       -7.422980
    5       -2.542446
    6       -2.528712
    7       -0.403026
    8        0.307546
    9        6.787259
   10        7.245413
   11       10.960854
   12       11.071105
 
  0.4444444E+00  0.4444444E+00  0.0000000E+00  0.7716049E-03
    1      -10.467458
    2      -10.433766
    3       -9.478435
    4       -9.453187
    5       -3.729537
    6       -3.708369
    7        1.365769
    8        1.671361
    9        5.038087
   10        5.329495
   11       12.030733
   12       12.202091
 
  0.5000000E+00  0.4444444E+00  0.0000000E+00  0.1543210E-02
    1      -10.896666
    2      -10.840134
    3       -9.319925
    4       -9.272845
    5       -3.054871
    6       -3.038598
    7        1.007132
    8        1.403513
    9        5.202412
   10        5.586721
   11       11.147962
   12       11.292091
 
 -0.4444444E+00  0.4444444E+00  0.0000000E+00  0.7716049E-03
    1      -11.440954
    2      -11.374397
    3       -8.794268
    4       -8.743019
    5       -2.758542
    6       -2.744375
    7        0.569118
    8        1.103547
    9        5.576958
   10        6.025746
   11       10.853741
   12       10.988084
 
  0.5000000E+00  0.5000000E+00  0.0000000E+00  0.3858025E-03
    1      -10.655039
    2      -10.620727
    3       -9.659167
    4       -9.632729
    5       -2.831336
    6       -2.817019
    7        1.100169
    8        1.408448
    9        5.086542
   10        5.453996
   11       10.814177
   12       10.952893
 