 running on    6 total cores
 distrk:  each k-point on    6 cores,    1 groups
 distr:  one band on    3 cores,    2 groups
 using from now: INCAR     
 vasp.5.3.5 31Mar14 (build Nov 02 2014 15:17:37) complex                        
  
 POSCAR found type information on POSCAR  C 
 POSCAR found :  1 types and       4 ions
 scaLAPACK will be used
 LDA part: xc-table for Pade appr. of Perdew
 POSCAR, INCAR and KPOINTS ok, starting setup
 WARNING: small aliasing (wrap around) errors must be expected
 FFT: planning ...
 WAVECAR not read
 WARNING: random wavefunctions but no delay for mixing, default for NELMDL
 entering main loop
       N       E                     dE             d eps       ncg     rms          rms(c)
DAV:   1     0.568290240827E+02    0.56829E+02   -0.90214E+03 10936   0.138E+03
DAV:   2    -0.350064829938E+02   -0.91836E+02   -0.84416E+02 15340   0.244E+02
DAV:   3    -0.391608014814E+02   -0.41543E+01   -0.41217E+01 13888   0.526E+01
DAV:   4    -0.392131405163E+02   -0.52339E-01   -0.52257E-01 13584   0.683E+00
DAV:   5    -0.392142729515E+02   -0.11324E-02   -0.11316E-02 13560   0.975E-01    0.782E+00
DAV:   6    -0.374001634901E+02    0.18141E+01   -0.17963E+00 12712   0.938E+00    0.410E+00
DAV:   7    -0.368254242294E+02    0.57474E+00   -0.18643E+00 13044   0.966E+00    0.685E-01
DAV:   8    -0.368337641446E+02   -0.83399E-02   -0.49938E-02 12620   0.154E+00    0.888E-02
DAV:   9    -0.368339446386E+02   -0.18049E-03   -0.12239E-03 13852   0.295E-01    0.391E-02
DAV:  10    -0.368340798541E+02   -0.13522E-03   -0.15023E-04 13444   0.109E-01    0.546E-03
DAV:  11    -0.368340820773E+02   -0.22231E-05   -0.35678E-06 13760   0.161E-02    0.173E-03
DAV:  12    -0.368340822871E+02   -0.20982E-06   -0.83603E-07  9808   0.782E-03
   1 F= -.36834082E+02 E0= -.36834082E+02  d E =-.368341E+02
 curvature:   0.00 expect dE= 0.000E+00 dE for cont linesearch  0.000E+00
 trial: gam= 0.00000 g(F)=  0.189E-05 g(S)=  0.661E-02 ort = 0.000E+00 (trialstep = 0.100E+01)
 search vector abs. value=  0.661E-02
 bond charge predicted
       N       E                     dE             d eps       ncg     rms          rms(c)
DAV:   1    -0.368484517446E+02   -0.14370E-01   -0.32357E-01 11284   0.473E+00    0.399E-01
DAV:   2    -0.368418405633E+02    0.66112E-02   -0.90630E-03 11524   0.734E-01    0.209E-01
DAV:   3    -0.368392561934E+02    0.25844E-02   -0.81816E-03 12664   0.617E-01    0.280E-02
DAV:   4    -0.368392600027E+02   -0.38092E-05   -0.18238E-04 12688   0.102E-01    0.916E-03
DAV:   5    -0.368392557072E+02    0.42955E-05   -0.16074E-05 13488   0.337E-02    0.229E-03
DAV:   6    -0.368392563791E+02   -0.67193E-06   -0.68897E-07  9968   0.680E-03
   2 F= -.36839256E+02 E0= -.36839256E+02  d E =-.517409E-02
 trial-energy change:   -0.005174  1 .order   -0.005228   -0.006611   -0.003846
 step:   3.2555(harm=  2.3906)  dis= 0.00060  next Energy=   -36.842970 (dE=-0.889E-02)
 bond charge predicted
       N       E                     dE             d eps       ncg     rms          rms(c)
DAV:   1    -0.368865941171E+02   -0.47338E-01   -0.15972E+00 11376   0.104E+01    0.882E-01
DAV:   2    -0.368538588828E+02    0.32735E-01   -0.44476E-02 11320   0.163E+00    0.465E-01
DAV:   3    -0.368408794783E+02    0.12979E-01   -0.41632E-02 12308   0.138E+00    0.655E-02
DAV:   4    -0.368409081855E+02   -0.28707E-04   -0.96396E-04 12620   0.231E-01    0.216E-02
DAV:   5    -0.368408896912E+02    0.18494E-04   -0.87274E-05 13364   0.797E-02    0.514E-03
DAV:   6    -0.368408930808E+02   -0.33895E-05   -0.38879E-06 13332   0.158E-02    0.194E-03
DAV:   7    -0.368408931973E+02   -0.11655E-06   -0.23515E-07  8832   0.431E-03
   3 F= -.36840893E+02 E0= -.36840893E+02  d E =-.681091E-02
 curvature:  -0.73 expect dE=-0.475E-01 dE for cont linesearch -0.505E-03
 trial: gam= 0.00000 g(F)=  0.149E-03 g(S)=  0.646E-01 ort =-0.213E-02 (trialstep = 0.148E+00)
 search vector abs. value=  0.648E-01
 bond charge predicted
       N       E                     dE             d eps       ncg     rms          rms(c)
DAV:   1    -0.368489542972E+02   -0.80612E-02   -0.49194E-02 11588   0.218E+00    0.125E-01
DAV:   2    -0.368485680437E+02    0.38625E-03   -0.82494E-04 14064   0.240E-01    0.769E-02
DAV:   3    -0.368483362876E+02    0.23176E-03   -0.45445E-04 13292   0.157E-01    0.913E-03
DAV:   4    -0.368483359562E+02    0.33139E-06   -0.15797E-05 13356   0.296E-02    0.477E-03
DAV:   5    -0.368483364606E+02   -0.50441E-06   -0.17047E-06 12352   0.111E-02
   4 F= -.36848336E+02 E0= -.36848336E+02  d E =-.744326E-02
 trial-energy change:   -0.007443  1 .order   -0.007418   -0.009593   -0.005243
 step:   0.3144(harm=  0.3267)  dis= 0.00039  next Energy=   -36.851315 (dE=-0.104E-01)
 bond charge predicted
       N       E                     dE             d eps       ncg     rms          rms(c)
DAV:   1    -0.368522473799E+02   -0.39114E-02   -0.62282E-02 11620   0.246E+00    0.140E-01
DAV:   2    -0.368517545114E+02    0.49287E-03   -0.10507E-03 14068   0.271E-01    0.864E-02
DAV:   3    -0.368514593313E+02    0.29518E-03   -0.58228E-04 13268   0.178E-01    0.104E-02
DAV:   4    -0.368514590113E+02    0.32000E-06   -0.20339E-05 13312   0.335E-02    0.549E-03
DAV:   5    -0.368514596547E+02   -0.64340E-06   -0.23425E-06 12852   0.129E-02
   5 F= -.36851460E+02 E0= -.36851460E+02  d E =-.105665E-01
 curvature:  -0.16 expect dE=-0.502E-03 dE for cont linesearch -0.843E-05
 trial: gam= 0.01941 g(F)=  0.110E-04 g(S)=  0.308E-02 ort = 0.183E-02 (trialstep = 0.181E+00)
 search vector abs. value=  0.319E-02
 bond charge predicted
       N       E                     dE             d eps       ncg     rms          rms(c)
DAV:   1    -0.368522042403E+02   -0.74523E-03   -0.66342E-03 10996   0.671E-01    0.532E-02
DAV:   2    -0.368520760081E+02    0.12823E-03   -0.16930E-04 11704   0.101E-01    0.287E-02
DAV:   3    -0.368520224679E+02    0.53540E-04   -0.17201E-04 12972   0.898E-02    0.502E-03
DAV:   4    -0.368520223483E+02    0.11960E-06   -0.40780E-06 12596   0.154E-02
   6 F= -.36852022E+02 E0= -.36852022E+02  d E =-.562694E-03
 ZBRENT: can't locate minimum, use default step
 trial-energy change:   -0.000563  1 .order   -0.000562   -0.000567   -0.000558
 step:   0.7256(harm= 11.2855)  dis= 0.00026  next Energy=   -36.869093 (dE=-0.176E-01)
 bond charge predicted
       N       E                     dE             d eps       ncg     rms          rms(c)
DAV:   1    -0.368552801905E+02   -0.32577E-02   -0.59721E-02 10968   0.201E+00    0.160E-01
DAV:   2    -0.368541188839E+02    0.11613E-02   -0.15272E-03 11492   0.304E-01    0.867E-02
DAV:   3    -0.368536347384E+02    0.48415E-03   -0.15585E-03 12908   0.270E-01    0.151E-02
DAV:   4    -0.368536343758E+02    0.36259E-06   -0.36893E-05 12672   0.463E-02    0.649E-03
DAV:   5    -0.368536339164E+02    0.45935E-06   -0.31643E-06 13380   0.170E-02
   7 F= -.36853634E+02 E0= -.36853634E+02  d E =-.217426E-02
 curvature:  -0.55 expect dE=-0.149E-02 dE for cont linesearch -0.144E-02
 ZBRENT: increasing intervall
 opt :   1.8141  next Energy=   -36.856568 (dE=-0.511E-02)
 bond charge predicted
       N       E                     dE             d eps       ncg     rms          rms(c)
DAV:   1    -0.368631827035E+02   -0.95483E-02   -0.23752E-01 11000   0.400E+00    0.320E-01
DAV:   2    -0.368585448136E+02    0.46379E-02   -0.60835E-03 11452   0.606E-01    0.173E-01
DAV:   3    -0.368566039963E+02    0.19408E-02   -0.62758E-03 12848   0.541E-01    0.305E-02
DAV:   4    -0.368566033040E+02    0.69234E-06   -0.14644E-04 12656   0.923E-02    0.140E-02
DAV:   5    -0.368566020048E+02    0.12992E-05   -0.12938E-05 13396   0.350E-02    0.272E-03
DAV:   6    -0.368566027372E+02   -0.73246E-06   -0.16309E-06 12128   0.104E-02
   8 F= -.36856603E+02 E0= -.36856603E+02  d E =-.514308E-02
 curvature:  -1.12 expect dE=-0.328E-02 dE for cont linesearch -0.251E-02
 ZBRENT: increasing intervall
 opt :   3.9910  next Energy=   -36.861934 (dE=-0.105E-01)
 bond charge predicted
       N       E                     dE             d eps       ncg     rms          rms(c)
DAV:   1    -0.368875055322E+02   -0.30904E-01   -0.92960E-01 11040   0.789E+00    0.631E-01
DAV:   2    -0.368692731811E+02    0.18232E-01   -0.23809E-02 11412   0.120E+00    0.343E-01
DAV:   3    -0.368615650610E+02    0.77081E-02   -0.25056E-02 12816   0.108E+00    0.622E-02
DAV:   4    -0.368615638095E+02    0.12514E-05   -0.57707E-04 12648   0.183E-01    0.319E-02
DAV:   5    -0.368615605515E+02    0.32581E-05   -0.56771E-05 13224   0.740E-02    0.597E-03
DAV:   6    -0.368615642212E+02   -0.36698E-05   -0.84961E-06 13340   0.236E-02    0.456E-03
DAV:   7    -0.368615634761E+02    0.74511E-06   -0.15584E-06  8988   0.964E-03
   9 F= -.36861563E+02 E0= -.36861563E+02  d E =-.101038E-01
 curvature:  -2.39 expect dE=-0.132E-01 dE for cont linesearch -0.331E-02
 ZBRENT: increasing intervall
 opt :   8.3447  next Energy=   -36.868263 (dE=-0.168E-01)
 bond charge predicted
       N       E                     dE             d eps       ncg     rms          rms(c)
DAV:   1    -0.369693489790E+02   -0.10778E+00   -0.35784E+00 11072   0.154E+01    0.123E+00
DAV:   2    -0.368986718514E+02    0.70677E-01   -0.92427E-02 11376   0.237E+00    0.675E-01
DAV:   3    -0.368680934713E+02    0.30578E-01   -0.10103E-01 12772   0.216E+00    0.131E-01
DAV:   4    -0.368680995643E+02   -0.60931E-05   -0.22922E-03 12700   0.362E-01    0.815E-02
DAV:   5    -0.368680860616E+02    0.13503E-04   -0.30912E-04 12992   0.170E-01    0.146E-02
DAV:   6    -0.368681070666E+02   -0.21005E-04   -0.50819E-05 13356   0.593E-02    0.123E-02
DAV:   7    -0.368681028783E+02    0.41883E-05   -0.73262E-06 12900   0.202E-02    0.500E-03
DAV:   8    -0.368681018727E+02    0.10056E-05   -0.35050E-06 13020   0.146E-02    0.949E-04
DAV:   9    -0.368681020601E+02   -0.18740E-06   -0.46515E-08  7432   0.211E-03
  10 F= -.36868102E+02 E0= -.36868102E+02  d E =-.166424E-01
 curvature:  -4.83 expect dE=-0.987E-01 dE for cont linesearch -0.183E-02
 ZBRENT: increasing intervall
 opt :  17.0523  next Energy=   -36.868946 (dE=-0.175E-01)
 bond charge predicted
       N       E                     dE             d eps       ncg     rms          rms(c)
DAV:   1    -0.372538257418E+02   -0.38572E+00   -0.13273E+01 11168   0.294E+01    0.235E+00
DAV:   2    -0.369903626768E+02    0.26346E+00   -0.35272E-01 11252   0.465E+00    0.131E+00
DAV:   3    -0.368700340861E+02    0.12033E+00   -0.41081E-01 12732   0.432E+00    0.287E-01
DAV:   4    -0.368701462866E+02   -0.11220E-03   -0.97701E-03 12684   0.725E-01    0.215E-01
DAV:   5    -0.368699795830E+02    0.16670E-03   -0.20510E-03 12424   0.412E-01    0.405E-02
DAV:   6    -0.368701355920E+02   -0.15601E-03   -0.35409E-04 13672   0.167E-01    0.406E-02
DAV:   7    -0.368701052861E+02    0.30306E-04   -0.34094E-05 13048   0.436E-02    0.220E-02
DAV:   8    -0.368700885257E+02    0.16760E-04   -0.52796E-05 12920   0.551E-02    0.393E-03
DAV:   9    -0.368700892913E+02   -0.76562E-06   -0.72238E-07  9112   0.856E-03
  11 F= -.36870089E+02 E0= -.36870089E+02  d E =-.186296E-01
 curvature:  -2.22 expect dE=-0.203E+00 dE for cont linesearch -0.182E-03
 trial: gam=29.72154 g(F)=  0.765E-01 g(S)=  0.147E-01 ort =-0.511E-03 (trialstep = 0.394E-02)
 search vector abs. value=  0.287E+01
 bond charge predicted
       N       E                     dE             d eps       ncg     rms          rms(c)
DAV:   1    -0.368704732300E+02   -0.38470E-03   -0.29259E-03 11156   0.445E-01    0.351E-02
DAV:   2    -0.368704170098E+02    0.56220E-04   -0.73954E-05 11820   0.672E-02    0.191E-02
DAV:   3    -0.368703926166E+02    0.24393E-04   -0.77381E-05 12832   0.601E-02    0.353E-03
DAV:   4    -0.368703925629E+02    0.53623E-07   -0.18238E-06 11352   0.106E-02
  12 F= -.36870393E+02 E0= -.36870393E+02  d E =-.303272E-03
 ZBRENT: can't locate minimum, use default step
 trial-energy change:   -0.000303  1 .order   -0.000301   -0.000300   -0.000302
 step:   0.0158(harm=  0.0158)  dis= 0.00032  next Energy=   -36.871305 (dE=-0.122E-02)
 bond charge predicted
       N       E                     dE             d eps       ncg     rms          rms(c)
DAV:   1    -0.368719890299E+02   -0.15964E-02   -0.25758E-02 11092   0.132E+00    0.104E-01
DAV:   2    -0.368714873200E+02    0.50171E-03   -0.65555E-04 11488   0.200E-01    0.567E-02
DAV:   3    -0.368712697136E+02    0.21761E-03   -0.69115E-04 12816   0.180E-01    0.106E-02
DAV:   4    -0.368712698596E+02   -0.14603E-06   -0.16435E-05 12640   0.317E-02    0.510E-03
DAV:   5    -0.368712697188E+02    0.14081E-06   -0.16131E-06  9316   0.130E-02
  13 F= -.36871270E+02 E0= -.36871270E+02  d E =-.118043E-02
 curvature:  -0.45 expect dE=-0.364E-01 dE for cont linesearch -0.813E-03
 trial: gam=-0.05330 g(F)=  0.675E-01 g(S)=  0.136E-01 ort = 0.722E-01 (trialstep = 0.630E-02)
 search vector abs. value=  0.817E-01
 bond charge predicted
       N       E                     dE             d eps       ncg     rms          rms(c)
DAV:   1    -0.368717504750E+02   -0.48062E-03   -0.42991E-04 12580   0.194E-01    0.715E-03
DAV:   2    -0.368717498431E+02    0.63187E-06   -0.89645E-06 13528   0.278E-02
  14 F= -.36871750E+02 E0= -.36871750E+02  d E =-.480124E-03
 ZBRENT: can't locate minimum, use default step
 trial-energy change:   -0.000480  1 .order   -0.000481   -0.000487   -0.000474
 step:   0.0252(harm=  0.2215)  dis= 0.00060  next Energy=   -36.879833 (dE=-0.856E-02)
 bond charge predicted
       N       E                     dE             d eps       ncg     rms          rms(c)
DAV:   1    -0.368731023353E+02   -0.13519E-02   -0.37410E-03 12480   0.571E-01    0.210E-02
DAV:   2    -0.368730962714E+02    0.60640E-05   -0.73943E-05 13732   0.799E-02    0.136E-02
DAV:   3    -0.368730902355E+02    0.60359E-05   -0.21686E-05 12960   0.453E-02    0.275E-03
DAV:   4    -0.368730901284E+02    0.10711E-06   -0.24296E-06 11108   0.145E-02
  15 F= -.36873090E+02 E0= -.36873090E+02  d E =-.182041E-02
 curvature:  -0.02 expect dE=-0.120E-02 dE for cont linesearch -0.108E-02
 ZBRENT: increasing intervall
 opt :   0.0630  next Energy=   -36.875321 (dE=-0.405E-02)
 bond charge predicted
       N       E                     dE             d eps       ncg     rms          rms(c)
DAV:   1    -0.368753923134E+02   -0.23021E-02   -0.15506E-02 12420   0.116E+00    0.434E-02
DAV:   2    -0.368753663809E+02    0.25932E-04   -0.32402E-04 13700   0.167E-01    0.282E-02
DAV:   3    -0.368753402107E+02    0.26170E-04   -0.94517E-05 12880   0.947E-02    0.577E-03
DAV:   4    -0.368753396802E+02    0.53052E-06   -0.10651E-05 12880   0.303E-02    0.174E-03
DAV:   5    -0.368753396893E+02   -0.91118E-08   -0.30880E-07  7820   0.498E-03
  16 F= -.36875340E+02 E0= -.36875340E+02  d E =-.406997E-02
 curvature:  -0.04 expect dE=-0.150E-02 dE for cont linesearch -0.134E-02
 ZBRENT: increasing intervall
 opt :   0.1387  next Energy=   -36.878117 (dE=-0.685E-02)
 bond charge predicted
       N       E                     dE             d eps       ncg     rms          rms(c)
DAV:   1    -0.368783643548E+02   -0.30247E-02   -0.61955E-02 12388   0.232E+00    0.873E-02
DAV:   2    -0.368782566467E+02    0.10771E-03   -0.12920E-03 13672   0.333E-01    0.565E-02
DAV:   3    -0.368781508211E+02    0.10583E-03   -0.37663E-04 12884   0.189E-01    0.113E-02
DAV:   4    -0.368781488186E+02    0.20025E-05   -0.42294E-05 12928   0.602E-02    0.350E-03
DAV:   5    -0.368781488919E+02   -0.73283E-07   -0.13399E-06 11116   0.982E-03
  17 F= -.36878149E+02 E0= -.36878149E+02  d E =-.687917E-02
 curvature:  -0.08 expect dE=-0.657E-03 dE for cont linesearch -0.524E-03
 trial: gam=-0.20339 g(F)=  0.476E-02 g(S)=  0.304E-02 ort = 0.225E-01 (trialstep = 0.328E-01)
 search vector abs. value=  0.202E-02
 bond charge predicted
       N       E                     dE             d eps       ncg     rms          rms(c)
DAV:   1    -0.368782545204E+02   -0.10570E-03   -0.17623E-04 12588   0.122E-01    0.726E-03
DAV:   2    -0.368782530882E+02    0.14322E-05   -0.52549E-06 13396   0.206E-02    0.441E-03
DAV:   3    -0.368782522567E+02    0.83144E-06   -0.27831E-06 11504   0.144E-02
  18 F= -.36878252E+02 E0= -.36878252E+02  d E =-.103365E-03
 ZBRENT: can't locate minimum, use default step
 trial-energy change:   -0.000103  1 .order   -0.000103   -0.000106   -0.000100
 step:   0.1311(harm=  0.6734)  dis= 0.00023  next Energy=   -36.879233 (dE=-0.108E-02)
 bond charge predicted
       N       E                     dE             d eps       ncg     rms          rms(c)
DAV:   1    -0.368785539582E+02   -0.30087E-03   -0.15728E-03 12364   0.364E-01    0.217E-02
DAV:   2    -0.368785403079E+02    0.13650E-04   -0.45653E-05 13476   0.608E-02    0.131E-02
DAV:   3    -0.368785325727E+02    0.77352E-05   -0.25842E-05 13084   0.432E-02    0.254E-03
DAV:   4    -0.368785324888E+02    0.83935E-07   -0.16171E-06  9980   0.114E-02
  19 F= -.36878532E+02 E0= -.36878532E+02  d E =-.383597E-03
 curvature:  -0.06 expect dE=-0.298E-03 dE for cont linesearch -0.204E-03
 trial: gam=-0.15975 g(F)=  0.300E-02 g(S)=  0.199E-02 ort = 0.262E-02 (trialstep = 0.251E-01)
 search vector abs. value=  0.420E-02
 reached required accuracy - stopping structural energy minimisation
