mesh: [     6,     6,     2 ]
nqpoint: 12     
natom:   4      
reciprocal_lattice:
- [   0.40630587,   0.23458080,   0.00000000 ] # a*
- [   0.00000000,   0.46916160,   0.00000000 ] # b*
- [   0.00000000,   0.00000000,   0.14987785 ] # c*
phonon:
- q-position: [    0.0833333,    0.0833333,    0.2500000 ]
  weight: 4    
  band:
  - # 1
    frequency:     5.6198994409
  - # 2
    frequency:     6.5255533459
  - # 3
    frequency:     7.9548878515
  - # 4
    frequency:     7.9741874358
  - # 5
    frequency:    14.6672962146
  - # 6
    frequency:    14.6983703476
  - # 7
    frequency:    24.8736492463
  - # 8
    frequency:    25.0077433211
  - # 9
    frequency:    45.1551293982
  - # 10
    frequency:    45.1940550522
  - # 11
    frequency:    45.7381593485
  - # 12
    frequency:    45.7765575482

- q-position: [    0.2500000,    0.0833333,    0.2500000 ]
  weight: 8    
  band:
  - # 1
    frequency:    10.5282936436
  - # 2
    frequency:    10.9951540025
  - # 3
    frequency:    15.6079540642
  - # 4
    frequency:    15.6674210534
  - # 5
    frequency:    21.9495771890
  - # 6
    frequency:    22.0465584731
  - # 7
    frequency:    28.1216186541
  - # 8
    frequency:    28.1917850031
  - # 9
    frequency:    43.7725998835
  - # 10
    frequency:    43.7928012905
  - # 11
    frequency:    45.0702028270
  - # 12
    frequency:    45.0946194069

- q-position: [    0.4166667,    0.0833333,    0.2500000 ]
  weight: 8    
  band:
  - # 1
    frequency:    14.1482830260
  - # 2
    frequency:    14.3725072406
  - # 3
    frequency:    18.7532253982
  - # 4
    frequency:    18.8223271018
  - # 5
    frequency:    19.8971502407
  - # 6
    frequency:    19.9267272956
  - # 7
    frequency:    38.1853270681
  - # 8
    frequency:    38.2449925646
  - # 9
    frequency:    41.4123187015
  - # 10
    frequency:    41.4428184853
  - # 11
    frequency:    42.8089624054
  - # 12
    frequency:    42.8215121137

- q-position: [   -0.4166667,    0.0833333,    0.2500000 ]
  weight: 8    
  band:
  - # 1
    frequency:    12.1237394067
  - # 2
    frequency:    12.4573282172
  - # 3
    frequency:    18.3755961227
  - # 4
    frequency:    18.3943567082
  - # 5
    frequency:    20.4901476977
  - # 6
    frequency:    20.5545051417
  - # 7
    frequency:    33.7259569874
  - # 8
    frequency:    33.7794600660
  - # 9
    frequency:    42.9321423816
  - # 10
    frequency:    42.9531400016
  - # 11
    frequency:    43.9275521964
  - # 12
    frequency:    43.9667672989

- q-position: [   -0.2500000,    0.0833333,    0.2500000 ]
  weight: 8    
  band:
  - # 1
    frequency:     7.4469931409
  - # 2
    frequency:     8.1163832172
  - # 3
    frequency:    11.9697330407
  - # 4
    frequency:    12.0209453163
  - # 5
    frequency:    21.6114571364
  - # 6
    frequency:    21.6403479749
  - # 7
    frequency:    23.8395422363
  - # 8
    frequency:    23.9485887858
  - # 9
    frequency:    44.5540863796
  - # 10
    frequency:    44.5935142540
  - # 11
    frequency:    45.6038818430
  - # 12
    frequency:    45.6340836476

- q-position: [   -0.0833333,    0.0833333,    0.2500000 ]
  weight: 4    
  band:
  - # 1
    frequency:     3.0599750503
  - # 2
    frequency:     4.4889316748
  - # 3
    frequency:     4.5044000431
  - # 4
    frequency:     4.5544131706
  - # 5
    frequency:     8.6504944223
  - # 6
    frequency:     8.7146308445
  - # 7
    frequency:    25.6254777069
  - # 8
    frequency:    25.7630136027
  - # 9
    frequency:    45.4882435861
  - # 10
    frequency:    45.5362738840
  - # 11
    frequency:    45.7199781522
  - # 12
    frequency:    45.7721421365

- q-position: [    0.2500000,    0.2500000,    0.2500000 ]
  weight: 4    
  band:
  - # 1
    frequency:    14.1260137660
  - # 2
    frequency:    14.3950608696
  - # 3
    frequency:    18.7713409813
  - # 4
    frequency:    18.8036823805
  - # 5
    frequency:    24.1169362671
  - # 6
    frequency:    24.1622463168
  - # 7
    frequency:    33.9818923042
  - # 8
    frequency:    34.0400977978
  - # 9
    frequency:    41.8372500970
  - # 10
    frequency:    41.8492649700
  - # 11
    frequency:    43.7662538585
  - # 12
    frequency:    43.7768125859

- q-position: [   -0.5833333,    0.2500000,    0.2500000 ]
  weight: 8    
  band:
  - # 1
    frequency:    14.7947820941
  - # 2
    frequency:    14.9559573934
  - # 3
    frequency:    17.9570153839
  - # 4
    frequency:    18.0113564550
  - # 5
    frequency:    26.7445380252
  - # 6
    frequency:    26.7644834388
  - # 7
    frequency:    36.4449543139
  - # 8
    frequency:    36.4632230563
  - # 9
    frequency:    39.3195029424
  - # 10
    frequency:    39.3404438058
  - # 11
    frequency:    43.8924978141
  - # 12
    frequency:    43.9053929569

- q-position: [   -0.4166667,    0.2500000,    0.2500000 ]
  weight: 8    
  band:
  - # 1
    frequency:    11.3376161865
  - # 2
    frequency:    11.7019821110
  - # 3
    frequency:    19.9332974062
  - # 4
    frequency:    19.9522094023
  - # 5
    frequency:    21.0416212170
  - # 6
    frequency:    21.0902223661
  - # 7
    frequency:    31.3408080609
  - # 8
    frequency:    31.3770687756
  - # 9
    frequency:    43.5285647654
  - # 10
    frequency:    43.5482768239
  - # 11
    frequency:    43.9623280078
  - # 12
    frequency:    44.0100645964

- q-position: [   -0.2500000,    0.2500000,    0.2500000 ]
  weight: 4    
  band:
  - # 1
    frequency:     7.9563452607
  - # 2
    frequency:     8.5639901274
  - # 3
    frequency:    12.6515378679
  - # 4
    frequency:    12.6928729582
  - # 5
    frequency:    23.4380528063
  - # 6
    frequency:    23.5346836749
  - # 7
    frequency:    24.4975640198
  - # 8
    frequency:    24.5570109966
  - # 9
    frequency:    44.1558721960
  - # 10
    frequency:    44.1856074672
  - # 11
    frequency:    45.5644534150
  - # 12
    frequency:    45.6205100602

- q-position: [   -0.5833333,    0.4166667,    0.2500000 ]
  weight: 4    
  band:
  - # 1
    frequency:    14.5230023043
  - # 2
    frequency:    14.6895184024
  - # 3
    frequency:    18.3060111405
  - # 4
    frequency:    18.3342267630
  - # 5
    frequency:    23.4236697056
  - # 6
    frequency:    23.4326268530
  - # 7
    frequency:    38.7307040578
  - # 8
    frequency:    38.7434740853
  - # 9
    frequency:    39.2646859682
  - # 10
    frequency:    39.3037543514
  - # 11
    frequency:    43.4117098657
  - # 12
    frequency:    43.4163245658

- q-position: [   -0.4166667,    0.4166667,    0.2500000 ]
  weight: 4    
  band:
  - # 1
    frequency:    12.8885825047
  - # 2
    frequency:    13.1765677958
  - # 3
    frequency:    17.9693949554
  - # 4
    frequency:    17.9872516532
  - # 5
    frequency:    19.8342886340
  - # 6
    frequency:    19.9152704171
  - # 7
    frequency:    36.3722484934
  - # 8
    frequency:    36.4298742759
  - # 9
    frequency:    42.5183521992
  - # 10
    frequency:    42.5286068481
  - # 11
    frequency:    43.1825896784
  - # 12
    frequency:    43.2434336750

