graphite                                
           1
     2.464945    0.000000    0.000000
    -1.232472    2.134705    0.000000
     0.000000    0.000000    6.716226
   C 
   4
graphite                                
           1
     2.470114   -0.000170   -0.000000
    -1.235204    2.139096   -0.000000
    -0.000000   -0.000000    6.772911
   C 
   4
Direct configuration=     1
   0.99999859  0.00000146  0.25000000
   0.00000146  0.99999859  0.75000000
   0.33333164  0.66666834  0.25000000
   0.66666834  0.33333164  0.75000000
graphite                                
           1
     2.481773   -0.000555   -0.000000
    -1.241367    2.149001   -0.000000
    -0.000000   -0.000000    6.900764
   C 
   4
Direct configuration=     2
   0.00000028 -0.00000024  0.25000000
  -0.00000024  0.00000028  0.75000000
   0.33328165  0.66671833  0.25000000
   0.66671833  0.33328165  0.75000000
graphite                                
           1
     2.474630   -0.000419    0.000000
    -1.237678    2.142883   -0.000000
    -0.000000   -0.000000    6.907248
   C 
   4
Direct configuration=     3
   0.00000410 -0.00000405  0.25000000
  -0.00000405  0.00000410  0.75000000
   0.33316914  0.66683085  0.25000000
   0.66683085  0.33316914  0.75000000
graphite                                
           1
     2.466612   -0.000268    0.000000
    -1.233538    2.136015   -0.000000
    -0.000000   -0.000000    6.914526
   C 
   4
Direct configuration=     4
  -0.00004507  0.00004512  0.25000000
   0.00004512 -0.00004507  0.75000000
   0.33321223  0.66678775  0.25000000
   0.66678775  0.33321223  0.75000000
graphite                                
           1
     2.466591   -0.000197    0.000000
    -1.233466    2.136031   -0.000000
    -0.000000   -0.000000    6.922282
   C 
   4
Direct configuration=     5
  -0.00010043  0.00010047  0.25000000
   0.00010047 -0.00010043  0.75000000
   0.33326075  0.66673923  0.25000000
   0.66673923  0.33326075  0.75000000
graphite                                
           1
     2.466527    0.000014    0.000000
    -1.233252    2.136082   -0.000000
    -0.000000   -0.000000    6.945548
   C 
   4
Direct configuration=     6
  -0.00009025  0.00009030  0.25000000
   0.00009030 -0.00009025  0.75000000
   0.33324308  0.66675690  0.25000000
   0.66675690  0.33324308  0.75000000
graphite                                
           1
     2.466401    0.000435    0.000000
    -1.232823    2.136183   -0.000000
    -0.000000   -0.000000    6.992081
   C 
   4
Direct configuration=     7
  -0.00005972  0.00005977  0.25000000
   0.00005977 -0.00005972  0.75000000
   0.33319007  0.66680992  0.25000000
   0.66680992  0.33319007  0.75000000
graphite                                
           1
     2.466147    0.001278    0.000000
    -1.231967    2.136385   -0.000000
    -0.000000    0.000000    7.085147
   C 
   4
Direct configuration=     8
   0.00000134 -0.00000129  0.25000000
  -0.00000129  0.00000134  0.75000000
   0.33308403  0.66691595  0.25000000
   0.66691595  0.33308403  0.75000000
graphite                                
           1
     2.465641    0.002965    0.000000
    -1.230253    2.136790   -0.000000
    -0.000000    0.000000    7.271280
   C 
   4
Direct configuration=     9
   0.00012348 -0.00012344  0.25000000
  -0.00012344  0.00012348  0.75000000
   0.33287194  0.66712804  0.25000000
   0.66712804  0.33287194  0.75000000
graphite                                
           1
     2.464628    0.006337    0.000000
    -1.226826    2.137599   -0.000000
    -0.000000    0.000000    7.643545
   C 
   4
Direct configuration=    10
   0.00036784 -0.00036779  0.25000000
  -0.00036779  0.00036784  0.75000000
   0.33244762  0.66755236  0.25000000
   0.66755236  0.33244762  0.75000000
graphite                                
           1
     2.464653    0.006304    0.000000
    -1.226867    2.137604   -0.000000
    -0.000000    0.000000    7.649114
   C 
   4
Direct configuration=    11
   0.00085684 -0.00085680  0.25000000
  -0.00085680  0.00085684  0.75000000
   0.33159848  0.66840150  0.25000000
   0.66840150  0.33159848  0.75000000
graphite                                
           1
     2.464727    0.006204    0.000000
    -1.226991    2.137618   -0.000000
    -0.000000    0.000000    7.665822
   C 
   4
Direct configuration=    12
   0.00083532 -0.00083528  0.25000000
  -0.00083528  0.00083532  0.75000000
   0.33161509  0.66838489  0.25000000
   0.66838489  0.33161509  0.75000000
graphite                                
           1
     2.464783    0.006085    0.000000
    -1.227121    2.137607   -0.000000
    -0.000000    0.000000    7.665401
   C 
   4
Direct configuration=    13
   0.00077077 -0.00077072  0.25000000
  -0.00077072  0.00077077  0.75000000
   0.33166494  0.66833504  0.25000000
   0.66833504  0.33166494  0.75000000
graphite                                
           1
     2.464949    0.005730    0.000000
    -1.227512    2.137574   -0.000000
    -0.000000    0.000000    7.664137
   C 
   4
Direct configuration=    14
   0.00073035 -0.00073031  0.25000000
  -0.00073031  0.00073035  0.75000000
   0.33170568  0.66829430  0.25000000
   0.66829430  0.33170568  0.75000000
graphite                                
           1
     2.465282    0.005019    0.000000
    -1.228294    2.137507   -0.000000
    -0.000000    0.000000    7.661610
   C 
   4
Direct configuration=    15
   0.00060912 -0.00060907  0.25000000
  -0.00060907  0.00060912  0.75000000
   0.33182791  0.66817207  0.25000000
   0.66817207  0.33182791  0.75000000
graphite                                
           1
     2.465949    0.003598    0.000000
    -1.229859    2.137373   -0.000000
    -0.000000    0.000000    7.656557
   C 
   4
Direct configuration=    16
   0.00036668 -0.00036663  0.25000000
  -0.00036663  0.00036668  0.75000000
   0.33207233  0.66792765  0.25000000
   0.66792765  0.33207233  0.75000000
graphite                                
           1
     2.465997    0.003433    0.000000
    -1.230025    2.137332   -0.000000
    -0.000000    0.000000    7.657294
   C 
   4
Direct configuration=    17
  -0.00011805  0.00011810  0.25000000
   0.00011810 -0.00011805  0.75000000
   0.33256103  0.66743895  0.25000000
   0.66743895  0.33256103  0.75000000
graphite                                
           1
     2.466141    0.002940    0.000000
    -1.230525    2.137211   -0.000000
    -0.000000    0.000000    7.659506
   C 
   4
Direct configuration=    18
  -0.00013388  0.00013393  0.25000000
   0.00013393 -0.00013388  0.75000000
   0.33257590  0.66742409  0.25000000
   0.66742409  0.33257590  0.75000000
graphite                                
           1
     2.466141    0.002940    0.000000
    -1.230525    2.137211   -0.000000
    -0.000000    0.000000    7.659506
   C 
   4
Direct configuration=    19
  -0.00018138  0.00018142  0.25000000
   0.00018142 -0.00018138  0.75000000
   0.33262049  0.66737949  0.25000000
   0.66737949  0.33262049  0.75000000
