   4   4   0   0
  0.9079817E+01  0.2466437E-09  0.2466437E-09  0.6897021E-09  0.5000000E-15
  1.000000000000000E-004
  CAR 
 graphite                                
     18.33224596    -17.16826957  301      4.43563885      1.00000000
    -17.168  0.0000E+00  0.0000E+00
    -17.050  0.0000E+00  0.0000E+00
    -16.932  0.0000E+00  0.0000E+00
    -16.813  0.0000E+00  0.0000E+00
    -16.695  0.0000E+00  0.0000E+00
    -16.577  0.0000E+00  0.0000E+00
    -16.458  0.0000E+00  0.0000E+00
    -16.340  0.0000E+00  0.0000E+00
    -16.222  0.0000E+00  0.0000E+00
    -16.103  0.0000E+00  0.0000E+00
    -15.985  0.0000E+00  0.0000E+00
    -15.867  0.0000E+00  0.0000E+00
    -15.748  0.0000E+00  0.0000E+00
    -15.630  0.0000E+00  0.0000E+00
    -15.512  0.0000E+00  0.0000E+00
    -15.393  0.0000E+00  0.0000E+00
    -15.275  0.0000E+00  0.0000E+00
    -15.157  0.2864E-04  0.1153E-06
    -15.038  0.1334E-02  0.6727E-04
    -14.920  0.2337E-02  0.2908E-03
    -14.802  0.3236E-02  0.6331E-03
    -14.683  0.3069E-02  0.9907E-03
    -14.565  0.3188E-02  0.1364E-02
    -14.447  0.3104E-02  0.1737E-02
    -14.328  0.2984E-02  0.2096E-02
    -14.210  0.3053E-02  0.2451E-02
    -14.092  0.3163E-02  0.2819E-02
    -13.973  0.3192E-02  0.3198E-02
    -13.855  0.3151E-02  0.3573E-02
    -13.737  0.3063E-02  0.3940E-02
    -13.618  0.3057E-02  0.4302E-02
    -13.500  0.3082E-02  0.4664E-02
    -13.382  0.3137E-02  0.5032E-02
    -13.263  0.3195E-02  0.5407E-02
    -13.145  0.3230E-02  0.5788E-02
    -13.027  0.3189E-02  0.6168E-02
    -12.908  0.3128E-02  0.6542E-02
    -12.790  0.3121E-02  0.6911E-02
    -12.672  0.3138E-02  0.7281E-02
    -12.553  0.3154E-02  0.7653E-02
    -12.435  0.3179E-02  0.8028E-02
    -12.317  0.3213E-02  0.8406E-02
    -12.198  0.3252E-02  0.8789E-02
    -12.080  0.3279E-02  0.9176E-02
    -11.962  0.3264E-02  0.9563E-02
    -11.843  0.3232E-02  0.9947E-02
    -11.725  0.3225E-02  0.1033E-01
    -11.607  0.3237E-02  0.1071E-01
    -11.488  0.3265E-02  0.1110E-01
    -11.370  0.3294E-02  0.1148E-01
    -11.252  0.3323E-02  0.1188E-01
    -11.133  0.3353E-02  0.1227E-01
    -11.015  0.3400E-02  0.1267E-01
    -10.897  0.3466E-02  0.1308E-01
    -10.778  0.3529E-02  0.1349E-01
    -10.660  0.3582E-02  0.1391E-01
    -10.542  0.3684E-02  0.1434E-01
    -10.423  0.3840E-02  0.1478E-01
    -10.305  0.3998E-02  0.1525E-01
    -10.187  0.5490E-02  0.1582E-01
    -10.068  0.5864E-02  0.1652E-01
     -9.950  0.4537E-02  0.1714E-01
     -9.831  0.3246E-02  0.1760E-01
     -9.713  0.2695E-02  0.1794E-01
     -9.595  0.2415E-02  0.1824E-01
     -9.476  0.2134E-02  0.1851E-01
     -9.358  0.3802E-02  0.1894E-01
     -9.240  0.1281E-02  0.1930E-01
     -9.121  0.1142E-02  0.1944E-01
     -9.003  0.1003E-02  0.1957E-01
     -8.885  0.8641E-03  0.1968E-01
     -8.766  0.7552E-03  0.1978E-01
     -8.648  0.9955E-03  0.1988E-01
     -8.530  0.1282E-02  0.2001E-01
     -8.411  0.1568E-02  0.2018E-01
     -8.293  0.3244E-02  0.2044E-01
     -8.175  0.5811E-02  0.2097E-01
     -8.056  0.4165E-02  0.2156E-01
     -7.938  0.3896E-02  0.2199E-01
     -7.820  0.4623E-02  0.2249E-01
     -7.701  0.5351E-02  0.2308E-01
     -7.583  0.6079E-02  0.2376E-01
     -7.465  0.4815E-02  0.2445E-01
     -7.346  0.3548E-02  0.2490E-01
     -7.228  0.3444E-02  0.2531E-01
     -7.110  0.3357E-02  0.2571E-01
     -6.991  0.3272E-02  0.2611E-01
     -6.873  0.3185E-02  0.2649E-01
     -6.755  0.3091E-02  0.2686E-01
     -6.636  0.2996E-02  0.2722E-01
     -6.518  0.2902E-02  0.2757E-01
     -6.400  0.2807E-02  0.2791E-01
     -6.281  0.2712E-02  0.2823E-01
     -6.163  0.2617E-02  0.2855E-01
     -6.045  0.2602E-02  0.2885E-01
     -5.926  0.2830E-02  0.2918E-01
     -5.808  0.3060E-02  0.2952E-01
     -5.690  0.3290E-02  0.2990E-01
     -5.571  0.3519E-02  0.3030E-01
     -5.453  0.3749E-02  0.3073E-01
     -5.335  0.3979E-02  0.3119E-01
     -5.216  0.4174E-02  0.3167E-01
     -5.098  0.4152E-02  0.3217E-01
     -4.980  0.3840E-02  0.3264E-01
     -4.861  0.3824E-02  0.3310E-01
     -4.743  0.3823E-02  0.3355E-01
     -4.625  0.3821E-02  0.3400E-01
     -4.506  0.3820E-02  0.3445E-01
     -4.388  0.3879E-02  0.3491E-01
     -4.270  0.3959E-02  0.3537E-01
     -4.151  0.4038E-02  0.3585E-01
     -4.033  0.4120E-02  0.3633E-01
     -3.915  0.4222E-02  0.3682E-01
     -3.796  0.4670E-02  0.3734E-01
     -3.678  0.5041E-02  0.3792E-01
     -3.560  0.5391E-02  0.3854E-01
     -3.441  0.5629E-02  0.3919E-01
     -3.323  0.5852E-02  0.3987E-01
     -3.205  0.6043E-02  0.4058E-01
     -3.086  0.6321E-02  0.4131E-01
     -2.968  0.7209E-02  0.4210E-01
     -2.850  0.7392E-02  0.4297E-01
     -2.731  0.7355E-02  0.4384E-01
     -2.613  0.7219E-02  0.4470E-01
     -2.495  0.6805E-02  0.4554E-01
     -2.376  0.8049E-02  0.4639E-01
     -2.258  0.8782E-02  0.4739E-01
     -2.140  0.9768E-02  0.4848E-01
     -2.021  0.1051E-01  0.4969E-01
     -1.903  0.1298E-01  0.5127E-01
     -1.785  0.1032E-01  0.5265E-01
     -1.666  0.8899E-02  0.5378E-01
     -1.548  0.7628E-02  0.5476E-01
     -1.430  0.7159E-02  0.5563E-01
     -1.311  0.5006E-02  0.5636E-01
     -1.193  0.4518E-02  0.5692E-01
     -1.075  0.4793E-02  0.5746E-01
     -0.956  0.5451E-02  0.5806E-01
     -0.838  0.6498E-02  0.5878E-01
     -0.720  0.6341E-02  0.5953E-01
     -0.601  0.7538E-02  0.6033E-01
     -0.483  0.8812E-02  0.6142E-01
     -0.365  0.7661E-02  0.6238E-01
     -0.246  0.6993E-02  0.6325E-01
     -0.128  0.6563E-02  0.6405E-01
     -0.010  0.6179E-02  0.6480E-01
      0.109  0.5912E-02  0.6551E-01
      0.227  0.5768E-02  0.6620E-01
      0.345  0.5785E-02  0.6688E-01
      0.464  0.5973E-02  0.6758E-01
      0.582  0.5841E-02  0.6828E-01
      0.700  0.5716E-02  0.6897E-01
      0.819  0.6038E-02  0.6965E-01
      0.937  0.5720E-02  0.7035E-01
      1.055  0.5412E-02  0.7101E-01
      1.174  0.5876E-02  0.7170E-01
      1.292  0.4934E-02  0.7234E-01
      1.410  0.4045E-02  0.7287E-01
      1.529  0.3968E-02  0.7333E-01
      1.647  0.4830E-02  0.7387E-01
      1.765  0.4592E-02  0.7443E-01
      1.884  0.4505E-02  0.7497E-01
      2.002  0.4493E-02  0.7550E-01
      2.120  0.4428E-02  0.7603E-01
      2.239  0.4347E-02  0.7655E-01
      2.357  0.4793E-02  0.7708E-01
      2.475  0.3301E-02  0.7752E-01
      2.594  0.3110E-02  0.7789E-01
      2.712  0.2618E-02  0.7824E-01
      2.830  0.2188E-02  0.7852E-01
      2.949  0.1912E-02  0.7876E-01
      3.067  0.1736E-02  0.7898E-01
      3.185  0.1552E-02  0.7917E-01
      3.304  0.1362E-02  0.7934E-01
      3.422  0.1165E-02  0.7949E-01
      3.540  0.9456E-03  0.7962E-01
      3.659  0.7975E-03  0.7972E-01
      3.777  0.6492E-03  0.7981E-01
      3.895  0.5010E-03  0.7988E-01
      4.014  0.3680E-03  0.7993E-01
      4.132  0.2518E-03  0.7996E-01
      4.250  0.1459E-03  0.7999E-01
      4.369  0.4833E-04  0.8000E-01
      4.487  0.3007E-04  0.8000E-01
      4.605  0.1098E-03  0.8001E-01
      4.724  0.1990E-03  0.8003E-01
      4.842  0.2996E-03  0.8006E-01
      4.960  0.4152E-03  0.8010E-01
      5.079  0.5588E-03  0.8016E-01
      5.197  0.7164E-03  0.8023E-01
      5.315  0.8743E-03  0.8033E-01
      5.434  0.1032E-02  0.8044E-01
      5.552  0.1349E-02  0.8057E-01
      5.670  0.2114E-02  0.8078E-01
      5.789  0.2388E-02  0.8105E-01
      5.907  0.2757E-02  0.8135E-01
      6.025  0.4494E-02  0.8176E-01
      6.144  0.5858E-02  0.8236E-01
      6.262  0.4599E-02  0.8293E-01
      6.380  0.4558E-02  0.8348E-01
      6.499  0.4551E-02  0.8402E-01
      6.617  0.4603E-02  0.8456E-01
      6.735  0.4410E-02  0.8510E-01
      6.854  0.3579E-02  0.8557E-01
      6.972  0.3331E-02  0.8598E-01
      7.090  0.3122E-02  0.8636E-01
      7.209  0.2953E-02  0.8672E-01
      7.327  0.2813E-02  0.8706E-01
      7.445  0.2699E-02  0.8739E-01
      7.564  0.2619E-02  0.8770E-01
      7.682  0.2555E-02  0.8801E-01
      7.800  0.2499E-02  0.8831E-01
      7.919  0.2445E-02  0.8860E-01
      8.037  0.2395E-02  0.8889E-01
      8.155  0.2345E-02  0.8917E-01
      8.274  0.2296E-02  0.8944E-01
      8.392  0.2247E-02  0.8971E-01
      8.510  0.2198E-02  0.8997E-01
      8.629  0.2214E-02  0.9023E-01
      8.747  0.2388E-02  0.9050E-01
      8.865  0.2401E-02  0.9079E-01
      8.984  0.2413E-02  0.9107E-01
      9.102  0.2470E-02  0.9136E-01
      9.220  0.2540E-02  0.9166E-01
      9.339  0.2574E-02  0.9196E-01
      9.457  0.2598E-02  0.9227E-01
      9.575  0.2645E-02  0.9258E-01
      9.694  0.2694E-02  0.9289E-01
      9.812  0.2747E-02  0.9321E-01
      9.930  0.2806E-02  0.9354E-01
     10.049  0.3128E-02  0.9389E-01
     10.167  0.3838E-02  0.9431E-01
     10.285  0.3581E-02  0.9475E-01
     10.404  0.3238E-02  0.9515E-01
     10.522  0.2920E-02  0.9552E-01
     10.640  0.2554E-02  0.9585E-01
     10.759  0.2209E-02  0.9612E-01
     10.877  0.2087E-02  0.9638E-01
     10.995  0.1984E-02  0.9662E-01
     11.114  0.1956E-02  0.9685E-01
     11.232  0.2058E-02  0.9709E-01
     11.350  0.2172E-02  0.9733E-01
     11.469  0.2370E-02  0.9760E-01
     11.587  0.2651E-02  0.9790E-01
     11.705  0.3164E-02  0.9824E-01
     11.824  0.4889E-02  0.9870E-01
     11.942  0.5875E-02  0.9935E-01
     12.060  0.7458E-02  0.1001E+00
     12.179  0.8690E-02  0.1011E+00
     12.297  0.9298E-02  0.1022E+00
     12.415  0.1025E-01  0.1033E+00
     12.534  0.1023E-01  0.1046E+00
     12.652  0.9508E-02  0.1057E+00
     12.770  0.9377E-02  0.1068E+00
     12.889  0.1395E-01  0.1084E+00
     13.007  0.1011E-01  0.1098E+00
     13.126  0.6797E-02  0.1108E+00
     13.244  0.5292E-02  0.1115E+00
     13.362  0.5027E-02  0.1121E+00
     13.481  0.4861E-02  0.1127E+00
     13.599  0.4798E-02  0.1132E+00
     13.717  0.4160E-02  0.1138E+00
     13.836  0.3762E-02  0.1142E+00
     13.954  0.3411E-02  0.1147E+00
     14.072  0.3132E-02  0.1151E+00
     14.191  0.2986E-02  0.1154E+00
     14.309  0.3146E-02  0.1158E+00
     14.427  0.4170E-02  0.1162E+00
     14.546  0.3809E-02  0.1167E+00
     14.664  0.3586E-02  0.1172E+00
     14.782  0.3849E-02  0.1176E+00
     14.901  0.4656E-02  0.1181E+00
     15.019  0.3375E-02  0.1186E+00
     15.137  0.2408E-02  0.1189E+00
     15.256  0.2008E-02  0.1192E+00
     15.374  0.1763E-02  0.1194E+00
     15.492  0.1615E-02  0.1196E+00
     15.611  0.1105E-02  0.1198E+00
     15.729  0.7349E-03  0.1199E+00
     15.847  0.3612E-03  0.1200E+00
     15.966  0.1568E-03  0.1200E+00
     16.084  0.7043E-04  0.1200E+00
     16.202  0.1822E-04  0.1200E+00
     16.321  0.1081E-06  0.1200E+00
     16.439  0.0000E+00  0.1200E+00
     16.557  0.0000E+00  0.1200E+00
     16.676  0.0000E+00  0.1200E+00
     16.794  0.0000E+00  0.1200E+00
     16.912  0.0000E+00  0.1200E+00
     17.031  0.0000E+00  0.1200E+00
     17.149  0.0000E+00  0.1200E+00
     17.267  0.0000E+00  0.1200E+00
     17.386  0.0000E+00  0.1200E+00
     17.504  0.0000E+00  0.1200E+00
     17.622  0.0000E+00  0.1200E+00
     17.741  0.0000E+00  0.1200E+00
     17.859  0.0000E+00  0.1200E+00
     17.977  0.0000E+00  0.1200E+00
     18.096  0.0000E+00  0.1200E+00
     18.214  0.0000E+00  0.1200E+00
     18.332  0.0000E+00  0.1200E+00
