    4    4  200    1
  0.9079817E+01  0.2466437E-09  0.2466437E-09  0.6897021E-09  0.5000000E-15
  1.000000000000000E-004
  CAR 
 graphite                                
     16    215     12
 
  0.0000000E+00  0.0000000E+00  0.0000000E+00  0.8680556E-03
    1      -15.168270
    2      -14.926545
    3       -3.952689
    4       -2.247896
    5        1.423946
    6        1.437900
    7        1.440553
    8        1.454078
    9        8.525569
   10       12.767795
   11       12.778838
   12       12.808289
 
  0.8333333E-01  0.0000000E+00  0.0000000E+00  0.3472222E-02
    1      -15.002890
    2      -14.763647
    3       -3.752062
    4       -2.059020
    5        0.778826
    6        0.804332
    7        1.085709
    8        1.107008
    9        8.727872
   10       12.820971
   11       12.889635
   12       13.498380
 
  0.1666667E+00  0.0000000E+00  0.0000000E+00  0.3472222E-02
    1      -14.508508
    2      -14.276712
    3       -3.154609
    4       -1.498671
    5       -0.872924
    6       -0.823185
    7        0.287939
    8        0.318609
    9        9.336164
   10       12.722498
   11       12.873072
   12       13.641103
 
  0.2500000E+00  0.0000000E+00  0.0000000E+00  0.3472222E-02
    1      -13.691043
    2      -13.471451
    3       -2.987280
    4       -2.909741
    5       -2.176258
    6       -0.595049
    7       -0.590437
    8       -0.558513
    9       10.344521
   10       11.430075
   11       11.962373
   12       12.395930
 
  0.3333333E+00  0.0000000E+00  0.0000000E+00  0.3472222E-02
    1      -12.562812
    2      -12.359976
    3       -5.206442
    4       -5.101237
    5       -1.330118
    6       -1.290256
    7       -0.857627
    8        0.600940
    9        9.007445
   10        9.773857
   11       11.680858
   12       12.055846
 
  0.4166667E+00 -0.2775558E-16  0.0000000E+00  0.3472222E-02
    1      -11.154566
    2      -10.974412
    3       -7.319966
    4       -7.191177
    5       -1.803861
    6       -1.762266
    7        0.676145
    8        1.848337
    9        6.854205
   10        7.711287
   11       11.758403
   12       12.061005
 
  0.5000000E+00  0.0000000E+00  0.0000000E+00  0.1736111E-02
    1       -9.851046
    2       -9.761315
    3       -8.790713
    4       -8.722575
    5       -1.966449
    6       -1.924265
    7        1.743924
    8        2.338607
    9        5.946017
   10        6.555447
   11       11.669266
   12       11.991110
 
  0.8333333E-01  0.8333333E-01  0.0000000E+00  0.1736111E-02
    1      -14.672768
    2      -14.438484
    3       -3.352667
    4       -1.683995
    5       -0.255203
    6       -0.230735
    7        0.409034
    8        0.426989
    9        9.134679
   10       13.100100
   11       13.198574
   12       14.177487
 
  0.1666667E+00  0.8333333E-01  0.0000000E+00  0.3472222E-02
    1      -14.016609
    2      -13.792175
    3       -2.563669
    4       -1.983068
    5       -1.930001
    6       -0.947837
    7       -0.595630
    8       -0.561793
    9        9.948126
   10       12.350300
   11       12.720505
   12       13.192435
 
  0.2500000E+00  0.8333333E-01  0.0000000E+00  0.3472222E-02
    1      -13.043348
    2      -12.833363
    3       -4.075205
    4       -3.988810
    5       -1.487825
    6       -1.442384
    7       -1.410209
    8        0.111498
    9       10.100307
   10       10.685026
   11       11.155080
   12       12.903632
 
  0.3333333E+00  0.8333333E-01  0.0000000E+00  0.3472222E-02
    1      -11.771965
    2      -11.581177
    3       -6.214044
    4       -6.099129
    5       -2.125988
    6       -2.075218
    7        0.040801
    8        1.382279
    9        7.809475
   10        8.588876
   11       12.521528
   12       12.709279
 
  0.4166667E+00  0.8333333E-01  0.0000000E+00  0.3472222E-02
    1      -10.275436
    2      -10.118049
    3       -8.161950
    4       -8.034506
    5       -2.456276
    6       -2.403399
    7        1.530853
    8        2.396762
    9        6.146043
   10        6.829830
   11       12.399581
   12       12.737833
 
  0.5000000E+00  0.8333333E-01  0.0000000E+00  0.3472222E-02
    1      -10.277834
    2      -10.120347
    3       -8.159200
    4       -8.031635
    5       -2.457122
    6       -2.404233
    7        1.529381
    8        2.396254
    9        6.146130
   10        6.831628
   11       12.400571
   12       12.738798
 
 -0.4166667E+00  0.8333333E-01  0.0000000E+00  0.3472222E-02
    1      -11.774143
    2      -11.583344
    3       -6.210574
    4       -6.095605
    5       -2.128352
    6       -2.077531
    7        0.038920
    8        1.380712
    9        7.810020
   10        8.591160
   11       12.523177
   12       12.709088
 
 -0.3333333E+00  0.8333333E-01  0.0000000E+00  0.3472222E-02
    1      -13.045046
    2      -12.835055
    3       -4.071936
    4       -3.985481
    5       -1.490914
    6       -1.445419
    7       -1.411848
    8        0.109973
    9       10.099612
   10       10.686849
   11       11.152803
   12       12.908195
 
 -0.2500000E+00  0.8333333E-01  0.0000000E+00  0.3472222E-02
    1      -14.017820
    2      -13.793380
    3       -2.564902
    4       -1.982268
    5       -1.929186
    6       -0.949020
    7       -0.596646
    8       -0.562912
    9        9.946466
   10       12.347433
   11       12.721616
   12       13.198460
 
 -0.1666667E+00  0.8333333E-01  0.0000000E+00  0.3472222E-02
    1      -14.673492
    2      -14.439204
    3       -3.353427
    4       -1.684731
    5       -0.263347
    6       -0.238286
    7        0.416757
    8        0.434748
    9        9.133652
   10       13.107353
   11       13.206990
   12       14.193566
 
 -0.8333333E-01  0.8333333E-01  0.0000000E+00  0.1736111E-02
    1      -15.003133
    2      -14.763887
    3       -3.752318
    4       -2.059269
    5        0.765874
    6        0.791663
    7        1.098731
    8        1.119854
    9        8.727517
   10       12.825419
   11       12.894340
   12       13.481249
 
  0.1666667E+00  0.1666667E+00  0.0000000E+00  0.1736111E-02
    1      -13.204621
    2      -12.992270
    3       -3.311949
    4       -3.269992
    5       -1.954723
    6       -1.924098
    7       -1.596632
    8       -0.054930
    9       10.619811
   10       10.964986
   11       11.016893
   12       14.363842
 
  0.2500000E+00  0.1666667E+00  0.0000000E+00  0.3472222E-02
    1      -12.086825
    2      -11.891142
    3       -5.061093
    4       -4.979607
    5       -3.024595
    6       -2.968604
    7       -0.292139
    8        1.122174
    9        8.612744
   10        9.138064
   11       12.363116
   12       14.494573
 
  0.3333333E+00  0.1666667E+00  0.0000000E+00  0.3472222E-02
    1      -10.698027
    2      -10.525146
    3       -6.989911
    4       -6.873816
    5       -3.609699
    6       -3.538953
    7        1.237771
    8        2.389457
    9        6.671217
   10        7.307607
   11       14.051953
   12       14.288102
 
  0.4166667E+00  0.1666667E+00  0.0000000E+00  0.3472222E-02
    1       -9.427059
    2       -9.341120
    3       -8.388976
    4       -8.328968
    5       -3.797837
    6       -3.723505
    7        2.342578
    8        2.925177
    9        5.849744
   10        6.137916
   11       14.146981
   12       14.609002
 
  0.5000000E+00  0.1666667E+00  0.0000000E+00  0.3472222E-02
    1      -10.702769
    2      -10.529865
    3       -6.983590
    4       -6.867314
    5       -3.612114
    6       -3.541288
    7        1.234123
    8        2.386804
    9        6.670926
   10        7.312673
   11       14.047214
   12       14.288524
 
 -0.4166667E+00  0.1666667E+00  0.0000000E+00  0.3472222E-02
    1      -12.090715
    2      -11.895029
    3       -5.055474
    4       -4.973762
    5       -3.027719
    6       -2.971620
    7       -0.295665
    8        1.118898
    9        8.610544
   10        9.142713
   11       12.357868
   12       14.500774
 
 -0.3333333E+00  0.1666667E+00  0.0000000E+00  0.3472222E-02
    1      -13.207528
    2      -12.995166
    3       -3.313527
    4       -3.270566
    5       -1.952292
    6       -1.921106
    7       -1.599491
    8       -0.057702
    9       10.613942
   10       10.961105
   11       11.019818
   12       14.384002
 
 -0.2500000E+00  0.1666667E+00  0.0000000E+00  0.3472222E-02
    1      -14.018538
    2      -13.794096
    3       -2.565654
    4       -1.993294
    5       -1.939635
    6       -0.949786
    7       -0.584470
    8       -0.550446
    9        9.945535
   10       12.343010
   11       12.719840
   12       13.217955
 
 -0.1666667E+00  0.1666667E+00  0.0000000E+00  0.1736111E-02
    1      -14.509472
    2      -14.277670
    3       -3.155621
    4       -1.499670
    5       -0.886502
    6       -0.836512
    7        0.302683
    8        0.333245
    9        9.334848
   10       12.741034
   11       12.891111
   12       13.631506
 
  0.2500000E+00  0.2500000E+00  0.0000000E+00  0.1736111E-02
    1      -10.847091
    2      -10.670859
    3       -6.090079
    4       -6.031174
    5       -4.500170
    6       -4.456382
    7        1.121347
    8        2.362698
    9        7.005397
   10        7.506966
   11       13.909214
   12       16.308500
 
  0.3333333E+00  0.2500000E+00  0.0000000E+00  0.3472222E-02
    1       -9.407610
    2       -9.264139
    3       -7.529292
    4       -7.433459
    5       -5.225492
    6       -5.150725
    7        2.646052
    8        3.514771
    9        5.546300
   10        5.999922
   11       15.644321
   12       15.850062
 
  0.4166667E+00  0.2500000E+00  0.0000000E+00  0.3472222E-02
    1       -9.414810
    2       -9.271196
    3       -7.521799
    4       -7.425176
    5       -5.226368
    6       -5.151483
    7        2.641545
    8        3.512612
    9        5.542322
   10        6.008463
   11       15.632461
   12       15.864282
 
  0.5000000E+00  0.2500000E+00  0.0000000E+00  0.3472222E-02
    1      -10.853628
    2      -10.677410
    3       -6.086347
    4       -6.026046
    5       -4.498636
    6       -4.453937
    7        1.116046
    8        2.357483
    9        7.001361
   10        7.514452
   11       13.900208
   12       16.332246
 
 -0.4166667E+00  0.2500000E+00  0.0000000E+00  0.3472222E-02
    1      -12.091925
    2      -11.896258
    3       -5.065499
    4       -4.983217
    5       -3.015664
    6       -2.959203
    7       -0.296828
    8        1.117380
    9        8.606255
   10        9.141041
   11       12.356456
   12       14.531885
 
 -0.3333333E+00  0.2500000E+00  0.0000000E+00  0.3472222E-02
    1      -13.046974
    2      -12.836980
    3       -4.084705
    4       -3.997988
    5       -1.474151
    6       -1.428663
    7       -1.413784
    8        0.107841
    9       10.092251
   10       10.682736
   11       11.150535
   12       12.936904
 
 -0.2500000E+00  0.2500000E+00  0.0000000E+00  0.1736111E-02
    1      -13.693211
    2      -13.473602
    3       -3.000107
    4       -2.922377
    5       -2.178476
    6       -0.592703
    7       -0.578605
    8       -0.542157
    9       10.341798
   10       11.421840
   11       11.957995
   12       12.423429
 
  0.3333333E+00  0.3333333E+00  0.0000000E+00  0.1736111E-02
    1       -8.200423
    2       -8.125165
    3       -8.123209
    4       -8.049522
    5       -6.078336
    6       -6.077577
    7        3.900596
    8        4.420714
    9        4.428387
   10        5.044355
   11       15.475307
   12       15.496757
 
  0.4166667E+00  0.3333333E+00  0.0000000E+00  0.3472222E-02
    1       -9.417464
    2       -9.274307
    3       -7.527394
    4       -7.430837
    5       -5.217333
    6       -5.142012
    7        2.640863
    8        3.505627
    9        5.543997
   10        6.008113
   11       15.631304
   12       15.864589
 
  0.5000000E+00  0.3333333E+00  0.0000000E+00  0.3472222E-02
    1      -10.705938
    2      -10.533158
    3       -6.993417
    4       -6.877035
    5       -3.597000
    6       -3.526148
    7        1.231817
    8        2.381583
    9        6.667239
   10        7.309254
   11       14.048958
   12       14.320876
 
 -0.4166667E+00  0.3333333E+00  0.0000000E+00  0.3472222E-02
    1      -11.777835
    2      -11.587089
    3       -6.221662
    4       -6.106549
    5       -2.110301
    6       -2.059545
    7        0.035617
    8        1.376118
    9        7.803149
   10        8.585116
   11       12.543175
   12       12.729316
 
 -0.3333333E+00  0.3333333E+00  0.0000000E+00  0.1736111E-02
    1      -12.566699
    2      -12.363855
    3       -5.217449
    4       -5.112083
    5       -1.312375
    6       -1.272586
    7       -0.861365
    8        0.596728
    9        8.999269
   10        9.767736
   11       11.680866
   12       12.086533
 
  0.4166667E+00  0.4166667E+00  0.0000000E+00  0.1736111E-02
    1       -9.436792
    2       -9.352815
    3       -8.390092
    4       -8.331391
    5       -3.783166
    6       -3.708832
    7        2.341367
    8        2.910398
    9        5.853790
   10        6.132874
   11       14.184157
   12       14.646952
 
  0.5000000E+00  0.4166667E+00  0.0000000E+00  0.3472222E-02
    1      -10.284608
    2      -10.127653
    3       -8.166246
    4       -8.038975
    5       -2.439111
    6       -2.386283
    7        1.526101
    8        2.385189
    9        6.145456
   10        6.823445
   11       12.435261
   12       12.773609
 
 -0.4166667E+00  0.4166667E+00  0.0000000E+00  0.1736111E-02
    1      -11.160850
    2      -10.980811
    3       -7.328188
    4       -7.199349
    5       -1.785293
    6       -1.743774
    7        0.671250
    8        1.840437
    9        6.849462
   10        7.703817
   11       11.791905
   12       12.094332
 
  0.5000000E+00  0.5000000E+00  0.0000000E+00  0.8680556E-03
    1       -9.861526
    2       -9.773840
    3       -8.792911
    4       -8.726212
    5       -1.947606
    6       -1.905492
    7        1.742102
    8        2.322924
    9        5.948885
   10        6.544306
   11       11.703663
   12       12.025542
 
  0.0000000E+00  0.0000000E+00  0.1250000E+00  0.1736111E-02
    1      -15.159542
    2      -14.936249
    3       -3.897630
    4       -2.326787
    5        1.424479
    6        1.437370
    7        1.441069
    8        1.453565
    9        8.700801
   10       12.769055
   11       12.787505
   12       12.809299
 
  0.8333333E-01  0.0000000E+00  0.1250000E+00  0.6944444E-02
    1      -14.994239
    2      -14.773247
    3       -3.697292
    4       -2.137269
    5        0.779777
    6        0.803344
    7        1.086523
    8        1.106201
    9        8.901788
   10       12.820816
   11       12.887321
   12       13.466968
 
  0.1666667E+00  0.0000000E+00  0.1250000E+00  0.6944444E-02
    1      -14.500110
    2      -14.285995
    3       -3.100864
    4       -1.574913
    5       -0.871017
    6       -0.825098
    7        0.289083
    8        0.317423
    9        9.505670
   10       12.722745
   11       12.867014
   12       13.657800
 
  0.2500000E+00  0.0000000E+00  0.1250000E+00  0.6944444E-02
    1      -13.683071
    2      -13.480217
    3       -2.984411
    4       -2.912768
    5       -2.124460
    6       -0.662805
    7       -0.593661
    8       -0.559917
    9       10.498604
   10       11.456100
   11       11.934664
   12       12.403221
 
  0.3333333E+00  0.0000000E+00  0.1250000E+00  0.6944444E-02
    1      -12.555413
    2      -12.368040
    3       -5.202509
    4       -5.105307
    5       -1.328656
    6       -1.291771
    7       -0.809266
    8        0.535834
    9        9.027728
   10        9.737726
   11       11.803663
   12       12.073596
 
  0.4166667E+00 -0.2775558E-16  0.1250000E+00  0.6944444E-02
    1      -11.147957
    2      -10.981544
    3       -7.315223
    4       -7.196256
    5       -1.802276
    6       -1.763866
    7        0.717513
    8        1.800359
    9        6.873781
   10        7.667110
   11       11.770176
   12       12.049861
 
  0.5000000E+00  0.0000000E+00  0.1250000E+00  0.3472222E-02
    1       -9.847219
    2       -9.764205
    3       -8.789106
    4       -8.726019
    5       -1.964844
    6       -1.925922
    7        1.771862
    8        2.324100
    9        5.945550
   10        6.511105
   11       11.681090
   12       11.978512
 
  0.8333333E-01  0.8333333E-01  0.1250000E+00  0.3472222E-02
    1      -14.664282
    2      -14.447885
    3       -3.298573
    4       -1.760916
    5       -0.254235
    6       -0.231600
    7        0.409650
    8        0.426270
    9        9.305884
   10       13.096585
   11       13.195312
   12       14.287177
 
  0.1666667E+00  0.8333333E-01  0.1250000E+00  0.6944444E-02
    1      -14.008465
    2      -13.801141
    3       -2.511067
    4       -1.981066
    5       -1.931988
    6       -1.021819
    7       -0.594383
    8       -0.563094
    9       10.112702
   10       12.362743
   11       12.700973
   12       13.196867
 
  0.2500000E+00  0.8333333E-01  0.1250000E+00  0.6944444E-02
    1      -13.035709
    2      -12.841736
    3       -4.071966
    4       -3.992162
    5       -1.486135
    6       -1.444139
    7       -1.360148
    8        0.042754
    9       10.114300
   10       10.658933
   11       11.316436
   12       12.911744
 
  0.3333333E+00  0.8333333E-01  0.1250000E+00  0.6944444E-02
    1      -11.764986
    2      -11.588742
    3       -6.209800
    4       -6.103609
    5       -2.124094
    6       -2.077183
    7        0.086139
    8        1.323894
    9        7.831370
   10        8.552785
   11       12.556361
   12       12.751739
 
  0.4166667E+00  0.8333333E-01  0.1250000E+00  0.6944444E-02
    1      -10.269599
    2      -10.124196
    3       -8.157366
    4       -8.039603
    5       -2.454327
    6       -2.405430
    7        1.565124
    8        2.367261
    9        6.154288
   10        6.789036
   11       12.411856
   12       12.724336
 
  0.5000000E+00  0.8333333E-01  0.1250000E+00  0.6944444E-02
    1      -10.271971
    2      -10.126488
    3       -8.154614
    4       -8.036728
    5       -2.455170
    6       -2.406256
    7        1.563673
    8        2.366695
    9        6.154453
   10        6.790784
   11       12.412833
   12       12.725320
 
 -0.4166667E+00  0.8333333E-01  0.1250000E+00  0.6944444E-02
    1      -11.767158
    2      -11.590899
    3       -6.206325
    4       -6.100087
    5       -2.126452
    6       -2.079491
    7        0.084265
    8        1.322306
    9        7.831996
   10        8.555007
   11       12.558691
   12       12.751998
 
 -0.3333333E+00  0.8333333E-01  0.1250000E+00  0.6944444E-02
    1      -13.037407
    2      -12.843428
    3       -4.068695
    4       -3.988836
    5       -1.489243
    6       -1.447175
    7       -1.361785
    8        0.041221
    9       10.113741
   10       10.660663
   11       11.314078
   12       12.916278
 
 -0.2500000E+00  0.8333333E-01  0.1250000E+00  0.6944444E-02
    1      -14.009676
    2      -13.802346
    3       -2.512298
    4       -1.980267
    5       -1.931170
    6       -1.023002
    7       -0.595401
    8       -0.564209
    9       10.111058
   10       12.360049
   11       12.702018
   12       13.202510
 
 -0.1666667E+00  0.8333333E-01  0.1250000E+00  0.6944444E-02
    1      -14.665007
    2      -14.448605
    3       -3.299332
    4       -1.761654
    5       -0.262359
    6       -0.239175
    7        0.417377
    8        0.434027
    9        9.304858
   10       13.103781
   11       13.203693
   12       14.319463
 
 -0.8333333E-01  0.8333333E-01  0.1250000E+00  0.3472222E-02
    1      -14.994481
    2      -14.773487
    3       -3.697547
    4       -2.137519
    5        0.766842
    6        0.790662
    7        1.099538
    8        1.119054
    9        8.901434
   10       12.825243
   11       12.892008
   12       13.471765
 
  0.1666667E+00  0.1666667E+00  0.1250000E+00  0.3472222E-02
    1      -13.196899
    2      -13.000739
    3       -3.310281
    4       -3.271546
    5       -1.953665
    6       -1.925385
    7       -1.546039
    8       -0.124879
    9       10.634484
   10       10.994461
   11       11.127514
   12       14.361714
 
  0.2500000E+00  0.1666667E+00  0.1250000E+00  0.6944444E-02
    1      -12.079682
    2      -11.898916
    3       -5.058010
    4       -4.982729
    5       -3.022581
    6       -2.970855
    7       -0.245034
    8        1.059348
    9        8.631251
   10        9.116922
   11       12.501203
   12       14.502238
 
  0.3333333E+00  0.1666667E+00  0.1250000E+00  0.6944444E-02
    1      -10.691668
    2      -10.531978
    3       -6.985614
    4       -6.878349
    5       -3.607094
    6       -3.541719
    7        1.278248
    8        2.342040
    9        6.689065
   10        7.278702
   11       14.131487
   12       14.306178
 
  0.4166667E+00  0.1666667E+00  0.1250000E+00  0.6944444E-02
    1       -9.423387
    2       -9.343911
    3       -8.387560
    4       -8.332034
    5       -3.795090
    6       -3.726423
    7        2.370439
    8        2.911861
    9        5.841896
   10        6.112827
   11       14.160050
   12       14.585435
 
  0.5000000E+00  0.1666667E+00  0.1250000E+00  0.6944444E-02
    1      -10.696401
    2      -10.536683
    3       -6.979279
    4       -6.871847
    5       -3.609501
    6       -3.544055
    7        1.274620
    8        2.339321
    9        6.689014
   10        7.283560
   11       14.127675
   12       14.305772
 
 -0.4166667E+00  0.1666667E+00  0.1250000E+00  0.6944444E-02
    1      -12.083560
    2      -11.902786
    3       -5.052381
    4       -4.976892
    5       -3.025684
    6       -2.973860
    7       -0.248554
    8        1.056057
    9        8.629309
   10        9.121281
   11       12.495892
   12       14.508155
 
 -0.3333333E+00  0.1666667E+00  0.1250000E+00  0.6944444E-02
    1      -13.199806
    2      -13.003635
    3       -3.311822
    4       -3.272160
    5       -1.951214
    6       -1.922411
    7       -1.548896
    8       -0.127657
    9       10.628919
   10       10.996775
   11       11.123884
   12       14.381310
 
 -0.2500000E+00  0.1666667E+00  0.1250000E+00  0.6944444E-02
    1      -14.010397
    2      -13.803064
    3       -2.513051
    4       -1.991268
    5       -1.941650
    6       -1.023771
    7       -0.583220
    8       -0.551757
    9       10.110100
   10       12.355842
   11       12.700152
   12       13.221920
 
 -0.1666667E+00  0.1666667E+00  0.1250000E+00  0.3472222E-02
    1      -14.501072
    2      -14.286953
    3       -3.101876
    4       -1.575911
    5       -0.884589
    6       -0.838433
    7        0.303827
    8        0.332065
    9        9.504354
   10       12.741162
   11       12.885028
   12       13.644624
 
  0.2500000E+00  0.2500000E+00  0.1250000E+00  0.3472222E-02
    1      -10.840631
    2      -10.677818
    3       -6.087739
    4       -6.033326
    5       -4.498789
    6       -4.458310
    7        1.163752
    8        2.309344
    9        7.024587
   10        7.487381
   11       13.995278
   12       15.909405
 
  0.3333333E+00  0.2500000E+00  0.1250000E+00  0.6944444E-02
    1       -9.402252
    2       -9.269705
    3       -7.525758
    4       -7.437211
    5       -5.222843
    6       -5.153781
    7        2.679916
    8        3.484652
    9        5.557574
   10        5.976893
   11       15.418817
   12       15.644265
 
  0.4166667E+00  0.2500000E+00  0.1250000E+00  0.6944444E-02
    1       -9.409448
    2       -9.276770
    3       -7.518233
    4       -7.428955
    5       -5.223711
    6       -5.154552
    7        2.675438
    8        3.482295
    9        5.554130
   10        5.985014
   11       15.406425
   12       15.653844
 
  0.5000000E+00  0.2500000E+00  0.1250000E+00  0.6944444E-02
    1      -10.847168
    2      -10.684369
    3       -6.083958
    4       -6.028254
    5       -4.497223
    6       -4.455896
    7        1.158451
    8        2.304120
    9        7.020928
   10        7.494369
   11       13.986228
   12       15.918277
 
 -0.4166667E+00  0.2500000E+00  0.1250000E+00  0.6944444E-02
    1      -12.084781
    2      -11.904014
    3       -5.062379
    4       -4.986372
    5       -3.013618
    6       -2.961465
    7       -0.249719
    8        1.054567
    9        8.625029
   10        9.119455
   11       12.494656
   12       14.539072
 
 -0.3333333E+00  0.2500000E+00  0.1250000E+00  0.6944444E-02
    1      -13.039336
    2      -12.845353
    3       -4.081454
    4       -4.001352
    5       -1.472461
    6       -1.430420
    7       -1.363721
    8        0.039101
    9       10.106293
   10       10.656350
   11       11.312167
   12       12.944914
 
 -0.2500000E+00  0.2500000E+00  0.1250000E+00  0.3472222E-02
    1      -13.685238
    2      -13.482374
    3       -2.997255
    4       -2.925412
    5       -2.126684
    6       -0.665069
    7       -0.577236
    8       -0.543564
    9       10.495696
   10       11.448370
   11       11.930202
   12       12.430582
 
  0.3333333E+00  0.3333333E+00  0.1250000E+00  0.3472222E-02
    1       -8.194906
    2       -8.124941
    3       -8.123005
    4       -8.055361
    5       -6.078719
    6       -6.078017
    7        3.939492
    8        4.424561
    9        4.431666
   10        4.994932
   11       15.284294
   12       15.302427
 
  0.4166667E+00  0.3333333E+00  0.1250000E+00  0.6944444E-02
    1       -9.412118
    2       -9.279865
    3       -7.523836
    4       -7.434619
    5       -5.214663
    6       -5.145086
    7        2.674632
    8        3.475732
    9        5.555498
   10        5.984565
   11       15.405998
   12       15.660474
 
  0.5000000E+00  0.3333333E+00  0.1250000E+00  0.6944444E-02
    1      -10.699579
    2      -10.539973
    3       -6.989104
    4       -6.881577
    5       -3.594388
    6       -3.528916
    7        1.272257
    8        2.334296
    9        6.685150
   10        7.279986
   11       14.133343
   12       14.336037
 
 -0.4166667E+00  0.3333333E+00  0.1250000E+00  0.6944444E-02
    1      -11.770852
    2      -11.594622
    3       -6.217401
    4       -6.111035
    5       -2.108391
    6       -2.061473
    7        0.080917
    8        1.317800
    9        7.825005
   10        8.548818
   11       12.584642
   12       12.773661
 
 -0.3333333E+00  0.3333333E+00  0.1250000E+00  0.3472222E-02
    1      -12.559289
    2      -12.371919
    3       -5.213508
    4       -5.116147
    5       -1.310914
    6       -1.274097
    7       -0.813014
    8        0.531656
    9        9.019483
   10        9.731450
   11       11.807488
   12       12.103243
 
  0.4166667E+00  0.4166667E+00  0.1250000E+00  0.3472222E-02
    1       -9.433188
    2       -9.355526
    3       -8.388730
    4       -8.334416
    5       -3.780418
    6       -3.711750
    7        2.368896
    8        2.897755
    9        5.845336
   10        6.107833
   11       14.197253
   12       14.623066
 
  0.5000000E+00  0.4166667E+00  0.1250000E+00  0.6944444E-02
    1      -10.278760
    2      -10.133768
    3       -8.161679
    4       -8.044067
    5       -2.437155
    6       -2.388281
    7        1.560216
    8        2.356076
    9        6.153240
   10        6.782671
   11       12.447547
   12       12.760134
 
 -0.4166667E+00  0.4166667E+00  0.1250000E+00  0.3472222E-02
    1      -11.154240
    2      -10.987938
    3       -7.323443
    4       -7.204428
    5       -1.783711
    6       -1.745370
    7        0.712557
    8        1.792685
    9        6.868757
   10        7.659612
   11       11.803720
   12       12.083244
 
  0.5000000E+00  0.5000000E+00  0.1250000E+00  0.1736111E-02
    1       -9.857769
    2       -9.776646
    3       -8.791367
    4       -8.729606
    5       -1.946001
    6       -1.907148
    7        1.769694
    8        2.309107
    9        5.947630
   10        6.500227
   11       11.715487
   12       12.012928
 
  0.0000000E+00  0.0000000E+00  0.2500000E+00  0.1736111E-02
    1      -15.134496
    2      -14.963662
    3       -3.737587
    4       -2.542936
    5        1.425986
    6        1.435767
    7        1.442530
    8        1.452010
    9        9.204217
   10       12.775079
   11       12.781586
   12       12.805161
 
  0.8333333E-01  0.0000000E+00  0.2500000E+00  0.6944444E-02
    1      -14.969431
    2      -14.800358
    3       -3.538268
    4       -2.351694
    5        0.782496
    6        0.800553
    7        1.088808
    8        1.103865
    9        9.401391
   10       12.807662
   11       12.880905
   12       13.436240
 
  0.1666667E+00  0.0000000E+00  0.2500000E+00  0.6944444E-02
    1      -14.476033
    2      -14.312217
    3       -2.944943
    4       -1.783979
    5       -0.865607
    6       -0.830478
    7        0.292447
    8        0.314093
    9        9.992232
   10       12.716005
   11       12.850526
   12       13.655536
 
  0.2500000E+00  0.0000000E+00  0.2500000E+00  0.6944444E-02
    1      -13.660198
    2      -13.504992
    3       -2.976156
    4       -2.921316
    5       -1.974182
    6       -0.861633
    7       -0.589734
    8       -0.563885
    9       10.923169
   10       11.545764
   11       11.858679
   12       12.421381
 
  0.3333333E+00  0.0000000E+00  0.2500000E+00  0.6944444E-02
    1      -12.534213
    2      -12.390843
    3       -5.191329
    4       -5.116948
    5       -1.324346
    6       -1.296137
    7       -0.669145
    8        0.355892
    9        9.091347
   10        9.637907
   11       12.008956
   12       12.140488
 