 running on    6 total cores
 distrk:  each k-point on    6 cores,    1 groups
 distr:  one band on    3 cores,    2 groups
 using from now: INCAR     
 vasp.5.3.5 31Mar14 (build Nov 02 2014 15:17:37) complex                        
  
 POSCAR found type information on POSCAR  C 
 POSCAR found :  1 types and       4 ions
 scaLAPACK will be used
 LDA part: xc-table for Pade appr. of Perdew
 POSCAR, INCAR and KPOINTS ok, starting setup
 WARNING: small aliasing (wrap around) errors must be expected
 FFT: planning ...
 WAVECAR not read
 WARNING: random wavefunctions but no delay for mixing, default for NELMDL
 entering main loop
       N       E                     dE             d eps       ncg     rms          rms(c)
DAV:   1     0.731817685904E+02    0.73182E+02   -0.10437E+04  5160   0.172E+03
DAV:   2    -0.338615334350E+02   -0.10704E+03   -0.97896E+02  7404   0.268E+02
DAV:   3    -0.391889617747E+02   -0.53274E+01   -0.52724E+01  6536   0.601E+01
DAV:   4    -0.392613916419E+02   -0.72430E-01   -0.72277E-01  6412   0.796E+00
DAV:   5    -0.392629945432E+02   -0.16029E-02   -0.16018E-02  6480   0.115E+00    0.781E+00
DAV:   6    -0.374448794418E+02    0.18181E+01   -0.17970E+00  5980   0.936E+00    0.410E+00
DAV:   7    -0.368636121378E+02    0.58127E+00   -0.18904E+00  6152   0.969E+00    0.687E-01
DAV:   8    -0.368725549009E+02   -0.89428E-02   -0.52474E-02  5904   0.159E+00    0.915E-02
DAV:   9    -0.368727320600E+02   -0.17716E-03   -0.13262E-03  6520   0.305E-01    0.398E-02
DAV:  10    -0.368728869703E+02   -0.15491E-03   -0.18491E-04  6312   0.121E-01    0.618E-03
DAV:  11    -0.368728879999E+02   -0.10296E-05   -0.33388E-06  6776   0.157E-02    0.183E-03
DAV:  12    -0.368728882685E+02   -0.26863E-06   -0.49843E-07  6404   0.615E-03    0.769E-04
DAV:  13    -0.368728883821E+02   -0.11356E-06   -0.17809E-07  6364   0.358E-03    0.125E-04
DAV:  14    -0.368728883758E+02    0.62299E-08   -0.14748E-09  4480   0.398E-04
   1 F= -.37477906E+02 E0= -.37477906E+02  d E =-.374779E+02
 curvature:   0.00 expect dE= 0.000E+00 dE for cont linesearch  0.000E+00
 trial: gam= 0.00000 g(F)=  0.759E-04 g(S)=  0.000E+00 ort = 0.000E+00 (trialstep = 0.100E+01)
 search vector abs. value=  0.759E-04
 reached required accuracy - stopping structural energy minimisation
