mesh: [     9,     9,     4 ]
nqpoint: 50     
reciprocal_lattice:
- [   0.40553429,   0.23434576,   0.00000000 ] # a*
- [   0.00018224,   0.46837588,   0.00000000 ] # b*
- [   0.00000000,   0.00000000,   0.14499014 ] # c*
natom:   4      
lattice:
- [     2.466437248995937,    -0.000959642981403,     0.000000000000000 ] # a
- [    -1.234049699648306,     2.135517492938035,     0.000000000000000 ] # b
- [     0.000000000000000,     0.000000000000000,     6.897020757271530 ] # c
points:
- symbol: C  # 1
  coordinates: [  0.999346608899160,  0.000653437440448,  0.250000000000000 ]
  mass: 12.010700
- symbol: C  # 2
  coordinates: [  0.000653437440448,  0.999346608899160,  0.750000000000000 ]
  mass: 12.010700
- symbol: C  # 3
  coordinates: [  0.332584924946424,  0.667415057713967,  0.250000000000000 ]
  mass: 12.010700
- symbol: C  # 4
  coordinates: [  0.667415057713967,  0.332584924946424,  0.750000000000000 ]
  mass: 12.010700
phonon:
- q-position: [    0.0000000,    0.0000000,    0.1250000 ]
  weight: 2    
  band:
  - # 1
    frequency:    -2.3156321215
  - # 2
    frequency:    -0.8075197143
  - # 3
    frequency:    -0.7968426015
  - # 4
    frequency:     0.6399326426
  - # 5
    frequency:     0.6758533776
  - # 6
    frequency:     1.9031177974
  - # 7
    frequency:    23.5268133344
  - # 8
    frequency:    26.1962425882
  - # 9
    frequency:    41.2967227835
  - # 10
    frequency:    41.5236497799
  - # 11
    frequency:    41.8182675510
  - # 12
    frequency:    41.8818276820

- q-position: [    0.1111111,    0.0000000,    0.1250000 ]
  weight: 8    
  band:
  - # 1
    frequency:     3.6665730495
  - # 2
    frequency:     4.9002551818
  - # 3
    frequency:     5.9388075119
  - # 4
    frequency:     6.2338463134
  - # 5
    frequency:    11.3331132217
  - # 6
    frequency:    11.4838438301
  - # 7
    frequency:    23.1407155380
  - # 8
    frequency:    25.5992364418
  - # 9
    frequency:    41.5386341236
  - # 10
    frequency:    41.9115911016
  - # 11
    frequency:    41.9495083950
  - # 12
    frequency:    42.3613126746

- q-position: [    0.2222222,    0.0000000,    0.1250000 ]
  weight: 8    
  band:
  - # 1
    frequency:     7.4430475497
  - # 2
    frequency:     8.5819409656
  - # 3
    frequency:    11.5770314374
  - # 4
    frequency:    11.8236094700
  - # 5
    frequency:    22.0634202539
  - # 6
    frequency:    22.0870216505
  - # 7
    frequency:    22.1784500562
  - # 8
    frequency:    23.9382220929
  - # 9
    frequency:    41.7378772060
  - # 10
    frequency:    41.9881541721
  - # 11
    frequency:    43.0754375326
  - # 12
    frequency:    43.3830064892

- q-position: [    0.3333333,    0.0000000,    0.1250000 ]
  weight: 8    
  band:
  - # 1
    frequency:    10.8579287396
  - # 2
    frequency:    11.7588943581
  - # 3
    frequency:    15.9816872680
  - # 4
    frequency:    16.1500613409
  - # 5
    frequency:    20.5399778296
  - # 6
    frequency:    21.5926231955
  - # 7
    frequency:    31.1515970497
  - # 8
    frequency:    31.2284343394
  - # 9
    frequency:    41.8593363874
  - # 10
    frequency:    41.9767681740
  - # 11
    frequency:    43.4983363752
  - # 12
    frequency:    43.6755320542

- q-position: [    0.4444444,    0.0000000,    0.1250000 ]
  weight: 8    
  band:
  - # 1
    frequency:    13.5380925301
  - # 2
    frequency:    13.9571024700
  - # 3
    frequency:    18.4782464224
  - # 4
    frequency:    18.5384525127
  - # 5
    frequency:    19.0647784085
  - # 6
    frequency:    19.3284520823
  - # 7
    frequency:    37.9082036452
  - # 8
    frequency:    37.9656423265
  - # 9
    frequency:    41.8777169942
  - # 10
    frequency:    41.9004726217
  - # 11
    frequency:    42.0188231184
  - # 12
    frequency:    42.1015136703

- q-position: [    0.1111111,    0.1111111,    0.1250000 ]
  weight: 4    
  band:
  - # 1
    frequency:     7.1296656946
  - # 2
    frequency:     7.4342548940
  - # 3
    frequency:    10.5735083280
  - # 4
    frequency:    10.5942329466
  - # 5
    frequency:    18.8831175312
  - # 6
    frequency:    18.9916837637
  - # 7
    frequency:    22.3736524202
  - # 8
    frequency:    24.3729559975
  - # 9
    frequency:    41.9110574425
  - # 10
    frequency:    42.1673436673
  - # 11
    frequency:    42.7181680957
  - # 12
    frequency:    43.0755894719

- q-position: [    0.2222222,    0.1111111,    0.1250000 ]
  weight: 8    
  band:
  - # 1
    frequency:    10.2778686091
  - # 2
    frequency:    10.6974846348
  - # 3
    frequency:    15.8160127083
  - # 4
    frequency:    15.8856485226
  - # 5
    frequency:    21.0250816424
  - # 6
    frequency:    22.2840112887
  - # 7
    frequency:    27.2283925413
  - # 8
    frequency:    27.2913536799
  - # 9
    frequency:    42.2519360567
  - # 10
    frequency:    42.4105531718
  - # 11
    frequency:    43.4051162034
  - # 12
    frequency:    43.6159179571

- q-position: [    0.3333333,    0.1111111,    0.1250000 ]
  weight: 8    
  band:
  - # 1
    frequency:    13.0911915339
  - # 2
    frequency:    13.3671809985
  - # 3
    frequency:    19.4220857021
  - # 4
    frequency:    19.6739756745
  - # 5
    frequency:    19.6994801798
  - # 6
    frequency:    19.8644704784
  - # 7
    frequency:    34.3794294987
  - # 8
    frequency:    34.4210518110
  - # 9
    frequency:    42.1664898373
  - # 10
    frequency:    42.2408146186
  - # 11
    frequency:    43.0341888348
  - # 12
    frequency:    43.1262701537

- q-position: [   -0.5555556,    0.1111111,    0.1250000 ]
  weight: 8    
  band:
  - # 1
    frequency:    14.2467577321
  - # 2
    frequency:    14.6816879627
  - # 3
    frequency:    18.5326019067
  - # 4
    frequency:    18.5873750594
  - # 5
    frequency:    21.2117589119
  - # 6
    frequency:    21.2796203725
  - # 7
    frequency:    39.4219671942
  - # 8
    frequency:    39.4473325288
  - # 9
    frequency:    39.8141597276
  - # 10
    frequency:    39.8751972159
  - # 11
    frequency:    42.6821250349
  - # 12
    frequency:    42.6960064480

- q-position: [   -0.4444444,    0.1111111,    0.1250000 ]
  weight: 8    
  band:
  - # 1
    frequency:    12.2450442642
  - # 2
    frequency:    13.2782716834
  - # 3
    frequency:    19.6113381044
  - # 4
    frequency:    20.0671805667
  - # 5
    frequency:    20.2353065423
  - # 6
    frequency:    20.2825064409
  - # 7
    frequency:    34.6463895438
  - # 8
    frequency:    34.7345278643
  - # 9
    frequency:    41.9462604247
  - # 10
    frequency:    41.9937632066
  - # 11
    frequency:    42.7902951086
  - # 12
    frequency:    42.9119526547

- q-position: [   -0.3333333,    0.1111111,    0.1250000 ]
  weight: 8    
  band:
  - # 1
    frequency:     9.1428657949
  - # 2
    frequency:    10.6249576150
  - # 3
    frequency:    16.4591210442
  - # 4
    frequency:    16.7039955406
  - # 5
    frequency:    21.1747893795
  - # 6
    frequency:    22.6801876462
  - # 7
    frequency:    27.5178658921
  - # 8
    frequency:    27.6356797838
  - # 9
    frequency:    41.9562060595
  - # 10
    frequency:    42.1334151229
  - # 11
    frequency:    43.1875706074
  - # 12
    frequency:    43.4158088147

- q-position: [   -0.2222222,    0.1111111,    0.1250000 ]
  weight: 8    
  band:
  - # 1
    frequency:     5.6337273802
  - # 2
    frequency:     7.6021621470
  - # 3
    frequency:    11.0833300982
  - # 4
    frequency:    11.3731208655
  - # 5
    frequency:    19.2700067903
  - # 6
    frequency:    19.4282686419
  - # 7
    frequency:    22.4599099012
  - # 8
    frequency:    24.6418808381
  - # 9
    frequency:    41.6114225422
  - # 10
    frequency:    41.9674986722
  - # 11
    frequency:    42.6315282507
  - # 12
    frequency:    42.9294934673

- q-position: [   -0.1111111,    0.1111111,    0.1250000 ]
  weight: 4    
  band:
  - # 1
    frequency:     2.4679941362
  - # 2
    frequency:     5.0409976123
  - # 3
    frequency:     5.8661556508
  - # 4
    frequency:     6.3147277889
  - # 5
    frequency:    11.7464911982
  - # 6
    frequency:    11.9845535324
  - # 7
    frequency:    23.1683913051
  - # 8
    frequency:    25.6940207058
  - # 9
    frequency:    41.3723464475
  - # 10
    frequency:    41.8558898861
  - # 11
    frequency:    41.9720843779
  - # 12
    frequency:    42.2936795154

- q-position: [    0.2222222,    0.2222222,    0.1250000 ]
  weight: 4    
  band:
  - # 1
    frequency:    12.9657344749
  - # 2
    frequency:    13.1190354631
  - # 3
    frequency:    19.5467870279
  - # 4
    frequency:    20.0558853379
  - # 5
    frequency:    21.6246546267
  - # 6
    frequency:    21.6302028518
  - # 7
    frequency:    31.9674515220
  - # 8
    frequency:    32.0018859626
  - # 9
    frequency:    42.6175245510
  - # 10
    frequency:    42.7169053411
  - # 11
    frequency:    43.0709308975
  - # 12
    frequency:    43.1434103002

- q-position: [    0.3333333,    0.2222222,    0.1250000 ]
  weight: 8    
  band:
  - # 1
    frequency:    14.9751554450
  - # 2
    frequency:    15.1952953421
  - # 3
    frequency:    17.9255005146
  - # 4
    frequency:    18.0552214354
  - # 5
    frequency:    25.5686836027
  - # 6
    frequency:    25.6059807285
  - # 7
    frequency:    36.1770916449
  - # 8
    frequency:    36.1856274936
  - # 9
    frequency:    40.2597990039
  - # 10
    frequency:    40.2795502178
  - # 11
    frequency:    43.6199916804
  - # 12
    frequency:    43.6351260621

- q-position: [   -0.5555556,    0.2222222,    0.1250000 ]
  weight: 8    
  band:
  - # 1
    frequency:    14.1648867086
  - # 2
    frequency:    14.9793968785
  - # 3
    frequency:    18.3177437418
  - # 4
    frequency:    18.5001556444
  - # 5
    frequency:    25.8963288450
  - # 6
    frequency:    26.0060873311
  - # 7
    frequency:    36.4365529473
  - # 8
    frequency:    36.4923990204
  - # 9
    frequency:    39.8818094513
  - # 10
    frequency:    39.9152946855
  - # 11
    frequency:    43.4960891598
  - # 12
    frequency:    43.5213267574

- q-position: [   -0.4444444,    0.2222222,    0.1250000 ]
  weight: 8    
  band:
  - # 1
    frequency:    11.6831338433
  - # 2
    frequency:    12.8837299743
  - # 3
    frequency:    19.8089593990
  - # 4
    frequency:    20.7497679485
  - # 5
    frequency:    22.3111387801
  - # 6
    frequency:    22.4675991779
  - # 7
    frequency:    32.2972832638
  - # 8
    frequency:    32.4175581571
  - # 9
    frequency:    42.2118094012
  - # 10
    frequency:    42.3069190168
  - # 11
    frequency:    42.7601113172
  - # 12
    frequency:    42.8751032431

- q-position: [   -0.3333333,    0.2222222,    0.1250000 ]
  weight: 8    
  band:
  - # 1
    frequency:     8.9030381524
  - # 2
    frequency:    10.5034779256
  - # 3
    frequency:    16.3970241978
  - # 4
    frequency:    16.5842058031
  - # 5
    frequency:    21.1838223452
  - # 6
    frequency:    22.8337560670
  - # 7
    frequency:    27.7482536398
  - # 8
    frequency:    27.9188182014
  - # 9
    frequency:    41.9300649014
  - # 10
    frequency:    42.1958964911
  - # 11
    frequency:    43.0591661302
  - # 12
    frequency:    43.2248173873

- q-position: [   -0.2222222,    0.2222222,    0.1250000 ]
  weight: 4    
  band:
  - # 1
    frequency:     6.3977759958
  - # 2
    frequency:     8.4305104529
  - # 3
    frequency:    11.7265359701
  - # 4
    frequency:    11.9805357452
  - # 5
    frequency:    22.1366411000
  - # 6
    frequency:    22.6057937752
  - # 7
    frequency:    22.8156628003
  - # 8
    frequency:    24.2405007675
  - # 9
    frequency:    41.5465103416
  - # 10
    frequency:    41.9261934079
  - # 11
    frequency:    42.8776068214
  - # 12
    frequency:    43.1058639335

- q-position: [   -0.6666667,    0.3333333,    0.1250000 ]
  weight: 4    
  band:
  - # 1
    frequency:    16.0175673976
  - # 2
    frequency:    16.3150352054
  - # 3
    frequency:    16.8382635016
  - # 4
    frequency:    16.9966922472
  - # 5
    frequency:    29.3212301256
  - # 6
    frequency:    29.3591498964
  - # 7
    frequency:    37.3634819626
  - # 8
    frequency:    37.3875046737
  - # 9
    frequency:    37.4479561660
  - # 10
    frequency:    37.4570928972
  - # 11
    frequency:    44.0239272813
  - # 12
    frequency:    44.0320503612

- q-position: [   -0.5555556,    0.3333333,    0.1250000 ]
  weight: 8    
  band:
  - # 1
    frequency:    14.2463287188
  - # 2
    frequency:    14.8674852459
  - # 3
    frequency:    18.2900445373
  - # 4
    frequency:    18.5698699798
  - # 5
    frequency:    26.0236426718
  - # 6
    frequency:    26.0888329144
  - # 7
    frequency:    36.3078433545
  - # 8
    frequency:    36.3823906134
  - # 9
    frequency:    39.9203072442
  - # 10
    frequency:    39.9444245572
  - # 11
    frequency:    43.4873133795
  - # 12
    frequency:    43.5146828223

- q-position: [   -0.4444444,    0.3333333,    0.1250000 ]
  weight: 8    
  band:
  - # 1
    frequency:    12.2634707599
  - # 2
    frequency:    13.1308390766
  - # 3
    frequency:    19.5477869056
  - # 4
    frequency:    20.0398171341
  - # 5
    frequency:    20.1322627911
  - # 6
    frequency:    20.4529552524
  - # 7
    frequency:    34.7471500911
  - # 8
    frequency:    34.8755939783
  - # 9
    frequency:    41.9267344979
  - # 10
    frequency:    42.0553173383
  - # 11
    frequency:    42.7088597221
  - # 12
    frequency:    42.7645053322

- q-position: [   -0.3333333,    0.3333333,    0.1250000 ]
  weight: 4    
  band:
  - # 1
    frequency:    10.2428221060
  - # 2
    frequency:    11.4975058484
  - # 3
    frequency:    16.1001165893
  - # 4
    frequency:    16.2468732720
  - # 5
    frequency:    20.5849742295
  - # 6
    frequency:    22.0149739845
  - # 7
    frequency:    31.5679938502
  - # 8
    frequency:    31.7328175944
  - # 9
    frequency:    41.7152209003
  - # 10
    frequency:    41.9507429608
  - # 11
    frequency:    43.2088398733
  - # 12
    frequency:    43.3211957449

- q-position: [   -0.5555556,    0.4444444,    0.1250000 ]
  weight: 4    
  band:
  - # 1
    frequency:    14.2581509586
  - # 2
    frequency:    14.5426580792
  - # 3
    frequency:    18.5942315160
  - # 4
    frequency:    18.6632750360
  - # 5
    frequency:    21.3483862001
  - # 6
    frequency:    21.3668013136
  - # 7
    frequency:    39.4358582678
  - # 8
    frequency:    39.4620669588
  - # 9
    frequency:    39.7445353473
  - # 10
    frequency:    39.8012505336
  - # 11
    frequency:    42.6464472979
  - # 12
    frequency:    42.6561989404

- q-position: [   -0.4444444,    0.4444444,    0.1250000 ]
  weight: 4    
  band:
  - # 1
    frequency:    13.4507078162
  - # 2
    frequency:    13.8583244425
  - # 3
    frequency:    18.4969820307
  - # 4
    frequency:    18.5450002790
  - # 5
    frequency:    19.0136327964
  - # 6
    frequency:    19.5501344936
  - # 7
    frequency:    38.0466186528
  - # 8
    frequency:    38.1423247082
  - # 9
    frequency:    41.8275510194
  - # 10
    frequency:    41.8798725434
  - # 11
    frequency:    41.9056249640
  - # 12
    frequency:    41.9064593328

- q-position: [    0.0000000,    0.0000000,    0.3750000 ]
  weight: 2    
  band:
  - # 1
    frequency:    -2.4266989663
  - # 2
    frequency:    -1.9877145245
  - # 3
    frequency:    -1.9801128984
  - # 4
    frequency:    -1.8867602459
  - # 5
    frequency:     1.7692197965
  - # 6
    frequency:     2.4681239772
  - # 7
    frequency:    25.3029881622
  - # 8
    frequency:    26.3979612101
  - # 9
    frequency:    38.3697662909
  - # 10
    frequency:    38.6031647102
  - # 11
    frequency:    38.9462843732
  - # 12
    frequency:    39.1056858848

- q-position: [    0.1111111,    0.0000000,    0.3750000 ]
  weight: 8    
  band:
  - # 1
    frequency:     4.2536490986
  - # 2
    frequency:     4.8036496781
  - # 3
    frequency:     5.8908964608
  - # 4
    frequency:     6.0158359517
  - # 5
    frequency:    11.2465800585
  - # 6
    frequency:    11.3112756752
  - # 7
    frequency:    24.7662226230
  - # 8
    frequency:    25.7750402351
  - # 9
    frequency:    39.0884817199
  - # 10
    frequency:    39.2749315667
  - # 11
    frequency:    39.6005871114
  - # 12
    frequency:    39.7616026493

- q-position: [    0.2222222,    0.0000000,    0.3750000 ]
  weight: 8    
  band:
  - # 1
    frequency:     7.7962696262
  - # 2
    frequency:     8.2728421885
  - # 3
    frequency:    11.7055025218
  - # 4
    frequency:    11.8079137026
  - # 5
    frequency:    22.0898559116
  - # 6
    frequency:    22.1288153953
  - # 7
    frequency:    23.2792576248
  - # 8
    frequency:    24.0484247502
  - # 9
    frequency:    40.1599088231
  - # 10
    frequency:    40.2701131160
  - # 11
    frequency:    41.5191696622
  - # 12
    frequency:    41.6488888133

- q-position: [    0.3333333,    0.0000000,    0.3750000 ]
  weight: 8    
  band:
  - # 1
    frequency:    11.0697506546
  - # 2
    frequency:    11.4398409199
  - # 3
    frequency:    16.0957371057
  - # 4
    frequency:    16.1654967712
  - # 5
    frequency:    21.1955904220
  - # 6
    frequency:    21.6294048111
  - # 7
    frequency:    31.2611656167
  - # 8
    frequency:    31.2927775659
  - # 9
    frequency:    41.1843833047
  - # 10
    frequency:    41.2336945284
  - # 11
    frequency:    42.7896133219
  - # 12
    frequency:    42.8639822570

- q-position: [    0.4444444,    0.0000000,    0.3750000 ]
  weight: 8    
  band:
  - # 1
    frequency:    13.6447652469
  - # 2
    frequency:    13.8177219268
  - # 3
    frequency:    18.5067330157
  - # 4
    frequency:    18.5316602060
  - # 5
    frequency:    19.2043560372
  - # 6
    frequency:    19.3142594370
  - # 7
    frequency:    38.0104272816
  - # 8
    frequency:    38.0340226783
  - # 9
    frequency:    41.7977083602
  - # 10
    frequency:    41.8071829322
  - # 11
    frequency:    41.8756917404
  - # 12
    frequency:    41.9103761008

- q-position: [    0.1111111,    0.1111111,    0.3750000 ]
  weight: 4    
  band:
  - # 1
    frequency:     7.2942882388
  - # 2
    frequency:     7.4769816591
  - # 3
    frequency:    10.3487595515
  - # 4
    frequency:    10.3542259758
  - # 5
    frequency:    18.7910761890
  - # 6
    frequency:    18.8374026921
  - # 7
    frequency:    23.6815401573
  - # 8
    frequency:    24.5028367368
  - # 9
    frequency:    40.2480433508
  - # 10
    frequency:    40.3589534467
  - # 11
    frequency:    40.8646108268
  - # 12
    frequency:    41.0195557226

- q-position: [    0.2222222,    0.1111111,    0.3750000 ]
  weight: 8    
  band:
  - # 1
    frequency:    10.4211324423
  - # 2
    frequency:    10.5996564761
  - # 3
    frequency:    15.7234581566
  - # 4
    frequency:    15.7525845097
  - # 5
    frequency:    21.8203690002
  - # 6
    frequency:    22.3382921731
  - # 7
    frequency:    27.1649730847
  - # 8
    frequency:    27.1915134933
  - # 9
    frequency:    41.4011067106
  - # 10
    frequency:    41.4687130363
  - # 11
    frequency:    42.4737379175
  - # 12
    frequency:    42.5625262692

- q-position: [    0.3333333,    0.1111111,    0.3750000 ]
  weight: 8    
  band:
  - # 1
    frequency:    13.1738822200
  - # 2
    frequency:    13.2873217821
  - # 3
    frequency:    19.6363596752
  - # 4
    frequency:    19.6431463277
  - # 5
    frequency:    19.6714934070
  - # 6
    frequency:    19.8503172501
  - # 7
    frequency:    34.3898463664
  - # 8
    frequency:    34.4070556445
  - # 9
    frequency:    41.9757134688
  - # 10
    frequency:    42.0066957416
  - # 11
    frequency:    42.8442739596
  - # 12
    frequency:    42.8818904420

- q-position: [   -0.5555556,    0.1111111,    0.3750000 ]
  weight: 8    
  band:
  - # 1
    frequency:    14.3526855131
  - # 2
    frequency:    14.5345860650
  - # 3
    frequency:    18.5361118055
  - # 4
    frequency:    18.5605053537
  - # 5
    frequency:    21.3015769921
  - # 6
    frequency:    21.3295484696
  - # 7
    frequency:    39.3927456169
  - # 8
    frequency:    39.4049719512
  - # 9
    frequency:    39.9526797894
  - # 10
    frequency:    39.9761657662
  - # 11
    frequency:    42.7238900077
  - # 12
    frequency:    42.7295628518

- q-position: [   -0.4444444,    0.1111111,    0.3750000 ]
  weight: 8    
  band:
  - # 1
    frequency:    12.4079422588
  - # 2
    frequency:    12.8360071584
  - # 3
    frequency:    20.0167878702
  - # 4
    frequency:    20.2944539667
  - # 5
    frequency:    20.3964461708
  - # 6
    frequency:    20.4657184542
  - # 7
    frequency:    34.8657157964
  - # 8
    frequency:    34.9013876983
  - # 9
    frequency:    41.6146712896
  - # 10
    frequency:    41.6353492521
  - # 11
    frequency:    42.4234353885
  - # 12
    frequency:    42.4731335753

- q-position: [   -0.3333333,    0.1111111,    0.3750000 ]
  weight: 8    
  band:
  - # 1
    frequency:     9.4381078779
  - # 2
    frequency:    10.0574465009
  - # 3
    frequency:    16.9650578980
  - # 4
    frequency:    17.0640583520
  - # 5
    frequency:    22.1206977559
  - # 6
    frequency:    22.7391006362
  - # 7
    frequency:    27.6571618773
  - # 8
    frequency:    27.7054988918
  - # 9
    frequency:    40.8714631276
  - # 10
    frequency:    40.9463824911
  - # 11
    frequency:    42.1475974162
  - # 12
    frequency:    42.2439256334

- q-position: [   -0.2222222,    0.1111111,    0.3750000 ]
  weight: 8    
  band:
  - # 1
    frequency:     6.1901631315
  - # 2
    frequency:     7.0185657774
  - # 3
    frequency:    11.4758458989
  - # 4
    frequency:    11.5896953340
  - # 5
    frequency:    19.4198238272
  - # 6
    frequency:    19.4840933058
  - # 7
    frequency:    23.8714974430
  - # 8
    frequency:    24.7665751732
  - # 9
    frequency:    39.6487778321
  - # 10
    frequency:    39.8059162870
  - # 11
    frequency:    40.8148227671
  - # 12
    frequency:    40.9417176224

- q-position: [   -0.1111111,    0.1111111,    0.3750000 ]
  weight: 4    
  band:
  - # 1
    frequency:     3.5415806742
  - # 2
    frequency:     4.5711002247
  - # 3
    frequency:     5.9905790628
  - # 4
    frequency:     6.1744724414
  - # 5
    frequency:    11.9355377438
  - # 6
    frequency:    12.0317200624
  - # 7
    frequency:    24.8307650252
  - # 8
    frequency:    25.8665867711
  - # 9
    frequency:    38.7917590451
  - # 10
    frequency:    39.0058179216
  - # 11
    frequency:    39.6568366199
  - # 12
    frequency:    39.7988146791

- q-position: [    0.2222222,    0.2222222,    0.3750000 ]
  weight: 4    
  band:
  - # 1
    frequency:    13.0210245535
  - # 2
    frequency:    13.0846691871
  - # 3
    frequency:    19.8309622516
  - # 4
    frequency:    20.0405360791
  - # 5
    frequency:    21.5862882804
  - # 6
    frequency:    21.5885047486
  - # 7
    frequency:    31.9170057081
  - # 8
    frequency:    31.9313659316
  - # 9
    frequency:    42.3682798628
  - # 10
    frequency:    42.4093886669
  - # 11
    frequency:    42.8754617809
  - # 12
    frequency:    42.9053078847

- q-position: [    0.3333333,    0.2222222,    0.3750000 ]
  weight: 8    
  band:
  - # 1
    frequency:    15.0431037222
  - # 2
    frequency:    15.1383470296
  - # 3
    frequency:    17.8763636475
  - # 4
    frequency:    17.9280290452
  - # 5
    frequency:    25.6374471847
  - # 6
    frequency:    25.6527288880
  - # 7
    frequency:    36.2236470689
  - # 8
    frequency:    36.2272995292
  - # 9
    frequency:    40.4483328632
  - # 10
    frequency:    40.4563017971
  - # 11
    frequency:    43.7373527474
  - # 12
    frequency:    43.7435940260

- q-position: [   -0.5555556,    0.2222222,    0.3750000 ]
  weight: 8    
  band:
  - # 1
    frequency:    14.2352836429
  - # 2
    frequency:    14.5781860420
  - # 3
    frequency:    18.4221625026
  - # 4
    frequency:    18.5002463150
  - # 5
    frequency:    26.2391479449
  - # 6
    frequency:    26.2840456166
  - # 7
    frequency:    36.6905718060
  - # 8
    frequency:    36.7120159938
  - # 9
    frequency:    39.8183914654
  - # 10
    frequency:    39.8332428943
  - # 11
    frequency:    43.5381668266
  - # 12
    frequency:    43.5486864333

- q-position: [   -0.4444444,    0.2222222,    0.3750000 ]
  weight: 8    
  band:
  - # 1
    frequency:    11.8131731330
  - # 2
    frequency:    12.3190942196
  - # 3
    frequency:    20.3639382919
  - # 4
    frequency:    20.7498330224
  - # 5
    frequency:    22.8693040985
  - # 6
    frequency:    22.9319730871
  - # 7
    frequency:    32.4867973701
  - # 8
    frequency:    32.5360549468
  - # 9
    frequency:    41.7099438157
  - # 10
    frequency:    41.7489933289
  - # 11
    frequency:    42.3644717595
  - # 12
    frequency:    42.4124011212

- q-position: [   -0.3333333,    0.2222222,    0.3750000 ]
  weight: 8    
  band:
  - # 1
    frequency:     9.1687985186
  - # 2
    frequency:     9.8520588756
  - # 3
    frequency:    16.7805844886
  - # 4
    frequency:    16.8535985274
  - # 5
    frequency:    22.1978214601
  - # 6
    frequency:    22.8741763157
  - # 7
    frequency:    28.0871055651
  - # 8
    frequency:    28.1570647479
  - # 9
    frequency:    40.8618788640
  - # 10
    frequency:    40.9727430549
  - # 11
    frequency:    41.9262301361
  - # 12
    frequency:    41.9979346275

- q-position: [   -0.2222222,    0.2222222,    0.3750000 ]
  weight: 4    
  band:
  - # 1
    frequency:     6.8659209943
  - # 2
    frequency:     7.7348857977
  - # 3
    frequency:    11.9181756531
  - # 4
    frequency:    12.0198098698
  - # 5
    frequency:    23.0360222599
  - # 6
    frequency:    23.1217472922
  - # 7
    frequency:    23.4747550132
  - # 8
    frequency:    24.3357457791
  - # 9
    frequency:    39.8402381197
  - # 10
    frequency:    40.0039937212
  - # 11
    frequency:    41.2095806131
  - # 12
    frequency:    41.3084334953

- q-position: [   -0.6666667,    0.3333333,    0.3750000 ]
  weight: 4    
  band:
  - # 1
    frequency:    15.9623860789
  - # 2
    frequency:    16.1379371145
  - # 3
    frequency:    16.8431831734
  - # 4
    frequency:    16.8600649249
  - # 5
    frequency:    29.5698239706
  - # 6
    frequency:    29.5850909367
  - # 7
    frequency:    37.5336249195
  - # 8
    frequency:    37.5428216333
  - # 9
    frequency:    37.6795302415
  - # 10
    frequency:    37.6834627375
  - # 11
    frequency:    44.1927406080
  - # 12
    frequency:    44.1966320813

- q-position: [   -0.5555556,    0.3333333,    0.3750000 ]
  weight: 8    
  band:
  - # 1
    frequency:    14.2577682329
  - # 2
    frequency:    14.5222504020
  - # 3
    frequency:    18.4254381518
  - # 4
    frequency:    18.5384914964
  - # 5
    frequency:    26.4452880078
  - # 6
    frequency:    26.4715702656
  - # 7
    frequency:    36.4710660453
  - # 8
    frequency:    36.5010598410
  - # 9
    frequency:    39.8840530997
  - # 10
    frequency:    39.8943170336
  - # 11
    frequency:    43.5273300276
  - # 12
    frequency:    43.5391036575

- q-position: [   -0.4444444,    0.3333333,    0.3750000 ]
  weight: 8    
  band:
  - # 1
    frequency:    12.3430276738
  - # 2
    frequency:    12.7147759773
  - # 3
    frequency:    20.0415762226
  - # 4
    frequency:    20.2904582443
  - # 5
    frequency:    20.3270187135
  - # 6
    frequency:    20.4116653777
  - # 7
    frequency:    35.0553831204
  - # 8
    frequency:    35.1081146213
  - # 9
    frequency:    41.6056176779
  - # 10
    frequency:    41.6552772674
  - # 11
    frequency:    42.2978254503
  - # 12
    frequency:    42.3243724219

- q-position: [   -0.3333333,    0.3333333,    0.3750000 ]
  weight: 4    
  band:
  - # 1
    frequency:    10.4081188605
  - # 2
    frequency:    10.9495081705
  - # 3
    frequency:    16.2285309412
  - # 4
    frequency:    16.2878040996
  - # 5
    frequency:    21.4248026964
  - # 6
    frequency:    22.0106543355
  - # 7
    frequency:    32.0191677199
  - # 8
    frequency:    32.0862973469
  - # 9
    frequency:    41.0023685706
  - # 10
    frequency:    41.1013399352
  - # 11
    frequency:    42.2976888084
  - # 12
    frequency:    42.3452208862

- q-position: [   -0.5555556,    0.4444444,    0.3750000 ]
  weight: 4    
  band:
  - # 1
    frequency:    14.3002319135
  - # 2
    frequency:    14.4191768307
  - # 3
    frequency:    18.6175810893
  - # 4
    frequency:    18.6467639907
  - # 5
    frequency:    21.5144862237
  - # 6
    frequency:    21.5220623513
  - # 7
    frequency:    39.4449140851
  - # 8
    frequency:    39.4554379524
  - # 9
    frequency:    39.8148038705
  - # 10
    frequency:    39.8376106987
  - # 11
    frequency:    42.6686774476
  - # 12
    frequency:    42.6730212974

- q-position: [   -0.4444444,    0.4444444,    0.3750000 ]
  weight: 4    
  band:
  - # 1
    frequency:    13.5138307430
  - # 2
    frequency:    13.6893211375
  - # 3
    frequency:    18.5238111926
  - # 4
    frequency:    18.5435762683
  - # 5
    frequency:    19.2614939393
  - # 6
    frequency:    19.4809889336
  - # 7
    frequency:    38.2703934702
  - # 8
    frequency:    38.3097435513
  - # 9
    frequency:    41.6261954538
  - # 10
    frequency:    41.6369317711
  - # 11
    frequency:    41.7546409396
  - # 12
    frequency:    41.7873624587

