  32  32   0   0
  0.9079817E+01  0.4932875E-09  0.4932875E-09  0.1379404E-08  0.5000000E-15
  1.000000000000000E-004
  CAR 
 graphite                                
     15.08315923    -17.16833648  301      4.43523133      1.00000000
    -17.168  0.0000E+00  0.0000E+00
    -17.061  0.0000E+00  0.0000E+00
    -16.953  0.0000E+00  0.0000E+00
    -16.846  0.0000E+00  0.0000E+00
    -16.738  0.0000E+00  0.0000E+00
    -16.631  0.0000E+00  0.0000E+00
    -16.523  0.0000E+00  0.0000E+00
    -16.416  0.0000E+00  0.0000E+00
    -16.308  0.0000E+00  0.0000E+00
    -16.201  0.0000E+00  0.0000E+00
    -16.093  0.0000E+00  0.0000E+00
    -15.986  0.0000E+00  0.0000E+00
    -15.878  0.0000E+00  0.0000E+00
    -15.771  0.0000E+00  0.0000E+00
    -15.663  0.0000E+00  0.0000E+00
    -15.556  0.0000E+00  0.0000E+00
    -15.448  0.0000E+00  0.0000E+00
    -15.341  0.0000E+00  0.0000E+00
    -15.233  0.0000E+00  0.0000E+00
    -15.126  0.3703E+00  0.6055E-02
    -15.018  0.2686E+01  0.1560E+00
    -14.911  0.3915E+01  0.5006E+00
    -14.803  0.5170E+01  0.1005E+01
    -14.696  0.4858E+01  0.1525E+01
    -14.588  0.5099E+01  0.2064E+01
    -14.481  0.5012E+01  0.2609E+01
    -14.373  0.4824E+01  0.3138E+01
    -14.266  0.4846E+01  0.3655E+01
    -14.158  0.5079E+01  0.4188E+01
    -14.051  0.5312E+01  0.4747E+01
    -13.943  0.7232E+01  0.5418E+01
    -13.836  0.7821E+01  0.6231E+01
    -13.728  0.6079E+01  0.7068E+01
    -13.621  0.2449E+01  0.7493E+01
    -13.513  0.1870E+01  0.7714E+01
    -13.406  0.2130E+01  0.7925E+01
    -13.298  0.2502E+01  0.8174E+01
    -13.191  0.2900E+01  0.8463E+01
    -13.083  0.8653E+01  0.8961E+01
    -12.976  0.9059E+01  0.1005E+02
    -12.868  0.7014E+01  0.1096E+02
    -12.761  0.4007E+01  0.1144E+02
    -12.653  0.4109E+01  0.1188E+02
    -12.546  0.4214E+01  0.1233E+02
    -12.438  0.4350E+01  0.1279E+02
    -12.331  0.4486E+01  0.1326E+02
    -12.223  0.4612E+01  0.1375E+02
    -12.116  0.4737E+01  0.1425E+02
    -12.008  0.5475E+01  0.1480E+02
    -11.901  0.6348E+01  0.1543E+02
    -11.793  0.6103E+01  0.1611E+02
    -11.686  0.5631E+01  0.1674E+02
    -11.578  0.5430E+01  0.1733E+02
    -11.471  0.5594E+01  0.1792E+02
    -11.363  0.5757E+01  0.1853E+02
    -11.256  0.5921E+01  0.1916E+02
    -11.148  0.5928E+01  0.1980E+02
    -11.041  0.5586E+01  0.2042E+02
    -10.933  0.5368E+01  0.2101E+02
    -10.826  0.5304E+01  0.2158E+02
    -10.718  0.4138E+01  0.2209E+02
    -10.611  0.4452E+01  0.2254E+02
    -10.503  0.4995E+01  0.2305E+02
    -10.396  0.5175E+01  0.2360E+02
    -10.288  0.5355E+01  0.2417E+02
    -10.181  0.8202E+01  0.2489E+02
    -10.073  0.1096E+02  0.2602E+02
     -9.966  0.8667E+01  0.2707E+02
     -9.858  0.6373E+01  0.2788E+02
     -9.750  0.4755E+01  0.2846E+02
     -9.643  0.4296E+01  0.2895E+02
     -9.535  0.3837E+01  0.2938E+02
     -9.428  0.4406E+01  0.2977E+02
     -9.320  0.6612E+01  0.3054E+02
     -9.213  0.1998E+01  0.3094E+02
     -9.105  0.1797E+01  0.3114E+02
     -8.998  0.1595E+01  0.3132E+02
     -8.890  0.1393E+01  0.3148E+02
     -8.783  0.1208E+01  0.3162E+02
     -8.675  0.1616E+01  0.3177E+02
     -8.568  0.2114E+01  0.3197E+02
     -8.460  0.2611E+01  0.3222E+02
     -8.353  0.3683E+01  0.3254E+02
     -8.245  0.8220E+01  0.3317E+02
     -8.138  0.8135E+01  0.3423E+02
     -8.030  0.4675E+01  0.3482E+02
     -7.923  0.5816E+01  0.3538E+02
     -7.815  0.6958E+01  0.3607E+02
     -7.708  0.8099E+01  0.3688E+02
     -7.600  0.9241E+01  0.3781E+02
     -7.493  0.8256E+01  0.3882E+02
     -7.385  0.5592E+01  0.3953E+02
     -7.278  0.5578E+01  0.4013E+02
     -7.170  0.5626E+01  0.4073E+02
     -7.063  0.5475E+01  0.4133E+02
     -6.955  0.5318E+01  0.4191E+02
     -6.848  0.5153E+01  0.4247E+02
     -6.740  0.5035E+01  0.4302E+02
     -6.633  0.4917E+01  0.4355E+02
     -6.525  0.4798E+01  0.4408E+02
     -6.418  0.4680E+01  0.4459E+02
     -6.310  0.4561E+01  0.4508E+02
     -6.203  0.4443E+01  0.4557E+02
     -6.095  0.4379E+01  0.4604E+02
     -5.988  0.4959E+01  0.4654E+02
     -5.880  0.5541E+01  0.4710E+02
     -5.773  0.6124E+01  0.4773E+02
     -5.665  0.6706E+01  0.4842E+02
     -5.558  0.7288E+01  0.4917E+02
     -5.450  0.7870E+01  0.4999E+02
     -5.343  0.8452E+01  0.5086E+02
     -5.235  0.9034E+01  0.5180E+02
     -5.128  0.3842E+01  0.5246E+02
     -5.020  0.6241E+01  0.5297E+02
     -4.913  0.6707E+01  0.5372E+02
     -4.805  0.5270E+01  0.5437E+02
     -4.698  0.3833E+01  0.5486E+02
     -4.590  0.2395E+01  0.5519E+02
     -4.483  0.1073E+01  0.5537E+02
     -4.375  0.2260E+01  0.5554E+02
     -4.268  0.3718E+01  0.5586E+02
     -4.160  0.5176E+01  0.5634E+02
     -4.053  0.8233E+01  0.5700E+02
     -3.945  0.1139E+02  0.5812E+02
     -3.838  0.1092E+02  0.5932E+02
     -3.730  0.1371E+02  0.6062E+02
     -3.623  0.7774E+01  0.6178E+02
     -3.515  0.4799E+01  0.6237E+02
     -3.408  0.5820E+01  0.6294E+02
     -3.300  0.6845E+01  0.6363E+02
     -3.193  0.1105E+02  0.6455E+02
     -3.085  0.1644E+02  0.6602E+02
     -2.978  0.2178E+02  0.6826E+02
     -2.870  0.6681E+01  0.6924E+02
     -2.763  0.6908E+01  0.6997E+02
     -2.655  0.7234E+01  0.7073E+02
     -2.548  0.7982E+01  0.7153E+02
     -2.440  0.1113E+02  0.7254E+02
     -2.333  0.1612E+02  0.7421E+02
     -2.225  0.1268E+02  0.7575E+02
     -2.118  0.1229E+02  0.7695E+02
     -2.010  0.1959E+02  0.7855E+02
     -1.903  0.1471E+02  0.8160E+02
     -1.795  0.2072E+02  0.8360E+02
     -1.688  0.1323E+02  0.8524E+02
     -1.580  0.1498E+02  0.8675E+02
     -1.473  0.1468E+02  0.8844E+02
     -1.365  0.8386E+01  0.8961E+02
     -1.258  0.6765E+01  0.9037E+02
     -1.150  0.7750E+01  0.9116E+02
     -1.043  0.8524E+01  0.9203E+02
     -0.935  0.9733E+01  0.9300E+02
     -0.828  0.1065E+02  0.9412E+02
     -0.720  0.1030E+02  0.9524E+02
     -0.613  0.1102E+02  0.9639E+02
     -0.505  0.1147E+02  0.9817E+02
     -0.398  0.1135E+02  0.9940E+02
     -0.290  0.1207E+02  0.1007E+03
     -0.183  0.1070E+02  0.1019E+03
     -0.075  0.1023E+02  0.1030E+03
      0.032  0.9958E+01  0.1041E+03
      0.140  0.9674E+01  0.1051E+03
      0.247  0.9580E+01  0.1062E+03
      0.355  0.9620E+01  0.1072E+03
      0.462  0.9351E+01  0.1082E+03
      0.570  0.9115E+01  0.1092E+03
      0.677  0.9015E+01  0.1102E+03
      0.785  0.9435E+01  0.1112E+03
      0.893  0.9573E+01  0.1122E+03
      1.000  0.9701E+01  0.1132E+03
      1.108  0.1132E+02  0.1143E+03
      1.215  0.1033E+02  0.1155E+03
      1.323  0.8949E+01  0.1165E+03
      1.430  0.7208E+01  0.1174E+03
      1.538  0.6166E+01  0.1181E+03
      1.645  0.5649E+01  0.1188E+03
      1.753  0.3955E+01  0.1193E+03
      1.860  0.3231E+01  0.1197E+03
      1.968  0.2803E+01  0.1200E+03
      2.075  0.4349E+01  0.1203E+03
      2.183  0.6464E+01  0.1209E+03
      2.290  0.9464E+01  0.1217E+03
      2.398  0.8873E+01  0.1228E+03
      2.505  0.7448E+01  0.1237E+03
      2.613  0.6488E+01  0.1244E+03
      2.720  0.4976E+01  0.1251E+03
      2.828  0.3982E+01  0.1255E+03
      2.935  0.3379E+01  0.1259E+03
      3.043  0.3036E+01  0.1263E+03
      3.150  0.2678E+01  0.1266E+03
      3.258  0.2331E+01  0.1268E+03
      3.365  0.2027E+01  0.1271E+03
      3.473  0.1724E+01  0.1273E+03
      3.580  0.1431E+01  0.1275E+03
      3.688  0.1216E+01  0.1276E+03
      3.795  0.1000E+01  0.1277E+03
      3.903  0.7848E+00  0.1278E+03
      4.010  0.5932E+00  0.1279E+03
      4.118  0.4235E+00  0.1279E+03
      4.225  0.2675E+00  0.1280E+03
      4.333  0.1235E+00  0.1280E+03
      4.440  0.3133E-03  0.1280E+03
      4.548  0.1074E+00  0.1280E+03
      4.655  0.2306E+00  0.1280E+03
      4.763  0.3674E+00  0.1281E+03
      4.870  0.5198E+00  0.1281E+03
      4.978  0.6946E+00  0.1282E+03
      5.085  0.9098E+00  0.1283E+03
      5.193  0.1140E+01  0.1284E+03
      5.300  0.1370E+01  0.1285E+03
      5.408  0.1600E+01  0.1287E+03
      5.515  0.1831E+01  0.1288E+03
      5.623  0.3028E+01  0.1291E+03
      5.730  0.3732E+01  0.1295E+03
      5.838  0.3902E+01  0.1299E+03
      5.945  0.5415E+01  0.1304E+03
      6.053  0.9582E+01  0.1312E+03
      6.160  0.1123E+02  0.1324E+03
      6.268  0.8506E+01  0.1335E+03
      6.375  0.6752E+01  0.1343E+03
      6.483  0.6119E+01  0.1350E+03
      6.590  0.5693E+01  0.1356E+03
      6.698  0.5362E+01  0.1362E+03
      6.805  0.4695E+01  0.1368E+03
      6.913  0.4171E+01  0.1373E+03
      7.020  0.3768E+01  0.1377E+03
      7.128  0.3745E+01  0.1381E+03
      7.235  0.4045E+01  0.1385E+03
      7.343  0.4506E+01  0.1390E+03
      7.450  0.4824E+01  0.1395E+03
      7.558  0.4789E+01  0.1400E+03
      7.665  0.4644E+01  0.1405E+03
      7.773  0.4487E+01  0.1410E+03
      7.880  0.4309E+01  0.1415E+03
      7.988  0.4187E+01  0.1419E+03
      8.095  0.4104E+01  0.1424E+03
      8.203  0.4047E+01  0.1428E+03
      8.310  0.4001E+01  0.1432E+03
      8.418  0.3967E+01  0.1437E+03
      8.525  0.3945E+01  0.1441E+03
      8.633  0.3891E+01  0.1445E+03
      8.740  0.3988E+01  0.1449E+03
      8.848  0.3957E+01  0.1454E+03
      8.955  0.3840E+01  0.1458E+03
      9.063  0.3824E+01  0.1462E+03
      9.170  0.3779E+01  0.1466E+03
      9.278  0.3819E+01  0.1470E+03
      9.385  0.3835E+01  0.1474E+03
      9.493  0.3857E+01  0.1478E+03
      9.600  0.3879E+01  0.1482E+03
      9.708  0.3902E+01  0.1487E+03
      9.815  0.3922E+01  0.1491E+03
      9.923  0.3952E+01  0.1495E+03
     10.030  0.4352E+01  0.1499E+03
     10.138  0.6261E+01  0.1505E+03
     10.245  0.5898E+01  0.1512E+03
     10.353  0.5599E+01  0.1518E+03
     10.460  0.5440E+01  0.1524E+03
     10.568  0.5564E+01  0.1530E+03
     10.675  0.6627E+01  0.1536E+03
     10.783  0.4691E+01  0.1542E+03
     10.890  0.2825E+01  0.1546E+03
     10.998  0.2627E+01  0.1549E+03
     11.105  0.3428E+01  0.1552E+03
     11.213  0.3656E+01  0.1556E+03
     11.320  0.3135E+01  0.1560E+03
     11.428  0.3024E+01  0.1563E+03
     11.535  0.3127E+01  0.1566E+03
     11.643  0.3662E+01  0.1570E+03
     11.751  0.6941E+01  0.1575E+03
     11.858  0.6972E+01  0.1583E+03
     11.966  0.8985E+01  0.1591E+03
     12.073  0.1127E+02  0.1602E+03
     12.181  0.1305E+02  0.1615E+03
     12.288  0.1334E+02  0.1630E+03
     12.396  0.1383E+02  0.1644E+03
     12.503  0.1339E+02  0.1659E+03
     12.611  0.1007E+02  0.1672E+03
     12.718  0.2574E+01  0.1679E+03
     12.826  0.1269E+00  0.1680E+03
     12.933  0.4309E-01  0.1680E+03
     13.041  0.3470E-02  0.1680E+03
     13.148  0.0000E+00  0.1680E+03
     13.256  0.0000E+00  0.1680E+03
     13.363  0.0000E+00  0.1680E+03
     13.471  0.0000E+00  0.1680E+03
     13.578  0.0000E+00  0.1680E+03
     13.686  0.0000E+00  0.1680E+03
     13.793  0.0000E+00  0.1680E+03
     13.901  0.0000E+00  0.1680E+03
     14.008  0.0000E+00  0.1680E+03
     14.116  0.0000E+00  0.1680E+03
     14.223  0.0000E+00  0.1680E+03
     14.331  0.0000E+00  0.1680E+03
     14.438  0.0000E+00  0.1680E+03
     14.546  0.0000E+00  0.1680E+03
     14.653  0.0000E+00  0.1680E+03
     14.761  0.0000E+00  0.1680E+03
     14.868  0.0000E+00  0.1680E+03
     14.976  0.0000E+00  0.1680E+03
     15.083  0.0000E+00  0.1680E+03
