   32   32    1    1
  0.9079817E+01  0.4932875E-09  0.4932875E-09  0.1379404E-08  0.5000000E-15
  1.000000000000000E-004
  CAR 
 graphite                                
    128     76     84
 
  0.0000000E+00  0.0000000E+00  0.0000000E+00  0.6944444E-02
    1      -15.168336
    2      -15.051333
    3      -15.050271
    4      -14.926609
    5       -9.861388
    6       -9.853081
    7       -9.850016
    8       -9.814408
    9       -9.813984
   10       -9.806500
   11       -9.802444
   12       -9.802435
   13       -9.801024
   14       -9.773296
   15       -9.762611
   16       -9.760191
   17       -8.794714
   18       -8.791046
   19       -8.789425
   20       -8.769379
   21       -8.765204
   22       -8.763691
   23       -8.762401
   24       -8.762391
   25       -8.759672
   26       -8.727532
   27       -8.722899
   28       -8.720440
   29       -3.952736
   30       -3.179431
   31       -3.177652
   32       -2.247933
   33       -1.968825
   34       -1.966016
   35       -1.949661
   36       -1.947084
   37       -1.945001
   38       -1.944996
   39       -1.944399
   40       -1.926239
   41       -1.926164
   42       -1.925215
   43       -1.922669
   44       -1.904056
   45        1.416643
   46        1.426968
   47        1.431474
   48        1.436551
   49        1.441748
   50        1.447761
   51        1.450640
   52        1.460148
   53        1.741751
   54        1.742888
   55        1.744913
   56        2.079249
   57        2.080294
   58        2.082703
   59        2.086804
   60        2.086826
   61        2.087497
   62        2.324281
   63        2.337425
   64        2.339267
   65        5.944855
   66        5.946692
   67        5.947232
   68        6.089327
   69        6.095549
   70        6.099596
   71        6.100863
   72        6.101289
   73        6.106316
   74        6.542418
   75        6.555479
   76        6.558533
   77        8.525617
   78       10.951566
   79       10.954281
   80       11.666875
   81       11.670699
   82       11.704055
   83       11.823321
   84       11.830269
 
  0.1666667E+00  0.0000000E+00  0.0000000E+00  0.1388889E-01
    1      -15.002954
    2      -14.887100
    3      -14.886046
    4      -14.763707
    5      -11.154641
    6      -11.066835
    7      -11.065776
    8      -10.974487
    9      -10.284732
   10      -10.277790
   11      -10.207894
   12      -10.206669
   13      -10.200108
   14      -10.199598
   15      -10.127653
   16      -10.120224
   17       -8.167407
   18       -8.159283
   19       -8.107079
   20       -8.103878
   21       -8.097582
   22       -8.096738
   23       -8.039954
   24       -8.031667
   25       -7.319200
   26       -7.256247
   27       -7.255469
   28       -7.190363
   29       -3.752118
   30       -2.983719
   31       -2.981937
   32       -2.457233
   33       -2.438360
   34       -2.431283
   35       -2.430370
   36       -2.412435
   37       -2.411131
   38       -2.404003
   39       -2.384955
   40       -2.059070
   41       -1.805390
   42       -1.786137
   43       -1.782706
   44       -1.763383
   45        0.675095
   46        0.780306
   47        0.791904
   48        0.795155
   49        0.807717
   50        1.081363
   51        1.091938
   52        1.096855
   53        1.105508
   54        1.237301
   55        1.239710
   56        1.526645
   57        1.529734
   58        1.847510
   59        1.971764
   60        1.972452
   61        1.977772
   62        1.978510
   63        2.386393
   64        2.396533
   65        6.142917
   66        6.145810
   67        6.370097
   68        6.375950
   69        6.380304
   70        6.382484
   71        6.821641
   72        6.831689
   73        6.855442
   74        7.201858
   75        7.205002
   76        7.712830
   77        8.727941
   78       11.132363
   79       11.135065
   80       11.757769
   81       11.908848
   82       11.911095
   83       12.060342
   84       12.406213
 
  0.3333333E+00  0.0000000E+00  0.0000000E+00  0.1388889E-01
    1      -14.508563
    2      -14.396215
    3      -14.395182
    4      -14.276763
    5      -12.562833
    6      -12.464160
    7      -12.463205
    8      -12.359992
    9      -10.706264
   10      -10.702655
   11      -10.622487
   12      -10.620713
   13      -10.617783
   14      -10.617424
   15      -10.533417
   16      -10.529700
   17       -6.994591
   18       -6.983845
   19       -6.938832
   20       -6.935614
   21       -6.927075
   22       -6.925878
   23       -6.878038
   24       -6.867520
   25       -5.205592
   26       -5.154047
   27       -5.153073
   28       -5.100299
   29       -3.611958
   30       -3.596016
   31       -3.577393
   32       -3.576827
   33       -3.561748
   34       -3.560196
   35       -3.541035
   36       -3.524847
   37       -3.154692
   38       -2.401764
   39       -2.399959
   40       -1.498775
   41       -1.331873
   42       -1.313549
   43       -1.309835
   44       -1.291476
   45       -0.872001
   46       -0.858996
   47       -0.847613
   48       -0.843917
   49       -0.820850
   50       -0.185339
   51       -0.183426
   52        0.285042
   53        0.298960
   54        0.303646
   55        0.317098
   56        0.600541
   57        1.231994
   58        1.234700
   59        1.782770
   60        1.783403
   61        1.786500
   62        1.788005
   63        2.382289
   64        2.387368
   65        6.665094
   66        6.670484
   67        6.946205
   68        6.951430
   69        6.954423
   70        6.956237
   71        7.307485
   72        7.312338
   73        9.008153
   74        9.331225
   75        9.341438
   76        9.347496
   77        9.774824
   78       11.660383
   79       11.663222
   80       11.680851
   81       12.055037
   82       12.134930
   83       12.137421
   84       12.382090
 
  0.5000000E+00  0.0000000E+00  0.0000000E+00  0.6944444E-02
    1      -13.692488
    2      -13.689757
    3      -13.587193
    4      -13.583530
    5      -13.583513
    6      -13.581706
    7      -13.472822
    8      -13.470058
    9      -10.854603
   10      -10.852895
   11      -10.769516
   12      -10.766786
   13      -10.766750
   14      -10.766063
   15      -10.678336
   16      -10.676623
   17       -6.089071
   18       -6.086582
   19       -6.060366
   20       -6.056418
   21       -6.055075
   22       -6.055075
   23       -6.027882
   24       -6.026232
   25       -4.498146
   26       -4.497162
   27       -4.477839
   28       -4.477836
   29       -4.477540
   30       -4.474872
   31       -4.453344
   32       -4.451556
   33       -2.987597
   34       -2.985005
   35       -2.949973
   36       -2.948548
   37       -2.948543
   38       -2.944013
   39       -2.910039
   40       -2.906492
   41       -2.177493
   42       -2.175286
   43       -1.454558
   44       -1.451036
   45       -1.450774
   46       -1.449071
   47       -0.601991
   48       -0.594443
   49       -0.591873
   50       -0.589381
   51       -0.584014
   52       -0.576443
   53       -0.576422
   54       -0.575973
   55       -0.561017
   56       -0.557771
   57        1.115440
   58        1.117359
   59        1.698148
   60        1.699911
   61        1.700230
   62        1.702811
   63        2.356938
   64        2.359211
   65        6.998776
   66        7.001489
   67        7.251524
   68        7.256738
   69        7.257360
   70        7.257375
   71        7.512008
   72        7.514517
   73       10.343859
   74       10.344766
   75       11.428966
   76       11.431899
   77       11.603612
   78       11.608551
   79       11.609943
   80       11.617177
   81       11.961142
   82       11.964428
   83       12.345116
   84       12.346891
 
  0.0000000E+00  0.1666667E+00  0.0000000E+00  0.1388889E-01
    1      -15.002958
    2      -14.887107
    3      -14.886046
    4      -14.763710
    5      -11.154649
    6      -11.066846
    7      -11.065775
    8      -10.974490
    9      -10.284814
   10      -10.277878
   11      -10.208155
   12      -10.206671
   13      -10.200132
   14      -10.199604
   15      -10.127683
   16      -10.120325
   17       -8.167580
   18       -8.158203
   19       -8.107471
   20       -8.103878
   21       -8.096747
   22       -8.095131
   23       -8.040038
   24       -8.030440
   25       -7.320036
   26       -7.257200
   27       -7.256228
   28       -7.191241
   29       -3.752107
   30       -2.983701
   31       -2.981931
   32       -2.458521
   33       -2.438311
   34       -2.433586
   35       -2.430374
   36       -2.412435
   37       -2.411189
   38       -2.405218
   39       -2.385092
   40       -2.059055
   41       -1.803892
   42       -1.783637
   43       -1.782703
   44       -1.762287
   45        0.675698
   46        0.778541
   47        0.790549
   48        0.791901
   49        0.804053
   50        1.085826
   51        1.096217
   52        1.096858
   53        1.107131
   54        1.238615
   55        1.239836
   56        1.526362
   57        1.528921
   58        1.848358
   59        1.971617
   60        1.972160
   61        1.976255
   62        1.978145
   63        2.386362
   64        2.395375
   65        6.143181
   66        6.147438
   67        6.370541
   68        6.375908
   69        6.381358
   70        6.385089
   71        6.821790
   72        6.833674
   73        6.853872
   74        7.200614
   75        7.203268
   76        7.711341
   77        8.727950
   78       11.132405
   79       11.135103
   80       11.758271
   81       11.909824
   82       11.911111
   83       12.060830
   84       12.412130
 
  0.1666667E+00  0.1666667E+00  0.0000000E+00  0.1388889E-01
    1      -14.672825
    2      -14.559315
    3      -14.558277
    4      -14.438537
    5      -11.775710
    6      -11.772818
    7      -11.684161
    8      -11.680295
    9      -11.680274
   10      -11.678375
   11      -11.584806
   12      -11.581897
   13       -9.436290
   14       -9.391355
   15       -9.390933
   16       -9.352198
   17       -8.391850
   18       -8.369732
   19       -8.365798
   20       -8.332666
   21       -6.212039
   22       -6.208776
   23       -6.157028
   24       -6.153446
   25       -6.153426
   26       -6.150350
   27       -6.096922
   28       -6.093451
   29       -3.782300
   30       -3.746144
   31       -3.745060
   32       -3.707827
   33       -3.352740
   34       -2.594531
   35       -2.592738
   36       -2.130751
   37       -2.127582
   38       -2.107372
   39       -2.102674
   40       -2.102669
   41       -2.101873
   42       -2.079167
   43       -2.076629
   44       -1.684074
   45       -0.253845
   46       -0.242293
   47       -0.239358
   48       -0.227638
   49        0.037585
   50        0.040001
   51        0.404388
   52        0.413591
   53        0.418093
   54        0.425636
   55        0.662879
   56        0.666203
   57        0.666368
   58        0.667913
   59        1.379350
   60        1.381727
   61        2.342241
   62        2.676764
   63        2.678377
   64        2.911799
   65        5.851198
   66        5.876313
   67        5.881273
   68        6.131392
   69        7.808994
   70        7.811295
   71        8.151223
   72        8.153662
   73        8.154390
   74        8.157351
   75        8.590099
   76        8.592626
   77        9.134845
   78       11.495931
   79       11.498661
   80       12.521141
   81       12.525016
   82       12.713805
   83       12.717521
   84       12.721536
 
  0.3333333E+00  0.1666667E+00  0.0000000E+00  0.1388889E-01
    1      -14.016654
    2      -13.907765
    3      -13.906753
    4      -13.792217
    5      -13.045085
    6      -12.943054
    7      -12.942060
    8      -12.835091
    9      -12.090816
   10      -11.995624
   11      -11.994520
   12      -11.895126
   13       -9.417344
   14       -9.346788
   15       -9.346230
   16       -9.274125
   17       -7.528746
   18       -7.482847
   19       -7.479405
   20       -7.431968
   21       -5.216422
   22       -5.180696
   23       -5.179493
   24       -5.140937
   25       -5.056268
   26       -5.016794
   27       -5.014377
   28       -4.974520
   29       -4.071091
   30       -4.028723
   31       -4.027780
   32       -3.984546
   33       -3.026993
   34       -2.999971
   35       -2.999290
   36       -2.970831
   37       -2.563793
   38       -1.981574
   39       -1.957234
   40       -1.954434
   41       -1.927873
   42       -1.826219
   43       -1.824636
   44       -1.492426
   45       -1.471399
   46       -1.467954
   47       -1.446572
   48       -1.411969
   49       -0.948004
   50       -0.714132
   51       -0.712354
   52       -0.598702
   53       -0.583472
   54       -0.578488
   55       -0.563405
   56       -0.295420
   57        0.109763
   58        0.358640
   59        0.359916
   60        1.119165
   61        2.641564
   62        3.084988
   63        3.086309
   64        3.506990
   65        5.542304
   66        5.733577
   67        5.737796
   68        6.006469
   69        8.609587
   70        8.866256
   71        8.869150
   72        9.141752
   73        9.947742
   74       10.100177
   75       10.361575
   76       10.364006
   77       10.687145
   78       11.152922
   79       12.161877
   80       12.169462
   81       12.348111
   82       12.360596
   83       12.555633
   84       12.562392
 
  0.5000000E+00  0.1666667E+00  0.0000000E+00  0.1388889E-01
    1      -14.017884
    2      -13.909011
    3      -13.907962
    4      -13.793442
    5      -13.043359
    6      -12.941303
    7      -12.940362
    8      -12.833370
    9      -12.092044
   10      -11.996880
   11      -11.995746
   12      -11.896372
   13       -9.414831
   14       -9.344261
   15       -9.343356
   16       -9.271183
   17       -7.522288
   18       -7.475625
   19       -7.473803
   20       -7.425665
   21       -5.226044
   22       -5.190159
   23       -5.189898
   24       -5.151166
   25       -5.066971
   26       -5.027737
   27       -5.024096
   28       -4.984474
   29       -4.074103
   30       -4.032046
   31       -4.030447
   32       -3.987515
   33       -3.014378
   34       -2.987759
   35       -2.985603
   36       -2.957520
   37       -2.564976
   38       -1.981452
   39       -1.956405
   40       -1.955458
   41       -1.928269
   42       -1.827327
   43       -1.825831
   44       -1.489863
   45       -1.469038
   46       -1.464862
   47       -1.443783
   48       -1.410402
   49       -0.949117
   50       -0.712680
   51       -0.710776
   52       -0.598008
   53       -0.582741
   54       -0.579614
   55       -0.563931
   56       -0.296483
   57        0.111192
   58        0.357495
   59        0.358727
   60        1.117805
   61        2.641793
   62        3.087651
   63        3.088142
   64        3.513214
   65        5.541818
   66        5.735978
   67        5.738505
   68        6.007340
   69        8.604825
   70        8.862106
   71        8.865702
   72        9.139844
   73        9.946124
   74       10.101210
   75       10.361236
   76       10.363797
   77       10.685770
   78       11.155140
   79       12.161540
   80       12.169100
   81       12.345218
   82       12.358786
   83       12.553653
   84       12.560274
 
 -0.3333333E+00  0.1666667E+00  0.0000000E+00  0.1388889E-01
    1      -14.673561
    2      -14.560061
    3      -14.559000
    4      -14.439270
    5      -11.777953
    6      -11.771985
    7      -11.685100
    8      -11.683978
    9      -11.679038
   10      -11.678087
   11      -11.587200
   12      -11.581193
   13       -9.427144
   14       -9.381563
   15       -9.380563
   16       -9.341088
   17       -8.389168
   18       -8.365138
   19       -8.364136
   20       -8.329020
   21       -6.222676
   22       -6.213216
   23       -6.167276
   24       -6.164399
   25       -6.156948
   26       -6.156010
   27       -6.107481
   28       -6.098221
   29       -3.797876
   30       -3.761730
   31       -3.760761
   32       -3.723535
   33       -3.353471
   34       -2.595229
   35       -2.593472
   36       -2.127567
   37       -2.109236
   38       -2.103921
   39       -2.100324
   40       -2.084693
   41       -2.083073
   42       -2.076417
   43       -2.058175
   44       -1.684769
   45       -0.263541
   46       -0.251310
   47       -0.250063
   48       -0.238435
   49        0.036032
   50        0.040353
   51        0.416680
   52        0.424866
   53        0.425752
   54        0.434712
   55        0.662042
   56        0.663236
   57        0.666275
   58        0.668369
   59        1.376749
   60        1.381662
   61        2.342341
   62        2.682643
   63        2.683577
   64        2.925465
   65        5.848983
   66        5.881828
   67        5.884081
   68        6.138273
   69        7.801492
   70        7.810555
   71        8.143013
   72        8.147325
   73        8.152433
   74        8.155067
   75        8.583801
   76        8.590090
   77        9.133841
   78       11.495076
   79       11.497794
   80       12.520816
   81       12.543943
   82       12.716509
   83       12.723086
   84       12.737159
 
 -0.1666667E+00  0.1666667E+00  0.0000000E+00  0.1388889E-01
    1      -15.003204
    2      -14.887355
    3      -14.886287
    4      -14.763955
    5      -11.160937
    6      -11.073165
    7      -11.072123
    8      -10.980886
    9      -10.276618
   10      -10.274593
   11      -10.200461
   12      -10.197298
   13      -10.197279
   14      -10.196417
   15      -10.119150
   16      -10.117147
   17       -8.162411
   18       -8.160718
   19       -8.101283
   20       -8.099575
   21       -8.099563
   22       -8.097758
   23       -8.034954
   24       -8.033132
   25       -7.329085
   26       -7.267040
   27       -7.264371
   28       -7.200174
   29       -3.752354
   30       -2.983938
   31       -2.982179
   32       -2.458391
   33       -2.455836
   34       -2.433907
   35       -2.429551
   36       -2.429535
   37       -2.429470
   38       -2.404912
   39       -2.402903
   40       -2.059291
   41       -1.784304
   42       -1.764218
   43       -1.762726
   44       -1.742443
   45        0.671314
   46        0.762115
   47        0.774132
   48        0.779167
   49        0.790104
   50        1.100096
   51        1.109718
   52        1.112888
   53        1.123717
   54        1.233385
   55        1.234564
   56        1.529100
   57        1.531418
   58        1.841331
   59        1.974854
   60        1.979082
   61        1.979258
   62        1.979621
   63        2.395254
   64        2.397359
   65        6.145300
   66        6.147580
   67        6.378385
   68        6.380276
   69        6.380652
   70        6.385217
   71        6.829599
   72        6.832469
   73        6.847711
   74        7.191080
   75        7.195757
   76        7.702446
   77        8.727602
   78       11.132083
   79       11.134779
   80       11.792309
   81       11.944422
   82       11.944787
   83       12.094696
   84       12.398183
 
  0.2710505E-19  0.3333333E+00  0.0000000E+00  0.1388889E-01
    1      -14.508576
    2      -14.396241
    3      -14.395182
    4      -14.276777
    5      -12.562885
    6      -12.464263
    7      -12.463207
    8      -12.360045
    9      -10.706544
   10      -10.702405
   11      -10.623213
   12      -10.620716
   13      -10.617499
   14      -10.616917
   15      -10.533627
   16      -10.529403
   17       -6.994629
   18       -6.982780
   19       -6.938967
   20       -6.935613
   21       -6.925884
   22       -6.924508
   23       -6.877928
   24       -6.866226
   25       -5.206527
   26       -5.155034
   27       -5.154036
   28       -5.101316
   29       -3.613291
   30       -3.596268
   31       -3.579833
   32       -3.576835
   33       -3.561750
   34       -3.560716
   35       -3.542200
   36       -3.525144
   37       -3.154646
   38       -2.401683
   39       -2.399934
   40       -1.498708
   41       -1.330182
   42       -1.310830
   43       -1.309831
   44       -1.290309
   45       -0.873666
   46       -0.859009
   47       -0.847618
   48       -0.846987
   49       -0.823051
   50       -0.184824
   51       -0.183315
   52        0.287907
   53        0.302715
   54        0.303649
   55        0.318590
   56        0.600927
   57        1.231324
   58        1.234449
   59        1.781240
   60        1.783435
   61        1.786494
   62        1.787454
   63        2.381845
   64        2.386633
   65        6.665474
   66        6.672236
   67        6.946846
   68        6.951415
   69        6.955734
   70        6.958453
   71        7.307734
   72        7.314125
   73        9.007040
   74        9.330583
   75        9.341405
   76        9.346220
   77        9.773851
   78       11.660557
   79       11.663402
   80       11.680962
   81       12.055719
   82       12.136316
   83       12.137424
   84       12.382661
 
  0.1666667E+00  0.3333333E+00  0.0000000E+00  0.1388889E-01
    1      -14.016661
    2      -13.907779
    3      -13.906754
    4      -13.792223
    5      -13.045142
    6      -12.943167
    7      -12.942062
    8      -12.835149
    9      -12.090759
   10      -11.995512
   11      -11.994518
   12      -11.895069
   13       -9.417390
   14       -9.346883
   15       -9.346234
   16       -9.274180
   17       -7.528327
   18       -7.482066
   19       -7.479401
   20       -7.431591
   21       -5.216782
   22       -5.180704
   23       -5.180258
   24       -5.141354
   25       -5.054882
   26       -5.014386
   27       -5.014038
   28       -4.973156
   29       -4.072352
   30       -4.030393
   31       -4.028719
   32       -3.985896
   33       -3.028634
   34       -3.002529
   35       -2.999972
   36       -2.972437
   37       -2.563753
   38       -1.982379
   39       -1.957256
   40       -1.956379
   41       -1.929122
   42       -1.826153
   43       -1.824629
   44       -1.490540
   45       -1.468065
   46       -1.467938
   47       -1.445038
   48       -1.411766
   49       -0.947943
   50       -0.713767
   51       -0.712255
   52       -0.596943
   53       -0.581507
   54       -0.578487
   55       -0.562669
   56       -0.295727
   57        0.110054
   58        0.358107
   59        0.359731
   60        1.118729
   61        2.641116
   62        3.084897
   63        3.085478
   64        3.506573
   65        5.542852
   66        5.734909
   67        5.737816
   68        6.007208
   69        8.610855
   70        8.868291
   71        8.869383
   72        9.142763
   73        9.947737
   74       10.099080
   75       10.360272
   76       10.363406
   77       10.686230
   78       11.152969
   79       12.162148
   80       12.169717
   81       12.347817
   82       12.360520
   83       12.555196
   84       12.561895
 
  0.3333333E+00  0.3333333E+00  0.0000000E+00  0.1388889E-01
    1      -13.209308
    2      -13.206669
    3      -13.204084
    4      -13.107872
    5      -13.103460
    6      -13.103425
    7      -13.103123
    8      -13.100533
    9      -13.099289
   10      -12.996791
   11      -12.994238
   12      -12.991582
   13       -8.201011
   14       -8.130238
   15       -8.130055
   16       -8.124470
   17       -8.122648
   18       -8.120140
   19       -8.117988
   20       -8.050244
   21       -6.081517
   22       -6.080558
   23       -6.078654
   24       -6.077337
   25       -3.317397
   26       -3.313297
   27       -3.310402
   28       -3.297349
   29       -3.291970
   30       -3.291214
   31       -3.291206
   32       -3.290217
   33       -3.286357
   34       -3.272607
   35       -3.270471
   36       -3.266525
   37       -1.959597
   38       -1.953155
   39       -1.950450
   40       -1.945187
   41       -1.939804
   42       -1.938949
   43       -1.937193
   44       -1.937175
   45       -1.932443
   46       -1.925520
   47       -1.921700
   48       -1.916142
   49       -1.600682
   50       -1.598567
   51       -1.596308
   52       -0.896313
   53       -0.892715
   54       -0.892333
   55       -0.891586
   56       -0.889867
   57       -0.888007
   58       -0.059081
   59       -0.056732
   60       -0.054563
   61        3.899171
   62        4.421649
   63        4.429266
   64        4.435153
   65        4.435492
   66        4.449969
   67        4.451025
   68        5.042668
   69       10.611411
   70       10.614333
   71       10.620369
   72       10.805153
   73       10.811825
   74       10.812661
   75       10.812702
   76       10.814216
   77       10.815496
   78       10.960484
   79       10.961390
   80       10.964701
   81       11.017795
   82       11.018753
   83       11.024340
   84       13.083159
 
  0.5000000E+00  0.3333333E+00  0.0000000E+00  0.1388889E-01
    1      -14.018624
    2      -13.909773
    3      -13.908683
    4      -13.794181
    5      -13.047081
    6      -12.945113
    7      -12.943991
    8      -12.837085
    9      -12.086836
   10      -11.991574
   11      -11.990640
   12      -11.891147
   13       -9.407722
   14       -9.337323
   15       -9.336193
   16       -9.264231
   17       -7.529050
   18       -7.481974
   19       -7.481729
   20       -7.433148
   21       -5.225930
   22       -5.190829
   23       -5.189073
   24       -5.151109
   25       -5.059943
   26       -5.020155
   27       -5.018412
   28       -4.978241
   29       -4.086138
   30       -4.044895
   31       -4.041318
   32       -3.999226
   33       -3.026491
   34       -3.000987
   35       -2.996859
   36       -2.970004
   37       -2.565654
   38       -1.994458
   39       -1.969925
   40       -1.966972
   41       -1.940547
   42       -1.828087
   43       -1.826659
   44       -1.472880
   45       -1.451232
   46       -1.449036
   47       -1.426886
   48       -1.413576
   49       -0.949774
   50       -0.715553
   51       -0.714156
   52       -0.583640
   53       -0.567321
   54       -0.566075
   55       -0.549222
   56       -0.292390
   57        0.108118
   58        0.361139
   59        0.363111
   60        1.121736
   61        2.645416
   62        3.089934
   63        3.091862
   64        3.514569
   65        5.546734
   66        5.735404
   67        5.736359
   68        6.000362
   69        8.613715
   70        8.867720
   71        8.869214
   72        9.138898
   73        9.945173
   74       10.091069
   75       10.352879
   76       10.356807
   77       10.681660
   78       11.150685
   79       12.159075
   80       12.166723
   81       12.341360
   82       12.364177
   83       12.553258
   84       12.560326
 
 -0.3333333E+00  0.3333333E+00  0.0000000E+00  0.1388889E-01
    1      -14.509556
    2      -14.397234
    3      -14.396144
    4      -14.277752
    5      -12.566811
    6      -12.468214
    7      -12.467089
    8      -12.363964
    9      -10.698976
   10      -10.697226
   11      -10.615484
   12      -10.612763
   13      -10.612739
   14      -10.611951
   15      -10.526051
   16      -10.524289
   17       -6.990331
   18       -6.988586
   19       -6.933937
   20       -6.932327
   21       -6.932318
   22       -6.930266
   23       -6.874213
   24       -6.872286
   25       -5.218501
   26       -5.167841
   27       -5.164909
   28       -5.113039
   29       -3.611643
   30       -3.609545
   31       -3.578741
   32       -3.575009
   33       -3.574440
   34       -3.574435
   35       -3.540475
   36       -3.538759
   37       -3.155618
   38       -2.402615
   39       -2.400914
   40       -1.499648
   41       -1.311312
   42       -1.292157
   43       -1.290451
   44       -1.271099
   45       -0.889182
   46       -0.867860
   47       -0.861021
   48       -0.858610
   49       -0.837762
   50       -0.188311
   51       -0.187015
   52        0.304056
   53        0.318321
   54        0.321122
   55        0.335809
   56        0.597105
   57        1.236219
   58        1.238306
   59        1.785815
   60        1.789911
   61        1.790137
   62        1.790683
   63        2.387791
   64        2.390046
   65        6.670744
   66        6.673181
   67        6.951638
   68        6.953270
   69        6.953445
   70        6.957436
   71        7.307273
   72        7.309881
   73        8.997839
   74        9.325026
   75        9.333843
   76        9.340538
   77        9.766800
   78       11.659644
   79       11.662512
   80       11.681153
   81       12.086885
   82       12.168069
   83       12.168470
   84       12.411294
 
 -0.1666667E+00  0.3333333E+00  0.0000000E+00  0.1388889E-01
    1      -14.673571
    2      -14.560082
    3      -14.559000
    4      -14.439280
    5      -11.778313
    6      -11.771736
    7      -11.686193
    8      -11.683987
    9      -11.678173
   10      -11.677846
   11      -11.587453
   12      -11.580832
   13       -9.427896
   14       -9.382975
   15       -9.380572
   16       -9.341738
   17       -8.387832
   18       -8.364130
   19       -8.362026
   20       -8.327317
   21       -6.222986
   22       -6.213853
   23       -6.168017
   24       -6.164398
   25       -6.156972
   26       -6.156716
   27       -6.107547
   28       -6.098722
   29       -3.799010
   30       -3.763823
   31       -3.760766
   32       -3.724518
   33       -3.353439
   34       -2.595174
   35       -2.593454
   36       -2.126362
   37       -2.109634
   38       -2.101671
   39       -2.100322
   40       -2.084694
   41       -2.083324
   42       -2.075094
   43       -2.058124
   44       -1.684723
   45       -0.267131
   46       -0.255103
   47       -0.250067
   48       -0.239822
   49        0.035739