<?xml version="1.0" encoding="ISO-8859-1"?>
<modeling>
 <generator>
  <i name="program" type="string">vasp </i>
  <i name="version" type="string">5.3.5  </i>
  <i name="subversion" type="string">31Mar14 (build Nov 02 2014 15:17:37) complex                          parallel </i>
  <i name="platform" type="string">ion-Intel-MKL </i>
  <i name="date" type="string">2016 10 18 </i>
  <i name="time" type="string">00:24:25 </i>
 </generator>
 <incar>
  <i type="string" name="SYSTEM">graphite</i>
  <i type="string" name="PREC">accurate</i>
  <i type="int" name="NELM">   200</i>
  <i type="int" name="IBRION">    -1</i>
  <i name="EDIFF">      0.00000001</i>
  <i name="EDIFFG">      0.00100000</i>
  <i type="int" name="NSW">     0</i>
  <i type="int" name="ISIF">     2</i>
  <i name="ENCUT">    800.00000000</i>
  <i type="int" name="ISMEAR">    -5</i>
  <i type="logical" name="LWAVE"> F  </i>
  <i type="logical" name="LCHARG"> F  </i>
  <i type="int" name="NELM">   200</i>
  <i type="string" name="GGA">PE</i>
 </incar>
 <kpoints>
  <generation param="Gamma">
   <v type="int" name="divisions">       6        6        4 </v>
   <v name="usershift">      0.00000000       0.00000000       0.00000000 </v>
   <v name="genvec1">      0.16666667       0.00000000       0.00000000 </v>
   <v name="genvec2">      0.00000000       0.16666667       0.00000000 </v>
   <v name="genvec3">      0.00000000       0.00000000       0.25000000 </v>
   <v name="shift">      0.00000000       0.00000000       0.00000000 </v>
  </generation>
  <varray name="kpointlist" >
   <v>       0.00000000       0.00000000       0.00000000 </v>
   <v>       0.16666667       0.00000000       0.00000000 </v>
   <v>       0.33333333       0.00000000       0.00000000 </v>
   <v>       0.50000000       0.00000000       0.00000000 </v>
   <v>       0.00000000       0.16666667       0.00000000 </v>
   <v>       0.16666667       0.16666667       0.00000000 </v>
   <v>       0.33333333       0.16666667       0.00000000 </v>
   <v>       0.50000000       0.16666667       0.00000000 </v>
   <v>      -0.33333333       0.16666667       0.00000000 </v>
   <v>      -0.16666667       0.16666667       0.00000000 </v>
   <v>       0.00000000       0.33333333       0.00000000 </v>
   <v>       0.16666667       0.33333333       0.00000000 </v>
   <v>       0.33333333       0.33333333       0.00000000 </v>
   <v>       0.50000000       0.33333333       0.00000000 </v>
   <v>      -0.33333333       0.33333333       0.00000000 </v>
   <v>      -0.16666667       0.33333333       0.00000000 </v>
   <v>      -0.00000000       0.50000000       0.00000000 </v>
   <v>       0.16666667       0.50000000       0.00000000 </v>
   <v>       0.33333333       0.50000000       0.00000000 </v>
   <v>       0.50000000       0.50000000       0.00000000 </v>
   <v>       0.00000000       0.00000000       0.25000000 </v>
   <v>       0.16666667       0.00000000       0.25000000 </v>
   <v>       0.33333333       0.00000000       0.25000000 </v>
   <v>       0.50000000       0.00000000       0.25000000 </v>
   <v>      -0.33333333       0.00000000       0.25000000 </v>
   <v>      -0.16666667       0.00000000       0.25000000 </v>
   <v>       0.00000000       0.16666667       0.25000000 </v>
   <v>       0.16666667       0.16666667       0.25000000 </v>
   <v>       0.33333333       0.16666667       0.25000000 </v>
   <v>       0.50000000       0.16666667       0.25000000 </v>
   <v>      -0.33333333       0.16666667       0.25000000 </v>
   <v>      -0.16666667       0.16666667       0.25000000 </v>
   <v>       0.00000000       0.33333333       0.25000000 </v>
   <v>       0.16666667       0.33333333       0.25000000 </v>
   <v>       0.33333333       0.33333333       0.25000000 </v>
   <v>       0.50000000       0.33333333       0.25000000 </v>
   <v>      -0.33333333       0.33333333       0.25000000 </v>
   <v>      -0.16666667       0.33333333       0.25000000 </v>
   <v>      -0.00000000       0.50000000       0.25000000 </v>
   <v>       0.16666667       0.50000000       0.25000000 </v>
   <v>       0.33333333       0.50000000       0.25000000 </v>
   <v>       0.50000000       0.50000000       0.25000000 </v>
   <v>      -0.33333333       0.50000000       0.25000000 </v>
   <v>      -0.16666667       0.50000000       0.25000000 </v>
   <v>      -0.00000000      -0.33333333       0.25000000 </v>
   <v>       0.16666667      -0.33333333       0.25000000 </v>
   <v>       0.33333333      -0.33333333       0.25000000 </v>
   <v>       0.50000000      -0.33333333       0.25000000 </v>
   <v>      -0.33333333      -0.33333333       0.25000000 </v>
   <v>      -0.16666667      -0.33333333       0.25000000 </v>
   <v>       0.00000000      -0.16666667       0.25000000 </v>
   <v>       0.16666667      -0.16666667       0.25000000 </v>
   <v>       0.33333333      -0.16666667       0.25000000 </v>
   <v>       0.50000000      -0.16666667       0.25000000 </v>
   <v>      -0.33333333      -0.16666667       0.25000000 </v>
   <v>      -0.16666667      -0.16666667       0.25000000 </v>
   <v>       0.00000000       0.00000000       0.50000000 </v>
   <v>       0.16666667       0.00000000       0.50000000 </v>
   <v>       0.33333333       0.00000000       0.50000000 </v>
   <v>       0.50000000       0.00000000       0.50000000 </v>
   <v>       0.00000000       0.16666667       0.50000000 </v>
   <v>       0.16666667       0.16666667       0.50000000 </v>
   <v>       0.33333333       0.16666667       0.50000000 </v>
   <v>       0.50000000       0.16666667       0.50000000 </v>
   <v>      -0.33333333       0.16666667       0.50000000 </v>
   <v>      -0.16666667       0.16666667       0.50000000 </v>
   <v>       0.00000000       0.33333333       0.50000000 </v>
   <v>       0.16666667       0.33333333       0.50000000 </v>
   <v>       0.33333333       0.33333333       0.50000000 </v>
   <v>       0.50000000       0.33333333       0.50000000 </v>
   <v>      -0.33333333       0.33333333       0.50000000 </v>
   <v>      -0.16666667       0.33333333       0.50000000 </v>
   <v>      -0.00000000       0.50000000       0.50000000 </v>
   <v>       0.16666667       0.50000000       0.50000000 </v>
   <v>       0.33333333       0.50000000       0.50000000 </v>
   <v>       0.50000000       0.50000000       0.50000000 </v>
  </varray>
  <varray name="weights" >
   <v>       0.00694444 </v>
   <v>       0.01388889 </v>
   <v>       0.01388889 </v>
   <v>       0.00694444 </v>
   <v>       0.01388889 </v>
   <v>       0.01388889 </v>
   <v>       0.01388889 </v>
   <v>       0.01388889 </v>
   <v>       0.01388889 </v>
   <v>       0.01388889 </v>
   <v>       0.01388889 </v>
   <v>       0.01388889 </v>
   <v>       0.01388889 </v>
   <v>       0.01388889 </v>
   <v>       0.01388889 </v>
   <v>       0.01388889 </v>
   <v>       0.00694444 </v>
   <v>       0.01388889 </v>
   <v>       0.01388889 </v>
   <v>       0.00694444 </v>
   <v>       0.01388889 </v>
   <v>       0.01388889 </v>
   <v>       0.01388889 </v>
   <v>       0.01388889 </v>
   <v>       0.01388889 </v>
   <v>       0.01388889 </v>
   <v>       0.01388889 </v>
   <v>       0.01388889 </v>
   <v>       0.01388889 </v>
   <v>       0.01388889 </v>
   <v>       0.01388889 </v>
   <v>       0.01388889 </v>
   <v>       0.01388889 </v>
   <v>       0.01388889 </v>
   <v>       0.01388889 </v>
   <v>       0.01388889 </v>
   <v>       0.01388889 </v>
   <v>       0.01388889 </v>
   <v>       0.01388889 </v>
   <v>       0.01388889 </v>
   <v>       0.01388889 </v>
   <v>       0.01388889 </v>
   <v>       0.01388889 </v>
   <v>       0.01388889 </v>
   <v>       0.01388889 </v>
   <v>       0.01388889 </v>
   <v>       0.01388889 </v>
   <v>       0.01388889 </v>
   <v>       0.01388889 </v>
   <v>       0.01388889 </v>
   <v>       0.01388889 </v>
   <v>       0.01388889 </v>
   <v>       0.01388889 </v>
   <v>       0.01388889 </v>
   <v>       0.01388889 </v>
   <v>       0.01388889 </v>
   <v>       0.00694444 </v>
   <v>       0.01388889 </v>
   <v>       0.01388889 </v>
   <v>       0.00694444 </v>
   <v>       0.01388889 </v>
   <v>       0.01388889 </v>
   <v>       0.01388889 </v>
   <v>       0.01388889 </v>
   <v>       0.01388889 </v>
   <v>       0.01388889 </v>
   <v>       0.01388889 </v>
   <v>       0.01388889 </v>
   <v>       0.01388889 </v>
   <v>       0.01388889 </v>
   <v>       0.01388889 </v>
   <v>       0.01388889 </v>
   <v>       0.00694444 </v>
   <v>       0.01388889 </v>
   <v>       0.01388889 </v>
   <v>       0.00694444 </v>
  </varray>
  <varray name="tetrahedronlist"  type="int" >
   <v type="int" >        2        2        5        6       27 </v>
   <v type="int" >        2        1        2        5       27 </v>
   <v type="int" >        2        1        2       21       27 </v>
   <v type="int" >        2        2        6       27       28 </v>
   <v type="int" >        2        2       22       27       28 </v>
   <v type="int" >        2        2       21       22       27 </v>
   <v type="int" >        2        3        6        7       28 </v>
   <v type="int" >        2        2        3        6       28 </v>
   <v type="int" >        2        2        3       22       28 </v>
   <v type="int" >        2        3        7       28       29 </v>
   <v type="int" >        2        3       23       28       29 </v>
   <v type="int" >        2        3       22       23       28 </v>
   <v type="int" >        2        4        7        8       29 </v>
   <v type="int" >        2        3        4        7       29 </v>
   <v type="int" >        2        3        4       23       29 </v>
   <v type="int" >        2        4        8       29       30 </v>
   <v type="int" >        2        4       24       29       30 </v>
   <v type="int" >        2        4       23       24       29 </v>
   <v type="int" >        2        3        8        9       30 </v>
   <v type="int" >        2        3        4        8       30 </v>
   <v type="int" >        2        3        4       24       30 </v>
   <v type="int" >        2        3        9       30       31 </v>
   <v type="int" >        2        3       25       30       31 </v>
   <v type="int" >        2        3       24       25       30 </v>
   <v type="int" >        2        2        9       10       31 </v>
   <v type="int" >        2        2        3        9       31 </v>
   <v type="int" >        2        2        3       25       31 </v>
   <v type="int" >        2        2       10       31       32 </v>
   <v type="int" >        2        2       26       31       32 </v>
   <v type="int" >        2        2       25       26       31 </v>
   <v type="int" >        2        1        5       10       32 </v>
   <v type="int" >        2        1        2       10       32 </v>
   <v type="int" >        2        1        2       26       32 </v>
   <v type="int" >        2        1        5       27       32 </v>
   <v type="int" >        2        1       21       27       32 </v>
   <v type="int" >        2        1       21       26       32 </v>
   <v type="int" >        2        6       11       12       33 </v>
   <v type="int" >        2        5        6       11       33 </v>
   <v type="int" >        2        5        6       27       33 </v>
   <v type="int" >        2        6       12       33       34 </v>
   <v type="int" >        2        6       28       33       34 </v>
   <v type="int" >        2        6       27       28       33 </v>
   <v type="int" >        2        7       12       13       34 </v>
   <v type="int" >        2        6        7       12       34 </v>
   <v type="int" >        2        6        7       28       34 </v>
   <v type="int" >        2        7       13       34       35 </v>
   <v type="int" >        2        7       29       34       35 </v>
   <v type="int" >        2        7       28       29       34 </v>
   <v type="int" >        2        8       13       14       35 </v>
   <v type="int" >        2        7        8       13       35 </v>
   <v type="int" >        2        7        8       29       35 </v>
   <v type="int" >        2        8       14       35       36 </v>
   <v type="int" >        2        8       30       35       36 </v>
   <v type="int" >        2        8       29       30       35 </v>
   <v type="int" >        2        9       14       15       36 </v>
   <v type="int" >        2        8        9       14       36 </v>
   <v type="int" >        2        8        9       30       36 </v>
   <v type="int" >        2        9       15       36       37 </v>
   <v type="int" >        2        9       31       36       37 </v>
   <v type="int" >        2        9       30       31       36 </v>
   <v type="int" >        2       10       15       16       37 </v>
   <v type="int" >        2        9       10       15       37 </v>
   <v type="int" >        2        9       10       31       37 </v>
   <v type="int" >        2       10       16       37       38 </v>
   <v type="int" >        2       10       32       37       38 </v>
   <v type="int" >        2       10       31       32       37 </v>
   <v type="int" >        2        5       11       16       38 </v>
   <v type="int" >        2        5       10       16       38 </v>
   <v type="int" >        2        5       10       32       38 </v>
   <v type="int" >        2        5       11       33       38 </v>
   <v type="int" >        2        5       27       33       38 </v>
   <v type="int" >        2        5       27       32       38 </v>
   <v type="int" >        2       12       17       18       39 </v>
   <v type="int" >        2       11       12       17       39 </v>
   <v type="int" >        2       11       12       33       39 </v>
   <v type="int" >        2       12       18       39       40 </v>
   <v type="int" >        2       12       34       39       40 </v>
   <v type="int" >        2       12       33       34       39 </v>
   <v type="int" >        2       13       18       19       40 </v>
   <v type="int" >        2       12       13       18       40 </v>
   <v type="int" >        2       12       13       34       40 </v>
   <v type="int" >        2       13       19       40       41 </v>
   <v type="int" >        2       13       35       40       41 </v>
   <v type="int" >        2       13       34       35       40 </v>
   <v type="int" >        2       14       19       20       41 </v>
   <v type="int" >        2       13       14       19       41 </v>
   <v type="int" >        2       13       14       35       41 </v>
   <v type="int" >        2       14       20       41       42 </v>
   <v type="int" >        2       14       36       41       42 </v>
   <v type="int" >        2       14       35       36       41 </v>
   <v type="int" >        2       15       19       20       42 </v>
   <v type="int" >        2       14       15       20       42 </v>
   <v type="int" >        2       14       15       36       42 </v>
   <v type="int" >        2       15       19       42       43 </v>
   <v type="int" >        2       15       37       42       43 </v>
   <v type="int" >        2       15       36       37       42 </v>
   <v type="int" >        2       16       18       19       43 </v>
   <v type="int" >        2       15       16       19       43 </v>
   <v type="int" >        2       15       16       37       43 </v>
   <v type="int" >        2       16       18       43       44 </v>
   <v type="int" >        2       16       38       43       44 </v>
   <v type="int" >        2       16       37       38       43 </v>
   <v type="int" >        2       11       17       18       44 </v>
   <v type="int" >        2       11       16       18       44 </v>
   <v type="int" >        2       11       16       38       44 </v>
   <v type="int" >        2       11       17       39       44 </v>
   <v type="int" >        2       11       33       39       44 </v>
   <v type="int" >        2       11       33       38       44 </v>
   <v type="int" >        2       11       16       18       45 </v>
   <v type="int" >        2       11       17       18       45 </v>
   <v type="int" >        2       17       18       39       45 </v>
   <v type="int" >        2       16       18       45       46 </v>
   <v type="int" >        2       18       40       45       46 </v>
   <v type="int" >        2       18       39       40       45 </v>
   <v type="int" >        2       15       16       19       46 </v>
   <v type="int" >        2       16       18       19       46 </v>
   <v type="int" >        2       18       19       40       46 </v>
   <v type="int" >        2       15       19       46       47 </v>
   <v type="int" >        2       19       41       46       47 </v>
   <v type="int" >        2       19       40       41       46 </v>
   <v type="int" >        2       14       15       20       47 </v>
   <v type="int" >        2       15       19       20       47 </v>
   <v type="int" >        2       19       20       41       47 </v>
   <v type="int" >        2       14       20       47       48 </v>
   <v type="int" >        2       20       42       47       48 </v>
   <v type="int" >        2       20       41       42       47 </v>
   <v type="int" >        2       13       14       19       48 </v>
   <v type="int" >        2       14       19       20       48 </v>
   <v type="int" >        2       19       20       42       48 </v>
   <v type="int" >        2       13       19       48       49 </v>
   <v type="int" >        2       19       43       48       49 </v>
   <v type="int" >        2       19       42       43       48 </v>
   <v type="int" >        2       12       13       18       49 </v>
   <v type="int" >        2       13       18       19       49 </v>
   <v type="int" >        2       18       19       43       49 </v>
   <v type="int" >        2       12       18       49       50 </v>
   <v type="int" >        2       18       44       49       50 </v>
   <v type="int" >        2       18       43       44       49 </v>
   <v type="int" >        2       11       12       17       50 </v>
   <v type="int" >        2       12       17       18       50 </v>
   <v type="int" >        2       17       18       44       50 </v>
   <v type="int" >        2       11       17       45       50 </v>
   <v type="int" >        2       17       39       45       50 </v>
   <v type="int" >        2       17       39       44       50 </v>
   <v type="int" >        2        5       10       16       51 </v>
   <v type="int" >        2        5       11       16       51 </v>
   <v type="int" >        2       11       16       45       51 </v>
   <v type="int" >        2       10       16       51       52 </v>
   <v type="int" >        2       16       46       51       52 </v>
   <v type="int" >        2       16       45       46       51 </v>
   <v type="int" >        2        9       10       15       52 </v>
   <v type="int" >        2       10       15       16       52 </v>
   <v type="int" >        2       15       16       46       52 </v>
   <v type="int" >        2        9       15       52       53 </v>
   <v type="int" >        2       15       47       52       53 </v>
   <v type="int" >        2       15       46       47       52 </v>
   <v type="int" >        2        8        9       14       53 </v>
   <v type="int" >        2        9       14       15       53 </v>
   <v type="int" >        2       14       15       47       53 </v>
   <v type="int" >        2        8       14       53       54 </v>
   <v type="int" >        2       14       48       53       54 </v>
   <v type="int" >        2       14       47       48       53 </v>
   <v type="int" >        2        7        8       13       54 </v>
   <v type="int" >        2        8       13       14       54 </v>
   <v type="int" >        2       13       14       48       54 </v>
   <v type="int" >        2        7       13       54       55 </v>
   <v type="int" >        2       13       49       54       55 </v>
   <v type="int" >        2       13       48       49       54 </v>
   <v type="int" >        2        6        7       12       55 </v>
   <v type="int" >        2        7       12       13       55 </v>
   <v type="int" >        2       12       13       49       55 </v>
   <v type="int" >        2        6       12       55       56 </v>
   <v type="int" >        2       12       50       55       56 </v>
   <v type="int" >        2       12       49       50       55 </v>
   <v type="int" >        2        5        6       11       56 </v>
   <v type="int" >        2        6       11       12       56 </v>
   <v type="int" >        2       11       12       50       56 </v>
   <v type="int" >        2        5       11       51       56 </v>
   <v type="int" >        2       11       45       51       56 </v>
   <v type="int" >        2       11       45       50       56 </v>
   <v type="int" >        2        1        2       10       21 </v>
   <v type="int" >        2        1        5       10       21 </v>
   <v type="int" >        2        5       10       21       51 </v>
   <v type="int" >        2        2       10       21       22 </v>
   <v type="int" >        2       10       21       22       52 </v>
   <v type="int" >        2       10       21       51       52 </v>
   <v type="int" >        2        2        3        9       22 </v>
   <v type="int" >        2        2        9       10       22 </v>
   <v type="int" >        2        9       10       22       52 </v>
   <v type="int" >        2        3        9       22       23 </v>
   <v type="int" >        2        9       22       23       53 </v>
   <v type="int" >        2        9       22       52       53 </v>
   <v type="int" >        2        3        4        8       23 </v>
   <v type="int" >        2        3        8        9       23 </v>
   <v type="int" >        2        8        9       23       53 </v>
   <v type="int" >        2        4        8       23       24 </v>
   <v type="int" >        2        8       23       24       54 </v>
   <v type="int" >        2        8       23       53       54 </v>
   <v type="int" >        2        3        4        7       24 </v>
   <v type="int" >        2        4        7        8       24 </v>
   <v type="int" >        2        7        8       24       54 </v>
   <v type="int" >        2        3        7       24       25 </v>
   <v type="int" >        2        7       24       25       55 </v>
   <v type="int" >        2        7       24       54       55 </v>
   <v type="int" >        2        2        3        6       25 </v>
   <v type="int" >        2        3        6        7       25 </v>
   <v type="int" >        2        6        7       25       55 </v>
   <v type="int" >        2        2        6       25       26 </v>
   <v type="int" >        2        6       25       26       56 </v>
   <v type="int" >        2        6       25       55       56 </v>
   <v type="int" >        2        1        2        5       26 </v>
   <v type="int" >        2        2        5        6       26 </v>
   <v type="int" >        2        5        6       26       56 </v>
   <v type="int" >        2        1        5       21       26 </v>
   <v type="int" >        2        5       21       26       51 </v>
   <v type="int" >        2        5       26       51       56 </v>
   <v type="int" >        2       22       27       28       61 </v>
   <v type="int" >        2       21       22       27       61 </v>
   <v type="int" >        2       21       22       57       61 </v>
   <v type="int" >        2       22       28       61       62 </v>
   <v type="int" >        2       22       58       61       62 </v>
   <v type="int" >        2       22       57       58       61 </v>
   <v type="int" >        2       23       28       29       62 </v>
   <v type="int" >        2       22       23       28       62 </v>
   <v type="int" >        2       22       23       58       62 </v>
   <v type="int" >        2       23       29       62       63 </v>
   <v type="int" >        2       23       59       62       63 </v>
   <v type="int" >        2       23       58       59       62 </v>
   <v type="int" >        2       24       29       30       63 </v>
   <v type="int" >        2       23       24       29       63 </v>
   <v type="int" >        2       23       24       59       63 </v>
   <v type="int" >        2       24       30       63       64 </v>
   <v type="int" >        2       24       60       63       64 </v>
   <v type="int" >        2       24       59       60       63 </v>
   <v type="int" >        2       25       30       31       64 </v>
   <v type="int" >        2       24       25       30       64 </v>
   <v type="int" >        2       24       25       60       64 </v>
   <v type="int" >        2       25       31       64       65 </v>
   <v type="int" >        2       25       59       64       65 </v>
   <v type="int" >        2       25       59       60       64 </v>
   <v type="int" >        2       26       31       32       65 </v>
   <v type="int" >        2       25       26       31       65 </v>
   <v type="int" >        2       25       26       59       65 </v>
   <v type="int" >        2       26       32       65       66 </v>
   <v type="int" >        2       26       58       65       66 </v>
   <v type="int" >        2       26       58       59       65 </v>
   <v type="int" >        2       21       27       32       66 </v>
   <v type="int" >        2       21       26       32       66 </v>
   <v type="int" >        2       21       26       58       66 </v>
   <v type="int" >        2       21       27       61       66 </v>
   <v type="int" >        2       21       57       61       66 </v>
   <v type="int" >        2       21       57       58       66 </v>
   <v type="int" >        2       28       33       34       67 </v>
   <v type="int" >        2       27       28       33       67 </v>
   <v type="int" >        2       27       28       61       67 </v>
   <v type="int" >        2       28       34       67       68 </v>
   <v type="int" >        2       28       62       67       68 </v>
   <v type="int" >        2       28       61       62       67 </v>
   <v type="int" >        2       29       34       35       68 </v>
   <v type="int" >        2       28       29       34       68 </v>
   <v type="int" >        2       28       29       62       68 </v>
   <v type="int" >        2       29       35       68       69 </v>
   <v type="int" >        2       29       63       68       69 </v>
   <v type="int" >        2       29       62       63       68 </v>
   <v type="int" >        2       30       35       36       69 </v>
   <v type="int" >        2       29       30       35       69 </v>
   <v type="int" >        2       29       30       63       69 </v>
   <v type="int" >        2       30       36       69       70 </v>
   <v type="int" >        2       30       64       69       70 </v>
   <v type="int" >        2       30       63       64       69 </v>
   <v type="int" >        2       31       36       37       70 </v>
   <v type="int" >        2       30       31       36       70 </v>
   <v type="int" >        2       30       31       64       70 </v>
   <v type="int" >        2       31       37       70       71 </v>
   <v type="int" >        2       31       65       70       71 </v>
   <v type="int" >        2       31       64       65       70 </v>
   <v type="int" >        2       32       37       38       71 </v>
   <v type="int" >        2       31       32       37       71 </v>
   <v type="int" >        2       31       32       65       71 </v>
   <v type="int" >        2       32       38       71       72 </v>
   <v type="int" >        2       32       66       71       72 </v>
   <v type="int" >        2       32       65       66       71 </v>
   <v type="int" >        2       27       33       38       72 </v>
   <v type="int" >        2       27       32       38       72 </v>
   <v type="int" >        2       27       32       66       72 </v>
   <v type="int" >        2       27       33       67       72 </v>
   <v type="int" >        2       27       61       67       72 </v>
   <v type="int" >        2       27       61       66       72 </v>
   <v type="int" >        2       34       39       40       73 </v>
   <v type="int" >        2       33       34       39       73 </v>
   <v type="int" >        2       33       34       67       73 </v>
   <v type="int" >        2       34       40       73       74 </v>
   <v type="int" >        2       34       68       73       74 </v>
   <v type="int" >        2       34       67       68       73 </v>
   <v type="int" >        2       35       40       41       74 </v>
   <v type="int" >        2       34       35       40       74 </v>
   <v type="int" >        2       34       35       68       74 </v>
   <v type="int" >        2       35       41       74       75 </v>
   <v type="int" >        2       35       69       74       75 </v>
   <v type="int" >        2       35       68       69       74 </v>
   <v type="int" >        2       36       41       42       75 </v>
   <v type="int" >        2       35       36       41       75 </v>
   <v type="int" >        2       35       36       69       75 </v>
   <v type="int" >        2       36       42       75       76 </v>
   <v type="int" >        2       36       70       75       76 </v>
   <v type="int" >        2       36       69       70       75 </v>
   <v type="int" >        2       37       42       43       76 </v>
   <v type="int" >        2       36       37       42       76 </v>
   <v type="int" >        2       36       37       70       76 </v>
   <v type="int" >        2       37       43       75       76 </v>
   <v type="int" >        2       37       71       75       76 </v>
   <v type="int" >        2       37       70       71       76 </v>
   <v type="int" >        2       38       43       44       75 </v>
   <v type="int" >        2       37       38       43       75 </v>
   <v type="int" >        2       37       38       71       75 </v>
   <v type="int" >        2       38       44       74       75 </v>
   <v type="int" >        2       38       72       74       75 </v>
   <v type="int" >        2       38       71       72       75 </v>
   <v type="int" >        2       33       39       44       74 </v>
   <v type="int" >        2       33       38       44       74 </v>
   <v type="int" >        2       33       38       72       74 </v>
   <v type="int" >        2       33       39       73       74 </v>
   <v type="int" >        2       33       67       73       74 </v>
   <v type="int" >        2       33       67       72       74 </v>
   <v type="int" >        2       40       45       46       67 </v>
   <v type="int" >        2       39       40       45       67 </v>
   <v type="int" >        2       39       40       67       73 </v>
   <v type="int" >        2       40       46       67       72 </v>
   <v type="int" >        2       40       67       72       74 </v>
   <v type="int" >        2       40       67       73       74 </v>
   <v type="int" >        2       41       46       47       72 </v>
   <v type="int" >        2       40       41       46       72 </v>
   <v type="int" >        2       40       41       72       74 </v>
   <v type="int" >        2       41       47       71       72 </v>
   <v type="int" >        2       41       71       72       75 </v>
   <v type="int" >        2       41       72       74       75 </v>
   <v type="int" >        2       42       47       48       71 </v>
   <v type="int" >        2       41       42       47       71 </v>
   <v type="int" >        2       41       42       71       75 </v>
   <v type="int" >        2       42       48       70       71 </v>
   <v type="int" >        2       42       70       71       76 </v>
   <v type="int" >        2       42       71       75       76 </v>
   <v type="int" >        2       43       48       49       70 </v>
   <v type="int" >        2       42       43       48       70 </v>
   <v type="int" >        2       42       43       70       76 </v>
   <v type="int" >        2       43       49       69       70 </v>
   <v type="int" >        2       43       69       70       75 </v>
   <v type="int" >        2       43       70       75       76 </v>
   <v type="int" >        2       44       49       50       69 </v>
   <v type="int" >        2       43       44       49       69 </v>
   <v type="int" >        2       43       44       69       75 </v>
   <v type="int" >        2       44       50       68       69 </v>
   <v type="int" >        2       44       68       69       74 </v>
   <v type="int" >        2       44       69       74       75 </v>
   <v type="int" >        2       39       45       50       68 </v>
   <v type="int" >        2       39       44       50       68 </v>
   <v type="int" >        2       39       44       68       74 </v>
   <v type="int" >        2       39       45       67       68 </v>
   <v type="int" >        2       39       67       68       73 </v>
   <v type="int" >        2       39       68       73       74 </v>
   <v type="int" >        2       46       51       52       61 </v>
   <v type="int" >        2       45       46       51       61 </v>
   <v type="int" >        2       45       46       61       67 </v>
   <v type="int" >        2       46       52       61       66 </v>
   <v type="int" >        2       46       61       66       72 </v>
   <v type="int" >        2       46       61       67       72 </v>
   <v type="int" >        2       47       52       53       66 </v>
   <v type="int" >        2       46       47       52       66 </v>
   <v type="int" >        2       46       47       66       72 </v>
   <v type="int" >        2       47       53       65       66 </v>
   <v type="int" >        2       47       65       66       71 </v>
   <v type="int" >        2       47       66       71       72 </v>
   <v type="int" >        2       48       53       54       65 </v>
   <v type="int" >        2       47       48       53       65 </v>
   <v type="int" >        2       47       48       65       71 </v>
   <v type="int" >        2       48       54       64       65 </v>
   <v type="int" >        2       48       64       65       70 </v>
   <v type="int" >        2       48       65       70       71 </v>
   <v type="int" >        2       49       54       55       64 </v>
   <v type="int" >        2       48       49       54       64 </v>
   <v type="int" >        2       48       49       64       70 </v>
   <v type="int" >        2       49       55       63       64 </v>
   <v type="int" >        2       49       63       64       69 </v>
   <v type="int" >        2       49       64       69       70 </v>
   <v type="int" >        2       50       55       56       63 </v>
   <v type="int" >        2       49       50       55       63 </v>
   <v type="int" >        2       49       50       63       69 </v>
   <v type="int" >        2       50       56       62       63 </v>
   <v type="int" >        2       50       62       63       68 </v>
   <v type="int" >        2       50       63       68       69 </v>
   <v type="int" >        2       45       51       56       62 </v>
   <v type="int" >        2       45       50       56       62 </v>
   <v type="int" >        2       45       50       62       68 </v>
   <v type="int" >        2       45       51       61       62 </v>
   <v type="int" >        2       45       61       62       67 </v>
   <v type="int" >        2       45       62       67       68 </v>
   <v type="int" >        2       21       22       52       57 </v>
   <v type="int" >        2       21       51       52       57 </v>
   <v type="int" >        2       51       52       57       61 </v>
   <v type="int" >        2       22       52       57       58 </v>
   <v type="int" >        2       52       57       58       66 </v>
   <v type="int" >        2       52       57       61       66 </v>
   <v type="int" >        2       22       23       53       58 </v>
   <v type="int" >        2       22       52       53       58 </v>
   <v type="int" >        2       52       53       58       66 </v>
   <v type="int" >        2       23       53       58       59 </v>
   <v type="int" >        2       53       58       59       65 </v>
   <v type="int" >        2       53       58       65       66 </v>
   <v type="int" >        2       23       24       54       59 </v>
   <v type="int" >        2       23       53       54       59 </v>
   <v type="int" >        2       53       54       59       65 </v>
   <v type="int" >        2       24       54       59       60 </v>
   <v type="int" >        2       54       59       60       64 </v>
   <v type="int" >        2       54       59       64       65 </v>
   <v type="int" >        2       24       25       55       60 </v>
   <v type="int" >        2       24       54       55       60 </v>
   <v type="int" >        2       54       55       60       64 </v>
   <v type="int" >        2       25       55       59       60 </v>
   <v type="int" >        2       55       59       60       63 </v>
   <v type="int" >        2       55       60       63       64 </v>
   <v type="int" >        2       25       26       56       59 </v>
   <v type="int" >        2       25       55       56       59 </v>
   <v type="int" >        2       55       56       59       63 </v>
   <v type="int" >        2       26       56       58       59 </v>
   <v type="int" >        2       56       58       59       62 </v>
   <v type="int" >        2       56       59       62       63 </v>
   <v type="int" >        2       21       26       51       58 </v>
   <v type="int" >        2       26       51       56       58 </v>
   <v type="int" >        2       51       56       58       62 </v>
   <v type="int" >        2       21       51       57       58 </v>
   <v type="int" >        2       51       57       58       61 </v>
   <v type="int" >        2       51       58       61       62 </v>
  </varray>
  <i name="volumeweight">      0.00115741 </i>
 </kpoints>
 <parameters>
  <separator name="general" >
   <i type="string" name="SYSTEM">graphite</i>
   <i type="logical" name="LCOMPAT"> F  </i>
  </separator>
  <separator name="electronic" >
   <i type="string" name="PREC">accura</i>
   <i name="ENMAX">    800.00000000</i>
   <i name="ENAUG">    644.87300000</i>
   <i name="EDIFF">      0.00000001</i>
   <i type="int" name="IALGO">    38</i>
   <i type="int" name="IWAVPR">    10</i>
   <i type="int" name="NBANDS">    84</i>
   <i name="NELECT">    128.00000000</i>
   <i type="int" name="TURBO">     0</i>
   <i type="int" name="IRESTART">     0</i>
   <i type="int" name="NREBOOT">     0</i>
   <i type="int" name="NMIN">     0</i>
   <i name="EREF">      0.00000000</i>
   <separator name="electronic smearing" >
    <i type="int" name="ISMEAR">    -5</i>
    <i name="SIGMA">      0.20000000</i>
    <i name="KSPACING">      0.50000000</i>
    <i type="logical" name="KGAMMA"> T  </i>
   </separator>
   <separator name="electronic projectors" >
    <i type="logical" name="LREAL"> F  </i>
    <v name="ROPT">      0.00000000</v>
    <i type="int" name="LMAXPAW">  -100</i>
    <i type="int" name="LMAXMIX">     2</i>
    <i type="logical" name="NLSPLINE"> F  </i>
   </separator>
   <separator name="electronic startup" >
    <i type="int" name="ISTART">     0</i>
    <i type="int" name="ICHARG">     2</i>
    <i type="int" name="INIWAV">     1</i>
   </separator>
   <separator name="electronic spin" >
    <i type="int" name="ISPIN">     1</i>
    <i type="logical" name="LNONCOLLINEAR"> F  </i>
    <v name="MAGMOM">      1.00000000      1.00000000      1.00000000      1.00000000      1.00000000      1.00000000      1.00000000      1.00000000      1.00000000      1.00000000      1.00000000      1.00000000      1.00000000      1.00000000      1.00000000      1.00000000      1.00000000      1.00000000      1.00000000      1.00000000
      1.00000000      1.00000000      1.00000000      1.00000000      1.00000000      1.00000000      1.00000000      1.00000000      1.00000000      1.00000000      1.00000000      1.00000000</v>
    <i name="NUPDOWN">     -1.00000000</i>
    <i type="logical" name="LSORBIT"> F  </i>
    <v name="SAXIS">      0.00000000      0.00000000      1.00000000</v>
    <i type="logical" name="LSPIRAL"> F  </i>
    <v name="QSPIRAL">      0.00000000      0.00000000      0.00000000</v>
    <i type="logical" name="LZEROZ"> F  </i>
   </separator>
   <separator name="electronic exchange-correlation" >
    <i type="logical" name="LASPH"> F  </i>
    <i type="logical" name="LMETAGGA"> F  </i>
   </separator>
   <separator name="electronic convergence" >
    <i type="int" name="NELM">   200</i>
    <i type="int" name="NELMDL">     0</i>
    <i type="int" name="NELMIN">     2</i>
    <i name="ENINI">    800.00000000</i>
    <separator name="electronic convergence detail" >
     <i type="logical" name="LDIAG"> T  </i>
     <i type="logical" name="LSUBROT"> F  </i>
     <i name="WEIMIN">      0.00000000</i>
     <i name="EBREAK">      0.00000000</i>
     <i name="DEPER">      0.30000000</i>
     <i type="int" name="NRMM">     4</i>
     <i name="TIME">      0.40000000</i>
    </separator>
   </separator>
   <separator name="electronic mixer" >
    <i name="AMIX">      0.40000000</i>
    <i name="BMIX">      1.00000000</i>
    <i name="AMIN">      0.10000000</i>
    <i name="AMIX_MAG">      1.60000000</i>
    <i name="BMIX_MAG">      1.00000000</i>
    <separator name="electronic mixer details" >
     <i type="int" name="IMIX">     4</i>
     <i type="int" name="MAXMIX">   -45</i>
     <i name="WC">    100.00000000</i>
     <i type="int" name="INIMIX">     1</i>
     <i type="int" name="MIXPRE">     1</i>
     <i type="int" name="MREMOVE">     5</i>
    </separator>
   </separator>
   <separator name="electronic dipolcorrection" >
    <i type="logical" name="LDIPOL"> F  </i>
    <i type="logical" name="LMONO"> F  </i>
    <i type="int" name="IDIPOL">     0</i>
    <i name="EPSILON">      1.00000000</i>
    <v name="DIPOL">   -100.00000000   -100.00000000   -100.00000000</v>
    <i name="EFIELD">      0.00000000</i>
   </separator>
  </separator>
  <separator name="grids" >
   <i type="int" name="NGX">    48</i>
   <i type="int" name="NGY">    48</i>
   <i type="int" name="NGZ">   128</i>
   <i type="int" name="NGXF">    96</i>
   <i type="int" name="NGYF">    96</i>
   <i type="int" name="NGZF">   256</i>
   <i type="logical" name="ADDGRID"> F  </i>
  </separator>
  <separator name="ionic" >
   <i type="int" name="NSW">     0</i>
   <i type="int" name="IBRION">    -1</i>
   <i type="int" name="ISIF">     2</i>
   <i name="PSTRESS">      0.00000000</i>
   <i name="EDIFFG">      0.00100000</i>
   <i type="int" name="NFREE">     0</i>
   <i name="POTIM">      0.50000000</i>
   <i name="SMASS">     -3.00000000</i>
   <i name="SCALEE">      1.00000000</i>
  </separator>
  <separator name="ionic md" >
   <i name="TEBEG">      0.00010000</i>
   <i name="TEEND">      0.00010000</i>
   <i type="int" name="NBLOCK">     1</i>
   <i type="int" name="KBLOCK">     1</i>
   <i type="int" name="NPACO">   256</i>
   <i name="APACO">     16.00000000</i>
  </separator>
  <separator name="symmetry" >
   <i type="int" name="ISYM">     2</i>
   <i name="SYMPREC">      0.00001000</i>
  </separator>
  <separator name="dos" >
   <i type="logical" name="LORBIT"> F  </i>
   <v name="RWIGS">     -1.00000000</v>
   <i type="int" name="NEDOS">   301</i>
   <i name="EMIN">     10.00000000</i>
   <i name="EMAX">    -10.00000000</i>
   <i name="EFERMI">      0.00000000</i>
  </separator>
  <separator name="writing" >
   <i type="int" name="NWRITE">     2</i>
   <i type="logical" name="LWAVE"> F  </i>
   <i type="logical" name="LCHARG"> F  </i>
   <i type="logical" name="LPARD"> F  </i>
   <i type="logical" name="LVTOT"> F  </i>
   <i type="logical" name="LVHAR"> F  </i>
   <i type="logical" name="LELF"> F  </i>
   <i type="logical" name="LOPTICS"> F  </i>
   <v name="STM">      0.00000000      0.00000000      0.00000000      0.00000000      0.00000000      0.00000000      0.00000000</v>
  </separator>
  <separator name="performance" >
   <i type="int" name="NPAR">     6</i>
   <i type="int" name="NSIM">     4</i>
   <i type="int" name="NBLK">    -1</i>
   <i type="logical" name="LPLANE"> T  </i>
   <i type="logical" name="LSCALAPACK"> T  </i>
   <i type="logical" name="LSCAAWARE"> F  </i>
   <i type="logical" name="LSCALU"> F  </i>
   <i type="logical" name="LASYNC"> F  </i>
   <i type="logical" name="LORBITALREAL"> F  </i>
  </separator>
  <separator name="miscellaneous" >
   <i type="int" name="IDIOT">     3</i>
   <i type="logical" name="LMUSIC"> F  </i>
   <v name="POMASS">     12.01100000</v>
   <v name="DARWINR">      0.00000000</v>
   <v name="DARWINV">      1.00000000</v>
   <i type="logical" name="LCORR"> T  </i>
  </separator>
  <i type="logical" name="GGA_COMPAT"> T  </i>
  <i type="logical" name="LBERRY"> F  </i>
  <i type="int" name="ICORELEVEL">     0</i>
  <i type="logical" name="LDAU"> F  </i>
  <i type="int" name="I_CONSTRAINED_M">     0</i>
  <separator name="electronic exchange-correlation" >
   <i type="string" name="GGA">PE</i>
   <i type="int" name="VOSKOWN">     0</i>
   <i type="logical" name="LHFCALC"> F  </i>
   <i type="string" name="PRECFOCK"></i>
   <i type="logical" name="LSYMGRAD"> F  </i>
   <i type="logical" name="LHFONE"> F  </i>
   <i type="logical" name="LRHFCALC"> F  </i>
   <i type="logical" name="LTHOMAS"> F  </i>
   <i type="logical" name="LMODELHF"> F  </i>
   <i name="ENCUT4O">     -1.00000000</i>
   <i type="int" name="EXXOEP">     0</i>
   <i type="int" name="FOURORBIT">     0</i>
   <i name="AEXX">      0.00000000</i>
   <i name="HFALPHA">      0.00000000</i>
   <i name="MCALPHA">      0.00000000</i>
   <i name="ALDAX">      1.00000000</i>
   <i name="AGGAX">      1.00000000</i>
   <i name="ALDAC">      1.00000000</i>
   <i name="AGGAC">      1.00000000</i>
   <i type="int" name="NKREDX">     1</i>
   <i type="int" name="NKREDY">     1</i>
   <i type="int" name="NKREDZ">     1</i>
   <i type="logical" name="SHIFTRED"> F  </i>
   <i type="logical" name="ODDONLY"> F  </i>
   <i type="logical" name="EVENONLY"> F  </i>
   <i type="int" name="LMAXFOCK">     0</i>
   <i type="int" name="NMAXFOCKAE">     0</i>
   <i type="logical" name="LFOCKAEDFT"> F  </i>
   <i name="HFSCREEN">      0.00000000</i>
   <i name="HFSCREENC">      0.00000000</i>
   <i type="int" name="NBANDSGWLOW">     0</i>
  </separator>
  <separator name="vdW DFT" >
   <i type="logical" name="LUSE_VDW"> F  </i>
   <i name="Zab_VDW">     -0.84910000</i>
   <i name="PARAM1">      0.12340000</i>
   <i name="PARAM2">      1.00000000</i>
   <i name="PARAM3">      0.00000000</i>
  </separator>
  <separator name="model GW" >
   <i type="int" name="MODEL_GW">     0</i>
   <i name="MODEL_EPS0">      5.44789012</i>
   <i name="MODEL_ALPHA">      1.00000000</i>
  </separator>
  <separator name="linear response parameters" >
   <i type="logical" name="LEPSILON"> F  </i>
   <i type="logical" name="LRPA"> F  </i>
   <i type="logical" name="LNABLA"> F  </i>
   <i type="logical" name="LVEL"> F  </i>
   <i type="int" name="KINTER">     0</i>
   <i name="CSHIFT">      0.10000000</i>
   <i name="OMEGAMAX">     -1.00000000</i>
   <i name="DEG_THRESHOLD">      0.00200000</i>
  </separator>
  <separator name="orbital magnetization" >
   <i type="logical" name="NUCIND"> F  </i>
   <v name="MAGPOS">      0.00000000      0.00000000      0.00000000</v>
   <i type="logical" name="LNICSALL"> T  </i>
   <i type="logical" name="ORBITALMAG"> F  </i>
   <i type="logical" name="LMAGBLOCH"> F  </i>
   <i type="logical" name="LCHIMAG"> F  </i>
   <i type="logical" name="LGAUGE"> T  </i>
   <i type="int" name="MAGATOM">     0</i>
   <v name="MAGDIPOL">      0.00000000      0.00000000      0.00000000</v>
   <v name="AVECCONST">      0.00000000      0.00000000      0.00000000</v>
  </separator>
  <separator name="response functions" >
   <i type="logical" name="LADDER"> F  </i>
   <i type="logical" name="LFXC"> F  </i>
   <i type="logical" name="LHARTREE"> T  </i>
   <i type="int" name="IBSE">     0</i>
   <i type="logical" name="LTCTE"> F  </i>
   <i type="logical" name="LTETE"> F  </i>
   <i type="logical" name="LTRIPLET"> F  </i>
   <i type="logical" name="LFXCEPS"> F  </i>
   <i type="logical" name="LFXHEG"> F  </i>
   <i type="logical" name="L2ORDER"> F  </i>
   <i type="logical" name="LUSEW"> F  </i>
   <i name="ENCUTGW">     -2.00000000</i>
   <i name="ENCUTGWSOFT">     -2.00000000</i>
   <i name="ENCUTLF">     -1.00000000</i>
   <i type="int" name="LMAXMP2">    -1</i>
   <i name="SCISSOR">      0.00000000</i>
   <i type="int" name="NOMEGA">     0</i>
   <i type="int" name="NOMEGAR">     0</i>
   <i type="int" name="NBANDSGW">    -1</i>
   <i type="int" name="NBANDSO">    -1</i>
   <i type="int" name="NBANDSV">    -1</i>
   <i type="int" name="NELM">   200</i>
   <i type="int" name="DIM">     3</i>
   <i type="int" name="ANTIRES">     0</i>
   <i name="OMEGAMAX">    -30.00000000</i>
   <i name="OMEGAMIN">    -30.00000000</i>
   <i name="OMEGATL">   -200.00000000</i>
   <i type="int" name="OMEGAGRID">     0</i>
   <i name="CSHIFT">     -0.10000000</i>
   <i type="logical" name="SELFENERGY"> F  </i>
   <i type="logical" name="LSPECTRAL"> F  </i>
   <i type="logical" name="ODDONLYGW"> F  </i>
   <i type="logical" name="EVENONLYGW"> F  </i>
   <i type="int" name="NKREDLFX">     1</i>
   <i type="int" name="NKREDLFY">     1</i>
   <i type="int" name="NKREDLFZ">     1</i>
   <i type="int" name="MAXMEM">  1800</i>
   <i type="int" name="TELESCOPE">     0</i>
   <i type="int" name="TAUPAR">     1</i>
  </separator>
  <separator name="External order field" >
   <i name="OFIELD_KAPPA">      0.00000000</i>
   <v name="OFIELD_K">      0.00000000      0.00000000      0.00000000</v>
   <i name="OFIELD_Q6_NEAR">      0.00000000</i>
   <i name="OFIELD_Q6_FAR">      0.00000000</i>
   <i name="OFIELD_A">      0.00000000</i>
  </separator>
 </parameters>
 <atominfo>
  <atoms>      32 </atoms>
  <types>       1 </types>
  <array name="atoms" >
   <dimension dim="1">ion</dimension>
   <field type="string">element</field>
   <field type="int">atomtype</field>
   <set>
    <rc><c>C </c><c>   1</c></rc>
    <rc><c>C </c><c>   1</c></rc>
    <rc><c>C </c><c>   1</c></rc>
    <rc><c>C </c><c>   1</c></rc>
    <rc><c>C </c><c>   1</c></rc>
    <rc><c>C </c><c>   1</c></rc>
    <rc><c>C </c><c>   1</c></rc>
    <rc><c>C </c><c>   1</c></rc>
    <rc><c>C </c><c>   1</c></rc>
    <rc><c>C </c><c>   1</c></rc>
    <rc><c>C </c><c>   1</c></rc>
    <rc><c>C </c><c>   1</c></rc>
    <rc><c>C </c><c>   1</c></rc>
    <rc><c>C </c><c>   1</c></rc>
    <rc><c>C </c><c>   1</c></rc>
    <rc><c>C </c><c>   1</c></rc>
    <rc><c>C </c><c>   1</c></rc>
    <rc><c>C </c><c>   1</c></rc>
    <rc><c>C </c><c>   1</c></rc>
    <rc><c>C </c><c>   1</c></rc>
    <rc><c>C </c><c>   1</c></rc>
    <rc><c>C </c><c>   1</c></rc>
    <rc><c>C </c><c>   1</c></rc>
    <rc><c>C </c><c>   1</c></rc>
    <rc><c>C </c><c>   1</c></rc>
    <rc><c>C </c><c>   1</c></rc>
    <rc><c>C </c><c>   1</c></rc>
    <rc><c>C </c><c>   1</c></rc>
    <rc><c>C </c><c>   1</c></rc>
    <rc><c>C </c><c>   1</c></rc>
    <rc><c>C </c><c>   1</c></rc>
    <rc><c>C </c><c>   1</c></rc>
   </set>
  </array>
  <array name="atomtypes" >
   <dimension dim="1">type</dimension>
   <field type="int">atomspertype</field>
   <field type="string">element</field>
   <field>mass</field>
   <field>valence</field>
   <field type="string">pseudopotential</field>
   <set>
    <rc><c>  32</c><c>C </c><c>     12.01100000</c><c>      4.00000000</c><c> PAW_PBE C 08Apr2002                    </c></rc>
   </set>
  </array>
 </atominfo>
 <structure name="initialpos" >
  <crystal>
   <varray name="basis" >
    <v>       4.93287450      -0.00191929       0.00000000 </v>
    <v>      -2.46809940       4.27103499       0.00000000 </v>
    <v>       0.00000000       0.00000000      13.79404151 </v>
   </varray>
   <i name="volume">    290.55413951 </i>
   <varray name="rec_basis" >
    <v>       0.20276715       0.11717288       0.00000000 </v>
    <v>       0.00009112       0.23418794       0.00000000 </v>
    <v>       0.00000000       0.00000000       0.07249507 </v>
   </varray>
  </crystal>
  <varray name="positions" >
   <v>       0.49967330       0.00032672       0.12500000 </v>
   <v>       0.99967330       0.00032672       0.12500000 </v>
   <v>       0.49967330       0.50032672       0.12500000 </v>
   <v>       0.99967330       0.50032672       0.12500000 </v>
   <v>       0.49967330       0.00032672       0.62500000 </v>
   <v>       0.99967330       0.00032672       0.62500000 </v>
   <v>       0.49967330       0.50032672       0.62500000 </v>
   <v>       0.99967330       0.50032672       0.62500000 </v>
   <v>       0.00032672       0.49967330       0.37500000 </v>
   <v>       0.50032672       0.49967330       0.37500000 </v>
   <v>       0.00032672       0.99967330       0.37500000 </v>
   <v>       0.50032672       0.99967330       0.37500000 </v>
   <v>       0.00032672       0.49967330       0.87500000 </v>
   <v>       0.50032672       0.49967330       0.87500000 </v>
   <v>       0.00032672       0.99967330       0.87500000 </v>
   <v>       0.50032672       0.99967330       0.87500000 </v>
   <v>       0.16560985       0.33370753       0.12431738 </v>
   <v>       0.66629246       0.33370753       0.12500000 </v>
   <v>       0.16629246       0.83370753       0.12500000 </v>
   <v>       0.66629246       0.83370753       0.12500000 </v>
   <v>       0.16629246       0.33370753       0.62500000 </v>
   <v>       0.66629246       0.33370753       0.62500000 </v>
   <v>       0.16629246       0.83370753       0.62500000 </v>
   <v>       0.66629246       0.83370753       0.62500000 </v>
   <v>       0.33370753       0.16629246       0.37500000 </v>
   <v>       0.83370753       0.16629246       0.37500000 </v>
   <v>       0.33370753       0.66629246       0.37500000 </v>
   <v>       0.83370753       0.66629246       0.37500000 </v>
   <v>       0.33370753       0.16629246       0.87500000 </v>
   <v>       0.83370753       0.16629246       0.87500000 </v>
   <v>       0.33370753       0.66629246       0.87500000 </v>
   <v>       0.83370753       0.66629246       0.87500000 </v>
  </varray>
 </structure>
 <calculation>
  <scstep>
   <time name="dav">  407.83 1021.38</time>
   <time name="total">  409.24 1024.86</time>
   <energy>
    <i name="alphaZ">    287.16055492 </i>
    <i name="ewald">  -3548.47885723 </i>
    <i name="hartreedc">  -1278.44619413 </i>
    <i name="XCdc">    442.74540370 </i>
    <i name="pawpsdc">   1210.60617908 </i>
    <i name="pawaedc">  -1247.42152856 </i>
    <i name="eentropy">      0.00000000 </i>
    <i name="bandstr">    142.48083139 </i>
    <i name="atom">   4708.94155045 </i>
    <i name="e_fr_energy">    717.58793962 </i>
    <i name="e_wo_entrp">    717.58793962 </i>
    <i name="e_0_energy">    717.58793962 </i>
   </energy>
  </scstep>
  <scstep>
   <time name="dav">  475.57 1182.17</time>
   <time name="total">  475.65 1182.42</time>
   <energy>
    <i name="e_fr_energy">   -253.33338490 </i>
    <i name="e_wo_entrp">   -253.33338490 </i>
    <i name="e_0_energy">   -253.33338490 </i>
   </energy>
  </scstep>
  <scstep>
   <time name="dav">  442.03  923.79</time>
   <time name="total">  442.08  923.91</time>
   <energy>
    <i name="e_fr_energy">   -312.88136203 </i>
    <i name="e_wo_entrp">   -312.88136203 </i>
    <i name="e_0_energy">   -312.88136203 </i>
   </energy>
  </scstep>
  <scstep>
   <time name="dav">  454.28  909.05</time>
   <time name="total">  454.36  909.19</time>
   <energy>
    <i name="e_fr_energy">   -314.06717494 </i>
    <i name="e_wo_entrp">   -314.06717494 </i>
    <i name="e_0_energy">   -314.06717494 </i>
   </energy>
  </scstep>
  <scstep>
   <time name="dav">  464.18  885.86</time>
   <time name="total">  472.03  897.07</time>
   <energy>
    <i name="e_fr_energy">   -314.10225067 </i>
    <i name="e_wo_entrp">   -314.10225067 </i>
    <i name="e_0_energy">   -314.10225067 </i>
   </energy>
  </scstep>
  <scstep>
   <time name="dav">  474.18  494.11</time>
   <time name="total">  486.95  507.65</time>
   <energy>
    <i name="e_fr_energy">   -299.56069068 </i>
    <i name="e_wo_entrp">   -299.56069068 </i>
    <i name="e_0_energy">   -299.56069068 </i>
   </energy>
  </scstep>
  <scstep>
   <time name="dav">  475.38  475.61</time>
   <time name="total">  488.60  488.85</time>
   <energy>
    <i name="e_fr_energy">   -294.91829260 </i>
    <i name="e_wo_entrp">   -294.91829260 </i>
    <i name="e_0_energy">   -294.91829260 </i>
   </energy>
  </scstep>
  <scstep>
   <time name="dav">  488.43  488.67</time>
   <time name="total">  501.08  501.33</time>
   <energy>
    <i name="e_fr_energy">   -294.99190351 </i>
    <i name="e_wo_entrp">   -294.99190351 </i>
    <i name="e_0_energy">   -294.99190351 </i>
   </energy>
  </scstep>
  <scstep>
   <time name="dav">  486.01  486.24</time>
   <time name="total">  499.14  499.39</time>
   <energy>
    <i name="e_fr_energy">   -294.98961087 </i>
    <i name="e_wo_entrp">   -294.98961087 </i>
    <i name="e_0_energy">   -294.98961087 </i>
   </energy>
  </scstep>
  <scstep>
   <time name="dav">  599.47  599.76</time>
   <time name="total">  613.09  613.39</time>
   <energy>
    <i name="e_fr_energy">   -294.98207419 </i>
    <i name="e_wo_entrp">   -294.98207419 </i>
    <i name="e_0_energy">   -294.98207419 </i>
   </energy>
  </scstep>
  <scstep>
   <time name="dav">  465.57  465.80</time>
   <time name="total">  478.26  478.50</time>
   <energy>
    <i name="e_fr_energy">   -294.98332536 </i>
    <i name="e_wo_entrp">   -294.98332536 </i>
    <i name="e_0_energy">   -294.98332536 </i>
   </energy>
  </scstep>
  <scstep>
   <time name="dav">  477.47  477.71</time>
   <time name="total">  490.76  491.01</time>
   <energy>
    <i name="e_fr_energy">   -294.98302228 </i>
    <i name="e_wo_entrp">   -294.98302228 </i>
    <i name="e_0_energy">   -294.98302228 </i>
   </energy>
  </scstep>
  <scstep>
   <time name="dav">  523.95  524.21</time>
   <time name="total">  536.96  537.23</time>
   <energy>
    <i name="e_fr_energy">   -294.98290803 </i>
    <i name="e_wo_entrp">   -294.98290803 </i>
    <i name="e_0_energy">   -294.98290803 </i>
   </energy>
  </scstep>
  <scstep>
   <time name="dav">  506.79  507.04</time>
   <time name="total">  519.78  520.04</time>
   <energy>
    <i name="e_fr_energy">   -294.98310129 </i>
    <i name="e_wo_entrp">   -294.98310129 </i>
    <i name="e_0_energy">   -294.98310129 </i>
   </energy>
  </scstep>
  <scstep>
   <time name="dav">  503.99  504.24</time>
   <time name="total">  517.62  517.88</time>
   <energy>
    <i name="e_fr_energy">   -294.98349885 </i>
    <i name="e_wo_entrp">   -294.98349885 </i>
    <i name="e_0_energy">   -294.98349885 </i>
   </energy>
  </scstep>
  <scstep>
   <time name="dav">  592.38  592.67</time>
   <time name="total">  605.16  605.46</time>
   <energy>
    <i name="e_fr_energy">   -294.98319903 </i>
    <i name="e_wo_entrp">   -294.98319903 </i>
    <i name="e_0_energy">   -294.98319903 </i>
   </energy>
  </scstep>
  <scstep>
   <time name="dav">  488.52  488.76</time>
   <time name="total">  502.04  502.29</time>
   <energy>
    <i name="e_fr_energy">   -294.98294205 </i>
    <i name="e_wo_entrp">   -294.98294205 </i>
    <i name="e_0_energy">   -294.98294205 </i>
   </energy>
  </scstep>
  <scstep>
   <time name="dav">  653.31  653.64</time>
   <time name="total">  667.57  667.90</time>
   <energy>
    <i name="e_fr_energy">   -294.98294269 </i>
    <i name="e_wo_entrp">   -294.98294269 </i>
    <i name="e_0_energy">   -294.98294269 </i>
   </energy>
  </scstep>
  <scstep>
   <time name="dav">  488.78  489.02</time>
   <time name="total">  501.84  502.09</time>
   <energy>
    <i name="e_fr_energy">   -294.98290273 </i>
    <i name="e_wo_entrp">   -294.98290273 </i>
    <i name="e_0_energy">   -294.98290273 </i>
   </energy>
  </scstep>
  <scstep>
   <time name="dav">  488.93  489.17</time>
   <time name="total">  502.32  502.57</time>
   <energy>
    <i name="e_fr_energy">   -294.98290232 </i>
    <i name="e_wo_entrp">   -294.98290232 </i>
    <i name="e_0_energy">   -294.98290232 </i>
   </energy>
  </scstep>
  <scstep>
   <time name="dav">  542.20  542.47</time>
   <time name="total">  555.52  555.80</time>
   <energy>
    <i name="e_fr_energy">   -294.98290413 </i>
    <i name="e_wo_entrp">   -294.98290413 </i>
    <i name="e_0_energy">   -294.98290413 </i>
   </energy>
  </scstep>
  <scstep>
   <time name="dav">  500.88  501.12</time>
   <time name="total">  513.84  514.10</time>
   <energy>
    <i name="e_fr_energy">   -294.98290459 </i>
    <i name="e_wo_entrp">   -294.98290459 </i>
    <i name="e_0_energy">   -294.98290459 </i>
   </energy>
  </scstep>
  <scstep>
   <time name="dav">  371.30  371.49</time>
   <time name="total">  384.77  384.96</time>
   <energy>
    <i name="e_fr_energy">   -294.98290411 </i>
    <i name="e_wo_entrp">   -294.98290411 </i>
    <i name="e_0_energy">   -294.98290411 </i>
   </energy>
  </scstep>
  <scstep>
   <time name="dav">  601.68  601.98</time>
   <time name="total">  615.06  615.37</time>
   <energy>
    <i name="e_fr_energy">   -294.98290506 </i>
    <i name="e_wo_entrp">   -294.98290506 </i>
    <i name="e_0_energy">   -294.98290506 </i>
   </energy>
  </scstep>
  <scstep>
   <time name="dav">  549.45  549.72</time>
   <time name="total">  562.95  563.23</time>
   <energy>
    <i name="e_fr_energy">   -294.98290248 </i>
    <i name="e_wo_entrp">   -294.98290248 </i>
    <i name="e_0_energy">   -294.98290248 </i>
   </energy>
  </scstep>
  <scstep>
   <time name="dav">  499.68  499.93</time>
   <time name="total">  513.17  513.42</time>
   <energy>
    <i name="e_fr_energy">   -294.98290235 </i>
    <i name="e_wo_entrp">   -294.98290235 </i>
    <i name="e_0_energy">   -294.98290235 </i>
   </energy>
  </scstep>
  <scstep>
   <time name="dav">  656.61  656.93</time>
   <time name="total">  669.57  669.90</time>
   <energy>
    <i name="e_fr_energy">   -294.98290731 </i>
    <i name="e_wo_entrp">   -294.98290731 </i>
    <i name="e_0_energy">   -294.98290731 </i>
   </energy>
  </scstep>
  <scstep>
   <time name="dav">  598.18  598.47</time>
   <time name="total">  611.69  611.99</time>
   <energy>
    <i name="e_fr_energy">   -294.98289801 </i>
    <i name="e_wo_entrp">   -294.98289801 </i>
    <i name="e_0_energy">   -294.98289801 </i>
   </energy>
  </scstep>
  <scstep>
   <time name="dav">  508.70  508.95</time>
   <time name="total">  522.13  522.39</time>
   <energy>
    <i name="e_fr_energy">   -294.98289585 </i>
    <i name="e_wo_entrp">   -294.98289585 </i>
    <i name="e_0_energy">   -294.98289585 </i>
   </energy>
  </scstep>
  <scstep>
   <time name="dav">  494.14  494.38</time>
   <time name="total">  507.58  507.84</time>
   <energy>
    <i name="e_fr_energy">   -294.98289550 </i>
    <i name="e_wo_entrp">   -294.98289550 </i>
    <i name="e_0_energy">   -294.98289550 </i>
   </energy>
  </scstep>
  <scstep>
   <time name="dav">  407.16  407.36</time>
   <time name="total">  421.11  421.32</time>
   <energy>
    <i name="e_fr_energy">   -294.98289546 </i>
    <i name="e_wo_entrp">   -294.98289546 </i>
    <i name="e_0_energy">   -294.98289546 </i>
   </energy>
  </scstep>
  <scstep>
   <time name="dav">  509.57  509.82</time>
   <time name="total">  523.15  523.41</time>
   <energy>
    <i name="e_fr_energy">   -294.98289545 </i>
    <i name="e_wo_entrp">   -294.98289545 </i>
    <i name="e_0_energy">   -294.98289545 </i>
   </energy>
  </scstep>
  <scstep>
   <time name="dav">  373.49  373.68</time>
   <time name="total">  387.58  387.77</time>
   <energy>
    <i name="e_fr_energy">   -294.98289543 </i>
    <i name="e_wo_entrp">   -294.98289543 </i>
    <i name="e_0_energy">   -294.98289543 </i>
   </energy>
  </scstep>
  <scstep>
   <time name="dav">  474.45  474.68</time>
   <time name="total">  488.41  488.66</time>
   <energy>
    <i name="e_fr_energy">   -294.98289538 </i>
    <i name="e_wo_entrp">   -294.98289538 </i>
    <i name="e_0_energy">   -294.98289538 </i>
   </energy>
  </scstep>
  <scstep>
   <time name="dav">  494.73  494.97</time>
   <time name="total">  508.91  509.27</time>
   <energy>
    <i name="e_fr_energy">   -294.98289543 </i>
    <i name="e_wo_entrp">   -294.98289543 </i>
    <i name="e_0_energy">   -294.98289543 </i>
   </energy>
  </scstep>
  <scstep>
   <time name="dav">  388.79  388.99</time>
   <time name="total">  390.67  390.89</time>
   <energy>
    <i name="alphaZ">    287.16055492 </i>
    <i name="ewald">  -3548.47885723 </i>
    <i name="hartreedc">  -1564.31647019 </i>
    <i name="XCdc">    460.95312714 </i>
    <i name="pawpsdc">   2222.40409736 </i>
    <i name="pawaedc">  -2263.61943242 </i>
    <i name="eentropy">      0.00000000 </i>
    <i name="bandstr">   -598.02746545 </i>
    <i name="atom">   4708.94155045 </i>
    <i name="e_fr_energy">   -294.98289542 </i>
    <i name="e_wo_entrp">   -294.98289542 </i>
    <i name="e_0_energy">   -294.98289542 </i>
   </energy>
  </scstep>
  <structure>
   <crystal>
    <varray name="basis" >
     <v>       4.93287450      -0.00191929       0.00000000 </v>
     <v>      -2.46809940       4.27103499       0.00000000 </v>
     <v>       0.00000000       0.00000000      13.79404151 </v>
    </varray>
    <i name="volume">    290.55413951 </i>
    <varray name="rec_basis" >
     <v>       0.20276715       0.11717288       0.00000000 </v>
     <v>       0.00009112       0.23418794       0.00000000 </v>
     <v>       0.00000000       0.00000000       0.07249507 </v>
    </varray>
   </crystal>
   <varray name="positions" >
    <v>       0.49967330       0.00032672       0.12500000 </v>
    <v>       0.99967330       0.00032672       0.12500000 </v>
    <v>       0.49967330       0.50032672       0.12500000 </v>
    <v>       0.99967330       0.50032672       0.12500000 </v>
    <v>       0.49967330       0.00032672       0.62500000 </v>
    <v>       0.99967330       0.00032672       0.62500000 </v>
    <v>       0.49967330       0.50032672       0.62500000 </v>
    <v>       0.99967330       0.50032672       0.62500000 </v>
    <v>       0.00032672       0.49967330       0.37500000 </v>
    <v>       0.50032672       0.49967330       0.37500000 </v>
    <v>       0.00032672       0.99967330       0.37500000 </v>
    <v>       0.50032672       0.99967330       0.37500000 </v>
    <v>       0.00032672       0.49967330       0.87500000 </v>
    <v>       0.50032672       0.49967330       0.87500000 </v>
    <v>       0.00032672       0.99967330       0.87500000 </v>
    <v>       0.50032672       0.99967330       0.87500000 </v>
    <v>       0.16560985       0.33370753       0.12431738 </v>
    <v>       0.66629246       0.33370753       0.12500000 </v>
    <v>       0.16629246       0.83370753       0.12500000 </v>
    <v>       0.66629246       0.83370753       0.12500000 </v>
    <v>       0.16629246       0.33370753       0.62500000 </v>
    <v>       0.66629246       0.33370753       0.62500000 </v>
    <v>       0.16629246       0.83370753       0.62500000 </v>
    <v>       0.66629246       0.83370753       0.62500000 </v>
    <v>       0.33370753       0.16629246       0.37500000 </v>
    <v>       0.83370753       0.16629246       0.37500000 </v>
    <v>       0.33370753       0.66629246       0.37500000 </v>
    <v>       0.83370753       0.66629246       0.37500000 </v>
    <v>       0.33370753       0.16629246       0.87500000 </v>
    <v>       0.83370753       0.16629246       0.87500000 </v>
    <v>       0.33370753       0.66629246       0.87500000 </v>
    <v>       0.83370753       0.66629246       0.87500000 </v>
   </varray>
  </structure>
  <varray name="forces" >
   <v>      -0.00524326       0.00863069      -0.00867228 </v>
   <v>      -0.03190795       0.00932182      -0.04416463 </v>
   <v>      -0.07642955      -0.01696022      -0.04455021 </v>
   <v>      -0.07650490       0.03440431      -0.04370685 </v>
   <v>      -0.01797272       0.00825646       0.00371209 </v>
   <v>      -0.01797137       0.00825673       0.00370161 </v>
   <v>      -0.01797406       0.00825346       0.00369682 </v>
   <v>      -0.01797398       0.00825776       0.00370288 </v>
   <v>       0.01573265      -0.01093588      -0.00399950 </v>
   <v>       0.01563819      -0.01097153      -0.00411969 </v>
   <v>       0.01571274      -0.01091346      -0.00404960 </v>
   <v>       0.01561441      -0.01094590      -0.00350513 </v>
   <v>       0.01378200      -0.00565024      -0.00412926 </v>
   <v>       0.01387103      -0.00580062      -0.00400640 </v>
   <v>       0.01395195      -0.00575063      -0.00406542 </v>
   <v>       0.01377465      -0.00572760      -0.00350334 </v>
   <v>       0.21176649      -0.00837970       0.13538231 </v>
   <v>      -0.03353762      -0.00747015       0.00702981 </v>
   <v>       0.00165577       0.01288290       0.00696072 </v>
   <v>       0.00175945      -0.02793204       0.00719800 </v>
   <v>       0.01632364      -0.00734743      -0.00059735 </v>
   <v>       0.01632182      -0.00734649      -0.00045151 </v>
   <v>       0.01632106      -0.00734762      -0.00045153 </v>
   <v>       0.01632227      -0.00734631      -0.00045258 </v>
   <v>      -0.01420125       0.00991820       0.00033845 </v>
   <v>      -0.01450224       0.00992976       0.00029382 </v>
   <v>      -0.01436462       0.01018356       0.00033949 </v>
   <v>      -0.01437430       0.01002360       0.00053145 </v>
   <v>      -0.01156946       0.00472957       0.00022357 </v>
   <v>      -0.01125370       0.00470366       0.00040581 </v>
   <v>      -0.01139289       0.00445766       0.00034950 </v>
   <v>      -0.01137429       0.00461569       0.00055892 </v>
  </varray>
  <varray name="stress" >
   <v>      -2.32521057       2.53899152      -0.05753920 </v>
   <v>       2.53899158       0.65180310       0.04670141 </v>
   <v>      -0.05753920       0.04670145      -9.40854147 </v>
  </varray>
  <energy>
   <i name="e_fr_energy">   -299.82303983 </i>
   <i name="e_wo_entrp">   -299.82303983 </i>
   <i name="e_0_energy">      0.00000000 </i>
  </energy>
  <time name="totalsc">18564.2421277.09</time>
  <eigenvalues>
   <array>
    <dimension dim="1">band</dimension>
    <dimension dim="2">kpoint</dimension>
    <dimension dim="3">spin</dimension>
    <field>eigene</field>
    <field>occ</field>
    <set>
     <set comment="spin 1">
      <set comment="kpoint 1">
       <r>  -15.1683    1.0000 </r>
       <r>  -15.0513    1.0000 </r>
       <r>  -15.0503    1.0000 </r>
       <r>  -14.9266    1.0000 </r>
       <r>   -9.8614    1.0000 </r>
       <r>   -9.8531    1.0000 </r>
       <r>   -9.8500    1.0000 </r>
       <r>   -9.8144    1.0000 </r>
       <r>   -9.8140    1.0000 </r>
       <r>   -9.8065    1.0000 </r>
       <r>   -9.8024    1.0000 </r>
       <r>   -9.8024    1.0000 </r>
       <r>   -9.8010    1.0000 </r>
       <r>   -9.7733    1.0000 </r>
       <r>   -9.7626    1.0000 </r>
       <r>   -9.7602    1.0000 </r>
       <r>   -8.7947    1.0000 </r>
       <r>   -8.7910    1.0000 </r>
       <r>   -8.7894    1.0000 </r>
       <r>   -8.7694    1.0000 </r>
       <r>   -8.7652    1.0000 </r>
       <r>   -8.7637    1.0000 </r>
       <r>   -8.7624    1.0000 </r>
       <r>   -8.7624    1.0000 </r>
       <r>   -8.7597    1.0000 </r>
       <r>   -8.7275    1.0000 </r>
       <r>   -8.7229    1.0000 </r>
       <r>   -8.7204    1.0000 </r>
       <r>   -3.9527    1.0000 </r>
       <r>   -3.1794    1.0000 </r>
       <r>   -3.1777    1.0000 </r>
       <r>   -2.2479    1.0000 </r>
       <r>   -1.9688    1.0000 </r>
       <r>   -1.9660    1.0000 </r>
       <r>   -1.9497    1.0000 </r>
       <r>   -1.9471    1.0000 </r>
       <r>   -1.9450    1.0000 </r>
       <r>   -1.9450    1.0000 </r>
       <r>   -1.9444    1.0000 </r>
       <r>   -1.9262    1.0000 </r>
       <r>   -1.9262    1.0000 </r>
       <r>   -1.9252    1.0000 </r>
       <r>   -1.9227    1.0000 </r>
       <r>   -1.9041    1.0000 </r>
       <r>    1.4166    1.0000 </r>
       <r>    1.4270    1.0000 </r>
       <r>    1.4315    1.0000 </r>
       <r>    1.4366    1.0000 </r>
       <r>    1.4417    1.0000 </r>
       <r>    1.4478    1.0000 </r>
       <r>    1.4506    1.0000 </r>
       <r>    1.4601    1.0000 </r>
       <r>    1.7418    1.0000 </r>
       <r>    1.7429    1.0000 </r>
       <r>    1.7449    1.0000 </r>
       <r>    2.0792    1.0000 </r>
       <r>    2.0803    1.0000 </r>
       <r>    2.0827    1.0000 </r>
       <r>    2.0868    1.0000 </r>
       <r>    2.0868    1.0000 </r>
       <r>    2.0875    1.0000 </r>
       <r>    2.3243    1.0000 </r>
       <r>    2.3374    1.0000 </r>
       <r>    2.3393    1.0000 </r>
       <r>    5.9449    0.0000 </r>
       <r>    5.9467    0.0000 </r>
       <r>    5.9472    0.0000 </r>
       <r>    6.0893    0.0000 </r>
       <r>    6.0955    0.0000 </r>
       <r>    6.0996    0.0000 </r>
       <r>    6.1009    0.0000 </r>
       <r>    6.1013    0.0000 </r>
       <r>    6.1063    0.0000 </r>
       <r>    6.5424    0.0000 </r>
       <r>    6.5555    0.0000 </r>
       <r>    6.5585    0.0000 </r>
       <r>    8.5256    0.0000 </r>
       <r>   10.9516    0.0000 </r>
       <r>   10.9543    0.0000 </r>
       <r>   11.6669    0.0000 </r>
       <r>   11.6707    0.0000 </r>
       <r>   11.7041    0.0000 </r>
       <r>   11.8233    0.0000 </r>
       <r>   11.8303    0.0000 </r>
      </set>
      <set comment="kpoint 2">
       <r>  -15.0030    1.0000 </r>
       <r>  -14.8871    1.0000 </r>
       <r>  -14.8860    1.0000 </r>
       <r>  -14.7637    1.0000 </r>
       <r>  -11.1546    1.0000 </r>
       <r>  -11.0668    1.0000 </r>
       <r>  -11.0658    1.0000 </r>
       <r>  -10.9745    1.0000 </r>
       <r>  -10.2847    1.0000 </r>
       <r>  -10.2778    1.0000 </r>
       <r>  -10.2079    1.0000 </r>
       <r>  -10.2067    1.0000 </r>
       <r>  -10.2001    1.0000 </r>
       <r>  -10.1996    1.0000 </r>
       <r>  -10.1277    1.0000 </r>
       <r>  -10.1202    1.0000 </r>
       <r>   -8.1674    1.0000 </r>
       <r>   -8.1593    1.0000 </r>
       <r>   -8.1071    1.0000 </r>
       <r>   -8.1039    1.0000 </r>
       <r>   -8.0976    1.0000 </r>
       <r>   -8.0967    1.0000 </r>
       <r>   -8.0400    1.0000 </r>
       <r>   -8.0317    1.0000 </r>
       <r>   -7.3192    1.0000 </r>
       <r>   -7.2562    1.0000 </r>
       <r>   -7.2555    1.0000 </r>
       <r>   -7.1904    1.0000 </r>
       <r>   -3.7521    1.0000 </r>
       <r>   -2.9837    1.0000 </r>
       <r>   -2.9819    1.0000 </r>
       <r>   -2.4572    1.0000 </r>
       <r>   -2.4384    1.0000 </r>
       <r>   -2.4313    1.0000 </r>
       <r>   -2.4304    1.0000 </r>
       <r>   -2.4124    1.0000 </r>
       <r>   -2.4111    1.0000 </r>
       <r>   -2.4040    1.0000 </r>
       <r>   -2.3850    1.0000 </r>
       <r>   -2.0591    1.0000 </r>
       <r>   -1.8054    1.0000 </r>
       <r>   -1.7861    1.0000 </r>
       <r>   -1.7827    1.0000 </r>
       <r>   -1.7634    1.0000 </r>
       <r>    0.6751    1.0000 </r>
       <r>    0.7803    1.0000 </r>
       <r>    0.7919    1.0000 </r>
       <r>    0.7952    1.0000 </r>
       <r>    0.8077    1.0000 </r>
       <r>    1.0814    1.0000 </r>
       <r>    1.0919    1.0000 </r>
       <r>    1.0969    1.0000 </r>
       <r>    1.1055    1.0000 </r>
       <r>    1.2373    1.0000 </r>
       <r>    1.2397    1.0000 </r>
       <r>    1.5266    1.0000 </r>
       <r>    1.5297    1.0000 </r>
       <r>    1.8475    1.0000 </r>
       <r>    1.9718    1.0000 </r>
       <r>    1.9725    1.0000 </r>
       <r>    1.9778    1.0000 </r>
       <r>    1.9785    1.0000 </r>
       <r>    2.3864    1.0000 </r>
       <r>    2.3965    1.0000 </r>
       <r>    6.1429    0.0000 </r>
       <r>    6.1458    0.0000 </r>
       <r>    6.3701    0.0000 </r>
       <r>    6.3760    0.0000 </r>
       <r>    6.3803    0.0000 </r>
       <r>    6.3825    0.0000 </r>
       <r>    6.8216    0.0000 </r>
       <r>    6.8317    0.0000 </r>
       <r>    6.8554    0.0000 </r>
       <r>    7.2019    0.0000 </r>
       <r>    7.2050    0.0000 </r>
       <r>    7.7128    0.0000 </r>
       <r>    8.7279    0.0000 </r>
       <r>   11.1324    0.0000 </r>
       <r>   11.1351    0.0000 </r>
       <r>   11.7578    0.0000 </r>
       <r>   11.9088    0.0000 </r>
       <r>   11.9111    0.0000 </r>
       <r>   12.0603    0.0000 </r>
       <r>   12.4062    0.0000 </r>
      </set>
      <set comment="kpoint 3">
       <r>  -14.5086    1.0000 </r>
       <r>  -14.3962    1.0000 </r>
       <r>  -14.3952    1.0000 </r>
       <r>  -14.2768    1.0000 </r>
       <r>  -12.5628    1.0000 </r>
       <r>  -12.4642    1.0000 </r>
       <r>  -12.4632    1.0000 </r>
       <r>  -12.3600    1.0000 </r>
       <r>  -10.7063    1.0000 </r>
       <r>  -10.7027    1.0000 </r>
       <r>  -10.6225    1.0000 </r>
       <r>  -10.6207    1.0000 </r>
       <r>  -10.6178    1.0000 </r>
       <r>  -10.6174    1.0000 </r>
       <r>  -10.5334    1.0000 </r>
       <r>  -10.5297    1.0000 </r>
       <r>   -6.9946    1.0000 </r>
       <r>   -6.9838    1.0000 </r>
       <r>   -6.9388    1.0000 </r>
       <r>   -6.9356    1.0000 </r>
       <r>   -6.9271    1.0000 </r>
       <r>   -6.9259    1.0000 </r>
       <r>   -6.8780    1.0000 </r>
       <r>   -6.8675    1.0000 </r>
       <r>   -5.2056    1.0000 </r>
       <r>   -5.1540    1.0000 </r>
       <r>   -5.1531    1.0000 </r>
       <r>   -5.1003    1.0000 </r>
       <r>   -3.6120    1.0000 </r>
       <r>   -3.5960    1.0000 </r>
       <r>   -3.5774    1.0000 </r>
       <r>   -3.5768    1.0000 </r>
       <r>   -3.5617    1.0000 </r>
       <r>   -3.5602    1.0000 </r>
       <r>   -3.5410    1.0000 </r>
       <r>   -3.5248    1.0000 </r>
       <r>   -3.1547    1.0000 </r>
       <r>   -2.4018    1.0000 </r>
       <r>   -2.4000    1.0000 </r>
       <r>   -1.4988    1.0000 </r>
       <r>   -1.3319    1.0000 </r>
       <r>   -1.3135    1.0000 </r>
       <r>   -1.3098    1.0000 </r>
       <r>   -1.2915    1.0000 </r>
       <r>   -0.8720    1.0000 </r>
       <r>   -0.8590    1.0000 </r>
       <r>   -0.8476    1.0000 </r>
       <r>   -0.8439    1.0000 </r>
       <r>   -0.8208    1.0000 </r>
       <r>   -0.1853    1.0000 </r>
       <r>   -0.1834    1.0000 </r>
       <r>    0.2850    1.0000 </r>
       <r>    0.2990    1.0000 </r>
       <r>    0.3036    1.0000 </r>
       <r>    0.3171    1.0000 </r>
       <r>    0.6005    1.0000 </r>
       <r>    1.2320    1.0000 </r>
       <r>    1.2347    1.0000 </r>
       <r>    1.7828    1.0000 </r>
       <r>    1.7834    1.0000 </r>
       <r>    1.7865    1.0000 </r>
       <r>    1.7880    1.0000 </r>
       <r>    2.3823    1.0000 </r>
       <r>    2.3874    1.0000 </r>
       <r>    6.6651    0.0000 </r>
       <r>    6.6705    0.0000 </r>
       <r>    6.9462    0.0000 </r>
       <r>    6.9514    0.0000 </r>
       <r>    6.9544    0.0000 </r>
       <r>    6.9562    0.0000 </r>
       <r>    7.3075    0.0000 </r>
       <r>    7.3123    0.0000 </r>
[...]
       <r>   -4.4670    1.0000 </r>
       <r>   -4.4648    1.0000 </r>
       <r>   -4.4638    1.0000 </r>
       <r>   -4.4638    1.0000 </r>
       <r>   -2.9951    1.0000 </r>
       <r>   -2.9891    1.0000 </r>
       <r>   -2.9891    1.0000 </r>
       <r>   -2.9886    1.0000 </r>
       <r>   -2.9389    1.0000 </r>
       <r>   -2.9341    1.0000 </r>
       <r>   -2.9341    1.0000 </r>
       <r>   -2.9336    1.0000 </r>
       <r>   -1.9786    1.0000 </r>
       <r>   -1.9765    1.0000 </r>
       <r>   -1.9764    1.0000 </r>
       <r>   -1.9737    1.0000 </r>
       <r>   -0.8662    1.0000 </r>
       <r>   -0.8640    1.0000 </r>
       <r>   -0.8639    1.0000 </r>
       <r>   -0.8609    1.0000 </r>
       <r>   -0.5751    1.0000 </r>
       <r>   -0.5735    1.0000 </r>
       <r>   -0.5734    1.0000 </r>
       <r>   -0.5674    1.0000 </r>
       <r>   -0.5490    1.0000 </r>
       <r>   -0.5476    1.0000 </r>
       <r>   -0.5476    1.0000 </r>
       <r>   -0.5376    1.0000 </r>
       <r>    1.2831    1.0000 </r>
       <r>    1.2861    1.0000 </r>
       <r>    1.2862    1.0000 </r>
       <r>    1.2874    1.0000 </r>
       <r>    2.1572    1.0000 </r>
       <r>    2.1606    1.0000 </r>
       <r>    2.1608    1.0000 </r>
       <r>    2.1620    1.0000 </r>
       <r>    7.0787    0.0000 </r>
       <r>    7.0790    0.0000 </r>
       <r>    7.0790    0.0000 </r>
       <r>    7.0836    0.0000 </r>
       <r>    7.4315    0.0000 </r>
       <r>    7.4321    0.0000 </r>
       <r>    7.4322    0.0000 </r>
       <r>    7.4366    0.0000 </r>
       <r>   10.9124    0.0000 </r>
       <r>   10.9194    0.0000 </r>
       <r>   10.9195    0.0000 </r>
       <r>   10.9251    0.0000 </r>
       <r>   11.5327    0.0000 </r>
       <r>   11.5385    0.0000 </r>
       <r>   11.5401    0.0000 </r>
       <r>   11.5448    0.0000 </r>
       <r>   11.8485    0.0000 </r>
       <r>   11.8539    0.0000 </r>
       <r>   11.8545    0.0000 </r>
       <r>   11.8565    0.0000 </r>
      </set>
     </set>
    </set>
   </array>
  </eigenvalues>
  <separator name="orbital magnetization" >
   <v name="MAGDIPOLOUT">      0.00000000      0.00000000      0.00000000</v>
  </separator>
  <dos>
   <i name="efermi">      4.43523133 </i>
   <total>
    <array>
     <dimension dim="1">gridpoints</dimension>
     <dimension dim="2">spin</dimension>
     <field>energy</field>
     <field>total</field>
     <field>integrated</field>
     <set>
      <set comment="spin 1">
       <r>   -17.1683     0.0000     0.0000 </r>
       <r>   -17.0608     0.0000     0.0000 </r>
       <r>   -16.9533     0.0000     0.0000 </r>
       <r>   -16.8458     0.0000     0.0000 </r>
       <r>   -16.7383     0.0000     0.0000 </r>
       <r>   -16.6308     0.0000     0.0000 </r>
       <r>   -16.5233     0.0000     0.0000 </r>
       <r>   -16.4158     0.0000     0.0000 </r>
       <r>   -16.3083     0.0000     0.0000 </r>
       <r>   -16.2008     0.0000     0.0000 </r>
       <r>   -16.0933     0.0000     0.0000 </r>
       <r>   -15.9858     0.0000     0.0000 </r>
       <r>   -15.8783     0.0000     0.0000 </r>
       <r>   -15.7708     0.0000     0.0000 </r>
       <r>   -15.6633     0.0000     0.0000 </r>
       <r>   -15.5558     0.0000     0.0000 </r>
       <r>   -15.4483     0.0000     0.0000 </r>
       <r>   -15.3408     0.0000     0.0000 </r>
       <r>   -15.2332     0.0000     0.0000 </r>
       <r>   -15.1257     0.3703     0.0061 </r>
       <r>   -15.0182     2.6865     0.1560 </r>
       <r>   -14.9107     3.9154     0.5006 </r>
       <r>   -14.8032     5.1703     1.0047 </r>
       <r>   -14.6957     4.8583     1.5245 </r>
       <r>   -14.5882     5.0991     2.0640 </r>
       <r>   -14.4807     5.0116     2.6091 </r>
       <r>   -14.3732     4.8245     3.1381 </r>
       <r>   -14.2657     4.8460     3.6545 </r>
       <r>   -14.1582     5.0790     4.1880 </r>
       <r>   -14.0507     5.3122     4.7465 </r>
       <r>   -13.9432     7.2322     5.4177 </r>
       <r>   -13.8357     7.8210     6.2313 </r>
       <r>   -13.7282     6.0790     7.0679 </r>
       <r>   -13.6207     2.4489     7.4931 </r>
       <r>   -13.5132     1.8702     7.7141 </r>
       <r>   -13.4057     2.1300     7.9249 </r>
       <r>   -13.2982     2.5022     8.1738 </r>
       <r>   -13.1907     2.9000     8.4630 </r>
       <r>   -13.0831     8.6531     8.9610 </r>
       <r>   -12.9756     9.0586    10.0465 </r>
       <r>   -12.8681     7.0138    10.9554 </r>
       <r>   -12.7606     4.0069    11.4438 </r>
       <r>   -12.6531     4.1092    11.8800 </r>
       <r>   -12.5456     4.2137    12.3273 </r>
       <r>   -12.4381     4.3499    12.7875 </r>
       <r>   -12.3306     4.4856    13.2627 </r>
       <r>   -12.2231     4.6115    13.7516 </r>
       <r>   -12.1156     4.7374    14.2542 </r>
       <r>   -12.0081     5.4748    14.8020 </r>
       <r>   -11.9006     6.3480    15.4259 </r>
       <r>   -11.7931     6.1025    16.1108 </r>
       <r>   -11.6856     5.6315    16.7399 </r>
       <r>   -11.5781     5.4303    17.3300 </r>
       <r>   -11.4706     5.5936    17.9225 </r>
       <r>   -11.3631     5.7571    18.5327 </r>
       <r>   -11.2556     5.9206    19.1604 </r>
       <r>   -11.1481     5.9283    19.8049 </r>
       <r>   -11.0406     5.5863    20.4204 </r>
       <r>   -10.9330     5.3685    21.0056 </r>
       <r>   -10.8255     5.3043    21.5844 </r>
       <r>   -10.7180     4.1384    22.0947 </r>
       <r>   -10.6105     4.4523    22.5376 </r>
       <r>   -10.5030     4.9948    23.0536 </r>
       <r>   -10.3955     5.1748    23.6002 </r>
       <r>   -10.2880     5.3549    24.1662 </r>
       <r>   -10.1805     8.2021    24.8935 </r>
       <r>   -10.0730    10.9597    26.0157 </r>
       <r>    -9.9655     8.6670    27.0707 </r>
       <r>    -9.8580     6.3734    27.8791 </r>
       <r>    -9.7505     4.7554    28.4595 </r>
       <r>    -9.6430     4.2959    28.9461 </r>
       <r>    -9.5355     3.8365    29.3832 </r>
       <r>    -9.4280     4.4059    29.7742 </r>
       <r>    -9.3205     6.6121    30.5395 </r>
       <r>    -9.2130     1.9985    30.9357 </r>
       <r>    -9.1055     1.7966    31.1397 </r>
       <r>    -8.9980     1.5948    31.3220 </r>
       <r>    -8.8905     1.3929    31.4826 </r>
       <r>    -8.7829     1.2077    31.6215 </r>
       <r>    -8.6754     1.6162    31.7701 </r>
       <r>    -8.5679     2.1138    31.9706 </r>
       <r>    -8.4604     2.6114    32.2246 </r>
       <r>    -8.3529     3.6830    32.5405 </r>
       <r>    -8.2454     8.2202    33.1700 </r>
       <r>    -8.1379     8.1345    34.2302 </r>
       <r>    -8.0304     4.6746    34.8193 </r>
       <r>    -7.9229     5.8161    35.3832 </r>
       <r>    -7.8154     6.9576    36.0699 </r>
       <r>    -7.7079     8.0991    36.8792 </r>
       <r>    -7.6004     9.2407    37.8113 </r>
       <r>    -7.4929     8.2558    38.8213 </r>
       <r>    -7.3854     5.5924    39.5312 </r>
       <r>    -7.2779     5.5783    40.1297 </r>
       <r>    -7.1704     5.6258    40.7322 </r>
       <r>    -7.0629     5.4751    41.3289 </r>
       <r>    -6.9554     5.3181    41.9093 </r>
       <r>    -6.8479     5.1534    42.4713 </r>
       <r>    -6.7404     5.0350    43.0189 </r>
       <r>    -6.6328     4.9165    43.5538 </r>
       <r>    -6.5253     4.7981    44.0760 </r>
       <r>    -6.4178     4.6797    44.5855 </r>
       <r>    -6.3103     4.5613    45.0822 </r>
       <r>    -6.2028     4.4427    45.5662 </r>
       <r>    -6.0953     4.3793    46.0384 </r>
       <r>    -5.9878     4.9593    46.5382 </r>
       <r>    -5.8803     5.5414    47.1027 </r>
       <r>    -5.7728     6.1236    47.7297 </r>
       <r>    -5.6653     6.7057    48.4193 </r>
       <r>    -5.5578     7.2879    49.1715 </r>
       <r>    -5.4503     7.8700    49.9863 </r>
       <r>    -5.3428     8.4522    50.8636 </r>
       <r>    -5.2353     9.0344    51.8036 </r>
       <r>    -5.1278     3.8416    52.4604 </r>
       <r>    -5.0203     6.2405    52.9714 </r>
       <r>    -4.9128     6.7073    53.7233 </r>
       <r>    -4.8053     5.2700    54.3671 </r>
       <r>    -4.6978     3.8327    54.8564 </r>
       <r>    -4.5903     2.3952    55.1911 </r>
       <r>    -4.4827     1.0731    55.3721 </r>
       <r>    -4.3752     2.2602    55.5396 </r>
       <r>    -4.2677     3.7180    55.8610 </r>
       <r>    -4.1602     5.1756    56.3390 </r>
       <r>    -4.0527     8.2326    56.9999 </r>
       <r>    -3.9452    11.3856    58.1233 </r>
       <r>    -3.8377    10.9194    59.3174 </r>
       <r>    -3.7302    13.7088    60.6186 </r>
       <r>    -3.6227     7.7741    61.7827 </r>
       <r>    -3.5152     4.7988    62.3721 </r>
       <r>    -3.4077     5.8201    62.9419 </r>
       <r>    -3.3002     6.8449    63.6252 </r>
       <r>    -3.1927    11.0543    64.5498 </r>
       <r>    -3.0852    16.4372    66.0169 </r>
       <r>    -2.9777    21.7833    68.2622 </r>
       <r>    -2.8702     6.6807    69.2405 </r>
       <r>    -2.7627     6.9085    69.9703 </r>
       <r>    -2.6552     7.2343    70.7289 </r>
       <r>    -2.5477     7.9819    71.5347 </r>
       <r>    -2.4402    11.1257    72.5412 </r>
       <r>    -2.3326    16.1176    74.2054 </r>
       <r>    -2.2251    12.6820    75.7470 </r>
       <r>    -2.1176    12.2902    76.9521 </r>
       <r>    -2.0101    19.5868    78.5465 </r>
       <r>    -1.9026    14.7111    81.6027 </r>
       <r>    -1.7951    20.7196    83.5978 </r>
       <r>    -1.6876    13.2264    85.2439 </r>
       <r>    -1.5801    14.9782    86.7543 </r>
       <r>    -1.4726    14.6758    88.4386 </r>
       <r>    -1.3651     8.3865    89.6055 </r>
       <r>    -1.2576     6.7652    90.3672 </r>
       <r>    -1.1501     7.7499    91.1553 </r>
       <r>    -1.0426     8.5243    92.0308 </r>
       <r>    -0.9351     9.7333    93.0024 </r>
       <r>    -0.8276    10.6542    94.1184 </r>
       <r>    -0.7201    10.2968    95.2445 </r>
       <r>    -0.6126    11.0209    96.3928 </r>
       <r>    -0.5051    11.4708    98.1732 </r>
       <r>    -0.3976    11.3544    99.3989 </r>
       <r>    -0.2901    12.0653   100.6599 </r>
       <r>    -0.1825    10.7041   101.8837 </r>
       <r>    -0.0750    10.2272   102.9899 </r>
       <r>     0.0325     9.9577   104.0788 </r>
       <r>     0.1400     9.6737   105.1294 </r>
       <r>     0.2475     9.5797   106.1646 </r>
       <r>     0.3550     9.6197   107.1937 </r>
       <r>     0.4625     9.3510   108.2174 </r>
       <r>     0.5700     9.1146   109.2087 </r>
       <r>     0.6775     9.0153   110.1807 </r>
       <r>     0.7850     9.4349   111.1603 </r>
       <r>     0.8925     9.5733   112.1961 </r>
       <r>     1.0000     9.7011   113.2309 </r>
       <r>     1.1075    11.3188   114.3171 </r>
       <r>     1.2150    10.3305   115.4954 </r>
       <r>     1.3225     8.9492   116.5321 </r>
       <r>     1.4300     7.2075   117.4041 </r>
       <r>     1.5375     6.1655   118.1133 </r>
       <r>     1.6450     5.6490   118.7557 </r>
       <r>     1.7525     3.9552   119.2770 </r>
       <r>     1.8600     3.2311   119.6522 </r>
       <r>     1.9676     2.8028   119.9606 </r>
       <r>     2.0751     4.3492   120.3407 </r>
       <r>     2.1826     6.4636   120.9033 </r>
       <r>     2.2901     9.4644   121.7266 </r>
       <r>     2.3976     8.8729   122.8226 </r>
       <r>     2.5051     7.4478   123.6925 </r>
       <r>     2.6126     6.4882   124.4392 </r>
       <r>     2.7201     4.9764   125.0582 </r>
       <r>     2.8276     3.9819   125.5342 </r>
       <r>     2.9351     3.3794   125.9260 </r>
       <r>     3.0426     3.0363   126.2710 </r>
       <r>     3.1501     2.6778   126.5783 </r>
       <r>     3.2576     2.3309   126.8473 </r>
       <r>     3.3651     2.0273   127.0815 </r>
       <r>     3.4726     1.7244   127.2833 </r>
       <r>     3.5801     1.4308   127.4504 </r>
       <r>     3.6876     1.2156   127.5926 </r>
       <r>     3.7951     1.0002   127.7117 </r>
       <r>     3.9026     0.7848   127.8077 </r>
       <r>     4.0101     0.5932   127.8815 </r>
       <r>     4.1177     0.4235   127.9360 </r>
       <r>     4.2252     0.2675   127.9730 </r>
       <r>     4.3327     0.1235   127.9939 </r>
       <r>     4.4402     0.0003   128.0000 </r>
       <r>     4.5477     0.1074   128.0055 </r>
       <r>     4.6552     0.2306   128.0235 </r>
       <r>     4.7627     0.3674   128.0555 </r>
       <r>     4.8702     0.5198   128.1031 </r>
       <r>     4.9777     0.6946   128.1681 </r>
       <r>     5.0852     0.9098   128.2539 </r>
       <r>     5.1927     1.1397   128.3641 </r>
       <r>     5.3002     1.3699   128.4990 </r>
       <r>     5.4077     1.6004   128.6587 </r>
       <r>     5.5152     1.8312   128.8431 </r>
       <r>     5.6227     3.0277   129.1022 </r>
       <r>     5.7302     3.7317   129.4695 </r>
       <r>     5.8377     3.9017   129.8841 </r>
       <r>     5.9452     5.4148   130.3750 </r>
       <r>     6.0527     9.5825   131.1999 </r>
       <r>     6.1602    11.2350   132.4392 </r>
       <r>     6.2678     8.5056   133.4920 </r>
       <r>     6.3753     6.7522   134.3190 </r>
       <r>     6.4828     6.1195   135.0103 </r>
       <r>     6.5903     5.6929   135.6418 </r>
       <r>     6.6978     5.3620   136.2380 </r>
       <r>     6.8053     4.6953   136.7798 </r>
       <r>     6.9128     4.1709   137.2552 </r>
       <r>     7.0203     3.7678   137.6807 </r>
       <r>     7.1278     3.7454   138.0810 </r>
       <r>     7.2353     4.0450   138.4972 </r>
       <r>     7.3428     4.5065   138.9571 </r>
       <r>     7.4503     4.8236   139.4606 </r>
       <r>     7.5578     4.7889   139.9811 </r>
       <r>     7.6653     4.6439   140.4881 </r>
       <r>     7.7728     4.4867   140.9804 </r>
       <r>     7.8803     4.3094   141.4525 </r>
       <r>     7.9878     4.1873   141.9089 </r>
       <r>     8.0953     4.1042   142.3543 </r>
       <r>     8.2028     4.0469   142.7923 </r>
       <r>     8.3103     4.0012   143.2248 </r>
       <r>     8.4179     3.9668   143.6530 </r>
       <r>     8.5254     3.9448   144.0781 </r>
       <r>     8.6329     3.8910   144.5042 </r>
       <r>     8.7404     3.9884   144.9252 </r>
       <r>     8.8479     3.9570   145.3531 </r>
       <r>     8.9554     3.8404   145.7711 </r>
       <r>     9.0629     3.8243   146.1827 </r>
       <r>     9.1704     3.7786   146.5912 </r>
       <r>     9.2779     3.8187   146.9998 </r>
       <r>     9.3854     3.8347   147.4114 </r>
       <r>     9.4929     3.8574   147.8248 </r>
       <r>     9.6004     3.8791   148.2407 </r>
       <r>     9.7079     3.9018   148.6589 </r>
       <r>     9.8154     3.9218   149.0795 </r>
       <r>     9.9229     3.9515   149.5025 </r>
       <r>    10.0304     4.3521   149.9453 </r>
       <r>    10.1379     6.2605   150.4717 </r>
       <r>    10.2454     5.8981   151.1567 </r>
       <r>    10.3529     5.5995   151.7739 </r>
       <r>    10.4604     5.4404   152.3650 </r>
       <r>    10.5679     5.5639   152.9557 </r>
       <r>    10.6755     6.6269   153.5663 </r>
       <r>    10.7830     4.6908   154.2074 </r>
       <r>    10.8905     2.8245   154.5973 </r>
       <r>    10.9980     2.6274   154.8737 </r>
       <r>    11.1055     3.4281   155.2013 </r>
       <r>    11.2130     3.6563   155.5928 </r>
       <r>    11.3205     3.1351   155.9597 </r>
       <r>    11.4280     3.0244   156.2903 </r>
       <r>    11.5355     3.1273   156.6168 </r>
       <r>    11.6430     3.6623   156.9770 </r>
       <r>    11.7505     6.9406   157.5021 </r>
       <r>    11.8580     6.9716   158.2822 </r>
       <r>    11.9655     8.9846   159.1364 </r>
       <r>    12.0730    11.2673   160.2198 </r>
       <r>    12.1805    13.0493   161.5462 </r>
       <r>    12.2880    13.3408   162.9650 </r>
       <r>    12.3955    13.8334   164.4221 </r>
       <r>    12.5030    13.3867   165.9336 </r>
       <r>    12.6105    10.0733   167.2236 </r>
       <r>    12.7180     2.5737   167.9108 </r>
       <r>    12.8256     0.1269   167.9891 </r>
       <r>    12.9331     0.0431   167.9978 </r>
       <r>    13.0406     0.0035   168.0000 </r>
       <r>    13.1481     0.0000   168.0000 </r>
       <r>    13.2556     0.0000   168.0000 </r>
       <r>    13.3631     0.0000   168.0000 </r>
       <r>    13.4706     0.0000   168.0000 </r>
       <r>    13.5781     0.0000   168.0000 </r>
       <r>    13.6856     0.0000   168.0000 </r>
       <r>    13.7931     0.0000   168.0000 </r>
       <r>    13.9006     0.0000   168.0000 </r>
       <r>    14.0081     0.0000   168.0000 </r>
       <r>    14.1156     0.0000   168.0000 </r>
       <r>    14.2231     0.0000   168.0000 </r>
       <r>    14.3306     0.0000   168.0000 </r>
       <r>    14.4381     0.0000   168.0000 </r>
       <r>    14.5456     0.0000   168.0000 </r>
       <r>    14.6531     0.0000   168.0000 </r>
       <r>    14.7606     0.0000   168.0000 </r>
       <r>    14.8681     0.0000   168.0000 </r>
       <r>    14.9757     0.0000   168.0000 </r>
       <r>    15.0832     0.0000   168.0000 </r>
      </set>
     </set>
    </array>
   </total>
  </dos>
 </calculation>
 <structure name="finalpos" >
  <crystal>
   <varray name="basis" >
    <v>       4.93287450      -0.00191929       0.00000000 </v>
    <v>      -2.46809940       4.27103499       0.00000000 </v>
    <v>       0.00000000       0.00000000      13.79404151 </v>
   </varray>
   <i name="volume">    290.55413951 </i>
   <varray name="rec_basis" >
    <v>       0.20276715       0.11717288       0.00000000 </v>
    <v>       0.00009112       0.23418794       0.00000000 </v>
    <v>       0.00000000       0.00000000       0.07249507 </v>
   </varray>
  </crystal>
  <varray name="positions" >
   <v>       0.49967330       0.00032672       0.12500000 </v>
   <v>       0.99967330       0.00032672       0.12500000 </v>
   <v>       0.49967330       0.50032672       0.12500000 </v>
   <v>       0.99967330       0.50032672       0.12500000 </v>
   <v>       0.49967330       0.00032672       0.62500000 </v>
   <v>       0.99967330       0.00032672       0.62500000 </v>
   <v>       0.49967330       0.50032672       0.62500000 </v>
   <v>       0.99967330       0.50032672       0.62500000 </v>
   <v>       0.00032672       0.49967330       0.37500000 </v>
   <v>       0.50032672       0.49967330       0.37500000 </v>
   <v>       0.00032672       0.99967330       0.37500000 </v>
   <v>       0.50032672       0.99967330       0.37500000 </v>
   <v>       0.00032672       0.49967330       0.87500000 </v>
   <v>       0.50032672       0.49967330       0.87500000 </v>
   <v>       0.00032672       0.99967330       0.87500000 </v>
   <v>       0.50032672       0.99967330       0.87500000 </v>
   <v>       0.16560985       0.33370753       0.12431738 </v>
   <v>       0.66629246       0.33370753       0.12500000 </v>
   <v>       0.16629246       0.83370753       0.12500000 </v>
   <v>       0.66629246       0.83370753       0.12500000 </v>
   <v>       0.16629246       0.33370753       0.62500000 </v>
   <v>       0.66629246       0.33370753       0.62500000 </v>
   <v>       0.16629246       0.83370753       0.62500000 </v>
   <v>       0.66629246       0.83370753       0.62500000 </v>
   <v>       0.33370753       0.16629246       0.37500000 </v>
   <v>       0.83370753       0.16629246       0.37500000 </v>
   <v>       0.33370753       0.66629246       0.37500000 </v>
   <v>       0.83370753       0.66629246       0.37500000 </v>
   <v>       0.33370753       0.16629246       0.87500000 </v>
   <v>       0.83370753       0.16629246       0.87500000 </v>
   <v>       0.33370753       0.66629246       0.87500000 </v>
   <v>       0.83370753       0.66629246       0.87500000 </v>
  </varray>
 </structure>
</modeling>
