    4    4  200    1
  0.9341735E+01  0.2466437E-09  0.2466437E-09  0.7095973E-09  0.5000000E-15
  1.000000000000000E-004
  CAR 
 graphite                                
     16    215     12
 
  0.0000000E+00  0.0000000E+00  0.0000000E+00  0.8680556E-03
    1      -15.386422
    2      -15.194350
    3       -4.085969
    4       -2.621779
    5        1.193045
    6        1.194387
    7        1.203262
    8        1.204253
    9        8.091563
   10       12.519455
   11       12.548167
   12       12.552529
 
  0.8333333E-01  0.0000000E+00  0.0000000E+00  0.3472222E-02
    1      -15.221114
    2      -15.031174
    3       -3.885896
    4       -2.431651
    5        0.538304
    6        0.557336
    7        0.851401
    8        0.867097
    9        8.296118
   10       12.588827
   11       12.644658
   12       13.221941
 
  0.1666667E+00  0.0000000E+00  0.0000000E+00  0.3472222E-02
    1      -14.727245
    2      -14.543384
    3       -3.289821
    4       -1.868300
    5       -1.110393
    6       -1.072345
    7        0.054143
    8        0.076829
    9        8.910890
   10       12.495158
   11       12.618845
   12       13.423967
 
  0.2500000E+00  0.0000000E+00  0.0000000E+00  0.3472222E-02
    1      -13.910593
    2      -13.736781
    3       -3.221190
    4       -3.161589
    5       -2.314198
    6       -0.954366
    7       -0.828752
    8       -0.801617
    9        9.930832
   10       11.233447
   11       11.674090
   12       12.175037
 
  0.3333333E+00  0.0000000E+00  0.0000000E+00  0.3472222E-02
    1      -12.783629
    2      -12.623424
    3       -5.437038
    4       -5.355631
    5       -1.563890
    6       -1.533926
    7       -1.000486
    8        0.248072
    9        8.822214
   10        9.469209
   11       11.306711
   12       11.829859
 
  0.4166667E+00 -0.2775558E-16  0.0000000E+00  0.3472222E-02
    1      -11.377297
    2      -11.235541
    3       -7.548419
    4       -7.447900
    5       -2.037591
    6       -2.006256
    7        0.521909
    8        1.523778
    9        6.661088
   10        7.396507
   11       11.548027
   12       11.789471
 
  0.5000000E+00  0.0000000E+00  0.0000000E+00  0.1736111E-02
    1      -10.080687
    2      -10.010342
    3       -9.028329
    4       -8.974714
    5       -2.200025
    6       -2.168440
    7        1.567144
    8        2.072410
    9        5.707358
   10        6.249667
   11       11.460316
   12       11.718787
 
  0.8333333E-01  0.8333333E-01  0.0000000E+00  0.1736111E-02
    1      -14.891325
    2      -14.705480
    3       -3.487440
    4       -2.054586
    5       -0.498978
    6       -0.480516
    7        0.177376
    8        0.190836
    9        8.707164
   10       12.875015
   11       12.958891
   12       13.936775
 
  0.1666667E+00  0.8333333E-01  0.0000000E+00  0.3472222E-02
    1      -14.235844
    2      -14.058081
    3       -2.700393
    4       -2.221689
    5       -2.181126
    6       -1.314079
    7       -0.827583
    8       -0.802316
    9        9.528843
   10       12.143822
   11       12.446580
   12       12.971219
 
  0.2500000E+00  0.8333333E-01  0.0000000E+00  0.3472222E-02
    1      -13.263544
    2      -13.097647
    3       -4.308525
    4       -4.242038
    5       -1.720241
    6       -1.685860
    7       -1.550535
    8       -0.246844
    9        9.906473
   10       10.395464
   11       10.749801
   12       12.687202
 
  0.3333333E+00  0.8333333E-01  0.0000000E+00  0.3472222E-02
    1      -11.993804
    2      -11.843537
    3       -6.443953
    4       -6.354869
    5       -2.358464
    6       -2.320094
    7       -0.106604
    8        1.040389
    9        7.621710
   10        8.283654
   11       12.241016
   12       12.428525
 
  0.4166667E+00  0.8333333E-01  0.0000000E+00  0.3472222E-02
    1      -10.499958
    2      -10.376650
    3       -8.391229
    4       -8.291363
    5       -2.688999
    6       -2.648845
    7        1.364887
    8        2.104540
    9        5.927167
   10        6.523831
   11       12.191069
   12       12.465591
 
  0.5000000E+00  0.8333333E-01  0.0000000E+00  0.3472222E-02
    1      -10.502271
    2      -10.378899
    3       -8.388388
    4       -8.288416
    5       -2.689998
    6       -2.649820
    7        1.363072
    8        2.103637
    9        5.927842
   10        6.526362
   11       12.191708
   12       12.466133
 
 -0.4166667E+00  0.8333333E-01  0.0000000E+00  0.3472222E-02
    1      -11.995879
    2      -11.845613
    3       -6.440062
    4       -6.350901
    5       -2.361452
    6       -2.322993
    7       -0.108924
    8        1.038240
    9        7.623578
   10        8.287325
   11       12.239112
   12       12.428755
 
 -0.3333333E+00  0.8333333E-01  0.0000000E+00  0.3472222E-02
    1      -13.265146
    2      -13.099238
    3       -4.303823
    4       -4.237307
    5       -1.725086
    6       -1.690486
    7       -1.552516
    8       -0.248832
    9        9.907594
   10       10.398998
   11       10.747297
   12       12.688985
 
 -0.2500000E+00  0.8333333E-01  0.0000000E+00  0.3472222E-02
    1      -14.236980
    2      -14.059209
    3       -2.701859
    4       -2.216944
    5       -2.176241
    6       -1.315583
    7       -0.833216
    8       -0.807790
    9        9.527053
   10       12.143084
   11       12.449418
   12       12.969833
 
 -0.1666667E+00  0.8333333E-01  0.0000000E+00  0.3472222E-02
    1      -14.892003
    2      -14.706149
    3       -3.488334
    4       -2.055511
    5       -0.497553
    6       -0.478636
    7        0.175053
    8        0.188510
    9        8.706054
   10       12.866528
   11       12.951425
   12       13.935280
 
 -0.8333333E-01  0.8333333E-01  0.0000000E+00  0.1736111E-02
    1      -15.221338
    2      -15.031397
    3       -3.886197
    4       -2.431962
    5        0.535338
    6        0.554608
    7        0.854135
    8        0.869660
    9        8.295738
   10       12.580962
   11       12.636917
   12       13.239157
 
  0.1666667E+00  0.1666667E+00  0.0000000E+00  0.1736111E-02
    1      -13.424673
    2      -13.256775
    3       -3.552188
    4       -3.520140
    5       -2.187182
    6       -2.163774
    7       -1.736099
    8       -0.415075
    9       10.416086
   10       10.555451
   11       10.744058
   12       14.146993
 
  0.2500000E+00  0.1666667E+00  0.0000000E+00  0.3472222E-02
    1      -12.308169
    2      -12.153961
    3       -5.295528
    4       -5.232772
    5       -3.255779
    6       -3.212907
    7       -0.436619
    8        0.773063
    9        8.416115
   10        8.855855
   11       11.969524
   12       14.285205
 
  0.3333333E+00  0.1666667E+00  0.0000000E+00  0.3472222E-02
    1      -10.921531
    2      -10.785744
    3       -7.220044
    4       -7.129798
    5       -3.840323
    6       -3.786279
    7        1.082704
    8        2.065962
    9        6.471923
   10        7.014036
   11       13.705000
   12       14.063846
 
  0.4166667E+00  0.1666667E+00  0.0000000E+00  0.3472222E-02
    1       -9.657171
    2       -9.589936
    3       -8.627926
    4       -8.580577
    5       -4.028777
    6       -3.971842
    7        2.166008
    8        2.661295
    9        5.595094
   10        5.862149
   11       13.942138
   12       14.332499
 
  0.5000000E+00  0.1666667E+00  0.0000000E+00  0.3472222E-02
    1      -10.926134
    2      -10.790332
    3       -7.212909
    4       -7.122454
    5       -3.843863
    6       -3.789676
    7        1.078028
    8        2.061981
    9        6.474023
   10        7.021417
   11       13.697736
   12       14.064804
 
 -0.4166667E+00  0.1666667E+00  0.0000000E+00  0.3472222E-02
    1      -12.311863
    2      -12.157643
    3       -5.287090
    4       -5.223976
    5       -3.262369
    6       -3.219223
    7       -0.441021
    8        0.768610
    9        8.417431
   10        8.863389
   11       11.964094
   12       14.286364
 
 -0.3333333E+00  0.1666667E+00  0.0000000E+00  0.3472222E-02
    1      -13.427410
    2      -13.259498
    3       -3.546847
    4       -3.514006
    5       -2.192275
    6       -2.168448
    7       -1.739586
    8       -0.418704
    9       10.414339
   10       10.551431
   11       10.749782
   12       14.150515
 
 -0.2500000E+00  0.1666667E+00  0.0000000E+00  0.3472222E-02
    1      -14.237652
    2      -14.059878
    3       -2.702778
    4       -2.223772
    5       -2.182651
    6       -1.316576
    7       -0.825597
    8       -0.800158
    9        9.526129
   10       12.140243
   11       12.447994
   12       12.985560
 
 -0.1666667E+00  0.1666667E+00  0.0000000E+00  0.1736111E-02
    1      -14.728143
    2      -14.544278
    3       -3.291028
    4       -1.869565
    5       -1.116413
    6       -1.078126
    7        0.060413
    8        0.082982
    9        8.909523
   10       12.505959
   11       12.629139
   12       13.420494
 
  0.2500000E+00  0.2500000E+00  0.0000000E+00  0.1736111E-02
    1      -11.070244
    2      -10.931660
    3       -6.327364
    4       -6.281920
    5       -4.733263
    6       -4.699271
    7        0.969664
    8        2.029056
    9        6.808127
   10        7.226436
   11       13.537144
   12       15.707384
 
  0.3333333E+00  0.2500000E+00  0.0000000E+00  0.3472222E-02
    1       -9.633359
    2       -9.521229
    3       -7.762478
    4       -7.687815
    5       -5.456423
    6       -5.398902
    7        2.480534
    8        3.221638
    9        5.333192
   10        5.714186
   11       15.316485
   12       15.488043
 
  0.4166667E+00  0.2500000E+00  0.0000000E+00  0.3472222E-02
    1       -9.640731
    2       -9.528517
    3       -7.753288
    4       -7.677894
    5       -5.458911
    6       -5.401009
    7        2.474126
    8        3.217257
    9        5.332294
   10        5.725496
   11       15.304063
   12       15.496303
 
  0.5000000E+00  0.2500000E+00  0.0000000E+00  0.3472222E-02
    1      -11.076584
    2      -10.938067
    3       -6.318626
    4       -6.272052
    5       -4.737038
    6       -4.702405
    7        0.962490
    8        2.021389
    9        6.809404
   10        7.237646
   11       13.528181
   12       15.710246
 
 -0.4166667E+00  0.2500000E+00  0.0000000E+00  0.3472222E-02
    1      -12.313037
    2      -12.158820
    3       -5.294252
    4       -5.230795
    5       -3.253470
    6       -3.210218
    7       -0.442667
    8        0.766460
    9        8.415312
   10        8.862669
   11       11.962794
   12       14.314872
 
 -0.3333333E+00  0.2500000E+00  0.0000000E+00  0.3472222E-02
    1      -13.266980
    2      -13.101052
    3       -4.312518
    4       -4.245842
    5       -1.713486
    6       -1.678979
    7       -1.555024
    8       -0.251724
    9        9.903408
   10       10.396572
   11       10.745082
   12       12.714706
 
 -0.2500000E+00  0.2500000E+00  0.0000000E+00  0.1736111E-02
    1      -13.912623
    2      -13.738800
    3       -3.228586
    4       -3.168761
    5       -2.316936
    6       -0.957333
    7       -0.819216
    8       -0.792173
    9        9.928042
   10       11.228917
   11       11.671752
   12       12.197953
 
  0.3333333E+00  0.3333333E+00  0.0000000E+00  0.1736111E-02
    1       -8.425907
    2       -8.367199
    3       -8.364396
    4       -8.307171
    5       -6.320241
    6       -6.319881
    7        3.748969
    8        4.190747
    9        4.196985
   10        4.707997
   11       15.153295
   12       15.170841
 
  0.4166667E+00  0.3333333E+00  0.0000000E+00  0.3472222E-02
    1       -9.644100
    2       -9.532360
    3       -7.755326
    4       -7.680260
    5       -5.452737
    6       -5.394649
    7        2.471085
    8        3.207762
    9        5.338407
   10        5.727731
   11       15.303275
   12       15.499235
 
  0.5000000E+00  0.3333333E+00  0.0000000E+00  0.3472222E-02
    1      -10.929432
    2      -10.793756
    3       -7.219344
    4       -7.128860
    5       -3.832722
    6       -3.778585
    7        1.073783
    8        2.054438
    9        6.475260
   10        7.021185
   11       13.697301
   12       14.097106
 
 -0.4166667E+00  0.3333333E+00  0.0000000E+00  0.3472222E-02
    1      -11.999462
    2      -11.849228
    3       -6.447601
    4       -6.358331
    5       -2.348340
    6       -2.309986
    7       -0.113785
    8        1.031686
    9        7.621636
   10        8.284886
   11       12.247002
   12       12.454532
 
 -0.3333333E+00  0.3333333E+00  0.0000000E+00  0.1736111E-02
    1      -12.787305
    2      -12.627356
    3       -5.444023
    4       -5.362395
    5       -1.551999
    6       -1.522118
    7       -1.005427
    8        0.242279
    9        8.818993
   10        9.466774
   11       11.304367
   12       11.858488
 
  0.4166667E+00  0.4166667E+00  0.0000000E+00  0.1736111E-02
    1       -9.669853
    2       -9.604188
    3       -8.622985
    4       -8.576666
    5       -4.018455
    6       -3.961547
    7        2.159047
    8        2.642584
    9        5.606047
   10        5.865190
   11       13.976811
   12       14.367986
 
  0.5000000E+00  0.4166667E+00  0.0000000E+00  0.3472222E-02
    1      -10.509757
    2      -10.386921
    3       -8.391317
    4       -8.291722
    5       -2.676789
    6       -2.636697
    7        1.355626
    8        2.088575
    9        5.934261
   10        6.525265
   11       12.224292
   12       12.498852
 
 -0.4166667E+00  0.4166667E+00  0.0000000E+00  0.1736111E-02
    1      -11.383560
    2      -11.241918
    3       -7.552976
    4       -7.452531
    5       -2.024295
    6       -1.993020
    7        0.514192
    8        1.512552
    9        6.663018
   10        7.395027
   11       11.579306
   12       11.820542
 
  0.5000000E+00  0.5000000E+00  0.0000000E+00  0.8680556E-03
    1      -10.093994
    2      -10.025214
    3       -9.025244
    4       -8.972468
    5       -2.186284
    6       -2.154786
    7        1.559449
    8        2.052688
    9        5.717364
   10        6.247945
   11       11.492711
   12       11.751182
 
  0.0000000E+00  0.0000000E+00  0.1250000E+00  0.1736111E-02
    1      -15.379375
    2      -15.202018
    3       -4.038311
    4       -2.688192
    5        1.193421
    6        1.194747
    7        1.202830
    8        1.203837
    9        8.250449
   10       12.520734
   11       12.549847
   12       12.565891
 
  0.8333333E-01  0.0000000E+00  0.1250000E+00  0.6944444E-02
    1      -15.214216
    2      -15.038713
    3       -3.838352
    4       -2.497847
    5        0.539020
    6        0.556621
    7        0.852006
    8        0.866491
    9        8.453888
   10       12.586281
   11       12.642849
   12       13.223728
 
  0.1666667E+00  0.0000000E+00  0.1250000E+00  0.6944444E-02
    1      -14.720524
    2      -14.550745
    3       -3.243312
    4       -1.932665
    5       -1.108893
    6       -1.073781
    7        0.054999
    8        0.075962
    9        9.064935
   10       12.493277
   11       12.613976
   12       13.428563
 
  0.2500000E+00  0.0000000E+00  0.1250000E+00  0.6944444E-02
    1      -13.904224
    2      -13.743679
    3       -3.218815
    4       -3.163914
    5       -2.269394
    6       -1.015429
    7       -0.827784
    8       -0.802644
    9       10.073084
   10       11.254367
   11       11.651228
   12       12.179769
 
  0.3333333E+00  0.0000000E+00  0.1250000E+00  0.6944444E-02
    1      -12.777736
    2      -12.629801
    3       -5.434027
    4       -5.358875
    5       -1.562874
    6       -1.535165
    7       -0.958761
    8        0.193049
    9        8.839399
   10        9.438770
   11       11.433526
   12       11.839985
 
  0.4166667E+00 -0.2775558E-16  0.1250000E+00  0.6944444E-02
    1      -11.372035
    2      -11.241224
    3       -7.544726
    4       -7.451801
    5       -2.036390
    6       -2.007437
    7        0.557290
    8        1.482762
    9        6.679118
   10        7.359469
   11       11.557562
   12       11.780729
 
  0.5000000E+00  0.0000000E+00  0.1250000E+00  0.3472222E-02
    1      -10.077815
    2      -10.012739
    3       -9.027088
    4       -8.977377
    5       -2.198854
    6       -2.169635
    7        1.590194
    8        2.058777
    9        5.710245
   10        6.212768
   11       11.469788
   12       11.708689
 
  0.8333333E-01  0.8333333E-01  0.1250000E+00  0.3472222E-02
    1      -14.884538
    2      -14.712855
    3       -3.440452
    4       -2.119547
    5       -0.498242
    6       -0.481236
    7        0.177819
    8        0.190180
    9        8.862624
   10       12.867340
   11       12.956336
   12       13.692987
 
  0.1666667E+00  0.8333333E-01  0.1250000E+00  0.6944444E-02
    1      -14.229345
    2      -14.065130
    3       -2.654799
    4       -2.220133
    5       -2.182678
    6       -1.376576
    7       -0.826643
    8       -0.803268
    9        9.678720
   10       12.154447
   11       12.430641
   12       12.971468
 
  0.2500000E+00  0.8333333E-01  0.1250000E+00  0.6944444E-02
    1      -13.257476
    2      -13.104227
    3       -4.306086
    4       -4.244626
    5       -1.718924
    6       -1.687195
    7       -1.507218
    8       -0.304879
    9        9.917059
   10       10.373476
   11       10.898745
   12       12.692967
 
  0.3333333E+00  0.8333333E-01  0.1250000E+00  0.6944444E-02
    1      -11.988255
    2      -11.849463
    3       -6.440628
    4       -6.358233
    5       -2.357007
    6       -2.321542
    7       -0.067570
    8        0.990982
    9        7.640754
   10        8.253263
   11       12.305097
   12       12.458712
 
  0.4166667E+00  0.8333333E-01  0.1250000E+00  0.6944444E-02
    1      -10.495388
    2      -10.381466
    3       -8.387635
    4       -8.295331
    5       -2.687452
    6       -2.650326
    7        1.393767
    8        2.078431
    9        5.936621
   10        6.489701
   11       12.201114
   12       12.454708
 
  0.5000000E+00  0.8333333E-01  0.1250000E+00  0.6944444E-02
    1      -10.497694
    2      -10.383716
    3       -8.384789
    4       -8.292366
    5       -2.688443
    6       -2.651299
    7        1.391972
    8        2.077476
    9        5.937391
   10        6.492174
   11       12.201750
   12       12.455251
 
 -0.4166667E+00  0.8333333E-01  0.1250000E+00  0.6944444E-02
    1      -11.990317
    2      -11.851528
    3       -6.436732
    4       -6.354268
    5       -2.359996
    6       -2.324437
    7       -0.069902
    8        0.988825
    9        7.642705
   10        8.256888
   11       12.304374
   12       12.458183
 
 -0.3333333E+00  0.8333333E-01  0.1250000E+00  0.6944444E-02
    1      -13.259079
    2      -13.105820
    3       -4.301442
    4       -4.239866
    5       -1.723727
    6       -1.691863
    7       -1.509179
    8       -0.306866
    9        9.918315
   10       10.376933
   11       10.896111
   12       12.694700
 
 -0.2500000E+00  0.8333333E-01  0.1250000E+00  0.6944444E-02
    1      -14.230479
    2      -14.066234
    3       -2.656250
    4       -2.215377
    5       -2.177720
    6       -1.378076
    7       -0.832254
    8       -0.808741
    9        9.676923
   10       12.153815
   11       12.433386
   12       12.969949
 
 -0.1666667E+00  0.8333333E-01  0.1250000E+00  0.6944444E-02
    1      -14.885219
    2      -14.713539
    3       -3.441348
    4       -2.120468
    5       -0.496863
    6       -0.479392
    7        0.175481
    8        0.187857
    9        8.861502
   10       12.858861
   11       12.948862
   12       13.691921
 
 -0.8333333E-01  0.8333333E-01  0.1250000E+00  0.3472222E-02
    1      -15.214441
    2      -15.038936
    3       -3.838653
    4       -2.498161
    5        0.536066
    6        0.553851
    7        0.854733
    8        0.869060
    9        8.453505
   10       12.578417
   11       12.635112
   12       13.251669
 
  0.1666667E+00  0.1666667E+00  0.1250000E+00  0.3472222E-02
    1      -13.418507
    2      -13.263419
    3       -3.550884
    4       -3.521240
    5       -2.186404
    6       -2.164752
    7       -1.692345
    8       -0.474030
    9       10.428264
   10       10.686202
   11       10.742659
   12       14.137452
 
  0.2500000E+00  0.1666667E+00  0.1250000E+00  0.6944444E-02
    1      -12.302506
    2      -12.160039
    3       -5.293103
    4       -5.235180
    5       -3.254191
    6       -3.214643
    7       -0.395974
    8        0.720046
    9        8.431642
   10        8.838219
   11       12.096677
   12       14.289792
 
  0.3333333E+00  0.1666667E+00  0.1250000E+00  0.6944444E-02
    1      -10.916537
    2      -10.791024
    3       -7.216681
    4       -7.133232
    5       -3.838355
    6       -3.788394
    7        1.117406
    8        2.025540
    9        6.487794
   10        6.989705
   11       13.790811
   12       14.074003
 
  0.4166667E+00  0.1666667E+00  0.1250000E+00  0.6944444E-02
    1       -9.654339
    2       -9.592183
    3       -8.626602
    4       -8.582844
    5       -4.026665
    6       -3.974040
    7        2.189000
    8        2.648581
    9        5.591497
   10        5.841179
   11       13.953520
   12       14.312993
 
  0.5000000E+00  0.1666667E+00  0.1250000E+00  0.6944444E-02
    1      -10.921142
    2      -10.795613
    3       -7.209588
    4       -7.125902
    5       -3.841890
    6       -3.791842
    7        1.112738
    8        2.021507
    9        6.490120
   10        6.996882
   11       13.783260
   12       14.074753
 
 -0.4166667E+00  0.1666667E+00  0.1250000E+00  0.6944444E-02
    1      -12.306210
    2      -12.163782
    3       -5.284662
    4       -5.226416
    5       -3.260826
    6       -3.220979
    7       -0.400377
    8        0.715595
    9        8.433193
   10        8.845496
   11       12.091095
   12       14.290684
 
 -0.3333333E+00  0.1666667E+00  0.1250000E+00  0.6944444E-02
    1      -13.421230
    2      -13.266135
    3       -3.545524
    4       -3.515165
    5       -2.191412
    6       -2.169332
    7       -1.695829
    8       -0.477643
    9       10.426773
   10       10.683911
   11       10.746305
   12       14.140422
 
 -0.2500000E+00  0.1666667E+00  0.1250000E+00  0.6944444E-02
    1      -14.231152
    2      -14.066926
    3       -2.657186
    4       -2.222194
    5       -2.184226
    6       -1.379066
    7       -0.824650
    8       -0.801117
    9        9.675962
   10       12.151155
   11       12.431776
   12       12.985476
 
 -0.1666667E+00  0.1666667E+00  0.1250000E+00  0.3472222E-02
    1      -14.721424
    2      -14.551644
    3       -3.244520
    4       -1.933926
    5       -1.114910
    6       -1.079579
    7        0.061226
    8        0.082122
    9        9.063550
   10       12.503922
   11       12.624264
   12       13.425077
 
  0.2500000E+00  0.2500000E+00  0.1250000E+00  0.3472222E-02
    1      -11.065181
    2      -10.937035
    3       -6.325547
    4       -6.283602
    5       -4.732172
    6       -4.700775
    7        1.006131
    8        1.983926
    9        6.824100
   10        7.210211
   11       13.620225
   12       15.536078
 
  0.3333333E+00  0.2500000E+00  0.1250000E+00  0.6944444E-02
    1       -9.629180
    2       -9.525529
    3       -7.759665
    4       -7.690711
    5       -5.454302
    6       -5.401135
    7        2.509122
    8        3.195105
    9        5.343361
   10        5.695580
   11       15.127837
   12       15.329037
 
  0.4166667E+00  0.2500000E+00  0.1250000E+00  0.6944444E-02
    1       -9.636573
    2       -9.532838
    3       -7.750493
    4       -7.680823
    5       -5.456781
    6       -5.403432
    7        2.502731
    8        3.190546
    9        5.342996
   10        5.706485
   11       15.115167
   12       15.335498
 
  0.5000000E+00  0.2500000E+00  0.1250000E+00  0.6944444E-02
    1      -11.071521
    2      -10.943578
    3       -6.316781
    4       -6.273777
    5       -4.735952
    6       -4.703932
    7        0.998943
    8        1.976283
    9        6.825707
   10        7.220997
   11       13.611059
   12       15.537623
 
 -0.4166667E+00  0.2500000E+00  0.1250000E+00  0.6944444E-02
    1      -12.307438
    2      -12.164896
    3       -5.291802
    4       -5.233244
    5       -3.251861
    6       -3.211961
    7       -0.402033
    8        0.713476
    9        8.431044
   10        8.844673
   11       12.089962
   12       14.318999
 
 -0.3333333E+00  0.2500000E+00  0.1250000E+00  0.6944444E-02
    1      -13.260894
    2      -13.107632
    3       -4.310134
    4       -4.248357
    5       -1.712126
    6       -1.680351
    7       -1.511710
    8       -0.309732
    9        9.913876
   10       10.374337
   11       10.894349
   12       12.720363
 
 -0.2500000E+00  0.2500000E+00  0.1250000E+00  0.3472222E-02
    1      -13.906244
    2      -13.745689
    3       -3.226197
    4       -3.171091
    5       -2.272138
    6       -1.018381
    7       -0.818204
    8       -0.793156
    9       10.070101
   10       11.250240
   11       11.648725
   12       12.202577
 
  0.3333333E+00  0.3333333E+00  0.1250000E+00  0.3472222E-02
    1       -8.421610
    2       -8.367074
    3       -8.364154
    4       -8.311538
    5       -6.320366
    6       -6.320040
    7        3.781872
    8        4.193428
    9        4.199226
   10        4.667113
   11       14.994664
   12       15.009591
 
  0.4166667E+00  0.3333333E+00  0.1250000E+00  0.6944444E-02
    1       -9.639952
    2       -9.536660
    3       -7.752628
    4       -7.683180
    5       -5.450621
    6       -5.397085
    7        2.499526
    8        3.181446
    9        5.348784
   10        5.708722
   11       15.114992
   12       15.339506
 
  0.5000000E+00  0.3333333E+00  0.1250000E+00  0.6944444E-02
    1      -10.924445
    2      -10.799033
    3       -7.216021
    4       -7.132312
    5       -3.830751
    6       -3.780749
    7        1.108417
    8        2.014163
    9        6.491145
   10        6.996584
   11       13.784378
   12       14.106629
 
 -0.4166667E+00  0.3333333E+00  0.1250000E+00  0.6944444E-02
    1      -11.993911
    2      -11.855144
    3       -6.444269
    4       -6.361703
    5       -2.346888
    6       -2.311434
    7       -0.074802
    8        0.982373
    9        7.640592
   10        8.254355
   11       12.319823
   12       12.481579
 
 -0.3333333E+00  0.3333333E+00  0.1250000E+00  0.3472222E-02
    1      -12.781413
    2      -12.633540
    3       -5.440958
    4       -5.365586
    5       -1.550967
    6       -1.523346
    7       -0.963721
    8        0.187309
    9        8.836025
   10        9.436208
   11       11.432909
   12       11.868351
 
  0.4166667E+00  0.4166667E+00  0.1250000E+00  0.3472222E-02
    1       -9.667079
    2       -9.606374
    3       -8.621702
    4       -8.578894
    5       -4.016343
    6       -3.963744
    7        2.181710
    8        2.630402
    9        5.601982
   10        5.844316
   11       13.988224
   12       14.348258
 
  0.5000000E+00  0.4166667E+00  0.1250000E+00  0.6944444E-02
    1      -10.505202
    2      -10.391717
    3       -8.387737
    4       -8.295682
    5       -2.675243
    6       -2.638176
    7        1.384334
    8        2.062817
    9        5.943315
   10        6.491181
   11       12.234347
   12       12.487959
 
 -0.4166667E+00  0.4166667E+00  0.1250000E+00  0.3472222E-02
    1      -11.378303
    2      -11.247599
    3       -7.549378
    4       -7.456435
    5       -2.023109
    6       -1.994230
    7        0.549490
    8        1.471742
    9        6.680749
   10        7.357990
   11       11.588879
   12       11.811858
 
  0.5000000E+00  0.5000000E+00  0.1250000E+00  0.1736111E-02
    1      -10.091066
    2      -10.027498
    3       -9.023638
    4       -8.974961
    5       -2.185114
    6       -2.155971
    7        1.582163
    8        2.039614
    9        5.719626
   10        6.211293
   11       11.502191
   12       11.741096
 
  0.0000000E+00  0.0000000E+00  0.2500000E+00  0.1736111E-02
    1      -15.359311
    2      -15.223612
    3       -3.899503
    4       -2.871565
    5        1.194529
    6        1.195818
    7        1.201722
    8        1.202765
    9        8.708825
   10       12.344401
   11       12.524014
   12       12.546942
 
  0.8333333E-01  0.0000000E+00  0.2500000E+00  0.6944444E-02
    1      -15.194339
    2      -15.060071
    3       -3.700478
    4       -2.679716
    5        0.541081
    6        0.554584
    7        0.853720
    8        0.864798
    9        8.909013
   10       12.451108
   11       12.636715
   12       12.673631
 
  0.1666667E+00  0.0000000E+00  0.2500000E+00  0.6944444E-02
    1      -14.701291
    2      -14.571340
    3       -3.108073
    4       -2.110018
    5       -1.104738
    6       -1.077942
    7        0.057428
    8        0.073487
    9        9.509082
   10       12.466553
   11       12.599875
   12       13.068513
 
  0.2500000E+00  0.0000000E+00  0.2500000E+00  0.6944444E-02
    1      -13.885956
    2      -13.763082
    3       -3.212391
    4       -3.170436
    5       -2.139215
    6       -1.183849
    7       -0.824869
    8       -0.805462
    9       10.474746
   10       11.321031
   11       11.587742
   12       12.189960
 
  0.3333333E+00  0.0000000E+00  0.2500000E+00  0.6944444E-02
    1      -12.760857
    2      -12.647740
    3       -5.425374
    4       -5.367811
    5       -1.559503
    6       -1.538375
    7       -0.837816
    8        0.040621
    9        8.893279
   10        9.354762
   11       11.716319
   12       11.874341
 