       N       E                     dE             d eps       ncg     rms          rms(c)
DAV:   1     0.596532932658E+02    0.59653E+02   -0.89722E+03  5168   0.137E+03
DAV:   2    -0.346025094601E+02   -0.94256E+02   -0.86729E+02  7284   0.244E+02
DAV:   3    -0.392115384050E+02   -0.46090E+01   -0.45663E+01  6600   0.542E+01
DAV:   4    -0.392728722674E+02   -0.61334E-01   -0.61246E-01  6368   0.729E+00
DAV:   5    -0.392742291008E+02   -0.13568E-02   -0.13565E-02  6440   0.106E+00    0.781E+00
DAV:   6    -0.374400878787E+02    0.18341E+01   -0.18114E+00  5952   0.937E+00    0.410E+00
DAV:   7    -0.368491459583E+02    0.59094E+00   -0.19188E+00  6140   0.973E+00    0.693E-01
DAV:   8    -0.368590468126E+02   -0.99009E-02   -0.55317E-02  5912   0.162E+00    0.926E-02
DAV:   9    -0.368592708222E+02   -0.22401E-03   -0.14003E-03  6496   0.310E-01    0.406E-02
DAV:  10    -0.368594525451E+02   -0.18172E-03   -0.21365E-04  6172   0.126E-01    0.633E-03
DAV:  11    -0.368594550305E+02   -0.24854E-05   -0.41543E-06  6688   0.172E-02    0.196E-03
DAV:  12    -0.368594554878E+02   -0.45730E-06   -0.52535E-07  6336   0.615E-03    0.900E-04
DAV:  13    -0.368594555838E+02   -0.96041E-07   -0.24593E-07  6284   0.411E-03    0.140E-04
DAV:  14    -0.368594555960E+02   -0.12206E-07   -0.24118E-09  4548   0.497E-04    0.620E-05
DAV:  15    -0.368594555917E+02    0.42894E-08   -0.42075E-10  4280   0.223E-04
   1 F= -.37444127E+02 E0= -.37444127E+02  d E =-.374441E+02
