# Thermal properties / unit cell (natom)

unit:
  temperature:   K
  free_energy:   kJ/mol
  entropy:       J/K/mol
  heat_capacity: J/K/mol

natom:     4
num_modes: 3888
num_integrated_modes: 3872

zero_point_energy:      65.7508996
high_T_entropy:        229.6674266

thermal_properties:
- temperature:         0.0000000
  free_energy:        65.7508996
  entropy:             0.0000000
  heat_capacity:       0.0000000
  energy:             65.7508996

- temperature:        10.0000000
  free_energy:        65.7508867
  entropy:             0.0063879
  heat_capacity:       0.0210747
  energy:             65.7509506

- temperature:        20.0000000
  free_energy:        65.7506743
  entropy:             0.0398738
  heat_capacity:       0.0886341
  energy:             65.7514717

- temperature:        30.0000000
  free_energy:        65.7500126
  entropy:             0.0972344
  heat_capacity:       0.2193703
  energy:             65.7529297

- temperature:        40.0000000
  free_energy:        65.7486062
  entropy:             0.1914525
  heat_capacity:       0.4697019
  energy:             65.7562643

- temperature:        50.0000000
  free_energy:        65.7460183
  entropy:             0.3350219
  heat_capacity:       0.8533563
  energy:             65.7627694

- temperature:        60.0000000
  free_energy:        65.7417203
  entropy:             0.5341343
  heat_capacity:       1.3682718
  energy:             65.7737684

- temperature:        70.0000000
  free_energy:        65.7351399
  entropy:             0.7919249
  heat_capacity:       2.0151599
  energy:             65.7905747

- temperature:        80.0000000
  free_energy:        65.7256793
  entropy:             1.1104691
  heat_capacity:       2.7954645
  energy:             65.8145168

- temperature:        90.0000000
  free_energy:        65.7127235
  entropy:             1.4910928
  heat_capacity:       3.7069728
  energy:             65.8469219

- temperature:       100.0000000
  free_energy:        65.6956490
  entropy:             1.9342165
  heat_capacity:       4.7426540
  energy:             65.8890706

- temperature:       110.0000000
  free_energy:        65.6738326
  entropy:             2.4392702
  heat_capacity:       5.8914718
  energy:             65.9421524

- temperature:       120.0000000
  free_energy:        65.6466621
  entropy:             3.0047461
  heat_capacity:       7.1397081
  energy:             66.0072316

- temperature:       130.0000000
  free_energy:        65.6135439
  entropy:             3.6283355
  heat_capacity:       8.4722439
  energy:             66.0852276

- temperature:       140.0000000
  free_energy:        65.5739114
  entropy:             4.3071047
  heat_capacity:       9.8736669
  energy:             66.1769060

- temperature:       150.0000000
  free_energy:        65.5272291
  entropy:             5.0376791
  heat_capacity:      11.3291634
  energy:             66.2828810

- temperature:       160.0000000
  free_energy:        65.4729972
  entropy:             5.8164182
  heat_capacity:      12.8251694
  energy:             66.4036241

- temperature:       170.0000000
  free_energy:        65.4107527
  entropy:             6.6395692
  heat_capacity:      14.3497697
  energy:             66.5394795

- temperature:       180.0000000
  free_energy:        65.3400703
  entropy:             7.5033929
  heat_capacity:      15.8928692
  energy:             66.6906810

- temperature:       190.0000000
  free_energy:        65.2605614
  entropy:             8.4042595
  heat_capacity:      17.4461782
  energy:             66.8573707

- temperature:       200.0000000
  free_energy:        65.1718731
  entropy:             9.3387159
  heat_capacity:      19.0030685
  energy:             67.0396163

- temperature:       210.0000000
  free_energy:        65.0736859
  entropy:            10.3035270
  heat_capacity:      20.5583544
  energy:             67.2374266

- temperature:       220.0000000
  free_energy:        64.9657114
  entropy:            11.2956964
  heat_capacity:      22.1080412
  energy:             67.4507647

- temperature:       230.0000000
  free_energy:        64.8476900
  entropy:            12.3124717
  heat_capacity:      23.6490766
  energy:             67.6795585

- temperature:       240.0000000
  free_energy:        64.7193884
  entropy:            13.3513380
  heat_capacity:      25.1791242
  energy:             67.9237095

- temperature:       250.0000000
  free_energy:        64.5805973
  entropy:            14.4100041
  heat_capacity:      26.6963713
  energy:             68.1830983

- temperature:       260.0000000
  free_energy:        64.4311293
  entropy:            15.4863851
  heat_capacity:      28.1993732
  energy:             68.4575894

- temperature:       270.0000000
  free_energy:        64.2708169
  entropy:            16.5785830
  heat_capacity:      29.6869355
  energy:             68.7470343

- temperature:       280.0000000
  free_energy:        64.0995107
  entropy:            17.6848662
  heat_capacity:      31.1580269
  energy:             69.0512732

- temperature:       290.0000000
  free_energy:        63.9170779
  entropy:            18.8036515
  heat_capacity:      32.6117210
  energy:             69.3701368

- temperature:       300.0000000
  free_energy:        63.7234008
  entropy:            19.9334864
  heat_capacity:      34.0471580
  energy:             69.7034468

- temperature:       310.0000000
  free_energy:        63.5183758
  entropy:            21.0730342
  heat_capacity:      35.4635235
  energy:             70.0510164

- temperature:       320.0000000
  free_energy:        63.3019119
  entropy:            22.2210599
  heat_capacity:      36.8600391
  energy:             70.4126511

- temperature:       330.0000000
  free_energy:        63.0739302
  entropy:            23.3764193
  heat_capacity:      38.2359604
  energy:             70.7881485

- temperature:       340.0000000
  free_energy:        62.8343626
  entropy:            24.5380490
  heat_capacity:      39.5905799
  energy:             71.1772993

- temperature:       350.0000000
  free_energy:        62.5831516
  entropy:            25.7049580
  heat_capacity:      40.9232329
  energy:             71.5798869

- temperature:       360.0000000
  free_energy:        62.3202490
  entropy:            26.8762214
  heat_capacity:      42.2333038
  energy:             71.9956886

- temperature:       370.0000000
  free_energy:        62.0456155
  entropy:            28.0509738
  heat_capacity:      43.5202332
  energy:             72.4244758

- temperature:       380.0000000
  free_energy:        61.7592206
  entropy:            29.2284051
  heat_capacity:      44.7835231
  energy:             72.8660145

- temperature:       390.0000000
  free_energy:        61.4610410
  entropy:            30.4077564
  heat_capacity:      46.0227416
  energy:             73.3200660

- temperature:       400.0000000
  free_energy:        61.1510614
  entropy:            31.5883162
  heat_capacity:      47.2375261
  energy:             73.7863879

- temperature:       410.0000000
  free_energy:        60.8292729
  entropy:            32.7694176
  heat_capacity:      48.4275847
  energy:             74.2647341

- temperature:       420.0000000
  free_energy:        60.4956733
  entropy:            33.9504359
  heat_capacity:      49.5926966
  energy:             74.7548564

- temperature:       430.0000000
  free_energy:        60.1502664
  entropy:            35.1307860
  heat_capacity:      50.7327113
  energy:             75.2565044

- temperature:       440.0000000
  free_energy:        59.7930617
  entropy:            36.3099205
  heat_capacity:      51.8475465
  energy:             75.7694267

- temperature:       450.0000000
  free_energy:        59.4240738
  entropy:            37.4873279
  heat_capacity:      52.9371854
  energy:             76.2933713

- temperature:       460.0000000
  free_energy:        59.0433225
  entropy:            38.6625306
  heat_capacity:      54.0016733
  energy:             76.8280866

- temperature:       470.0000000
  free_energy:        58.6508320
  entropy:            39.8350836
  heat_capacity:      55.0411137
  energy:             77.3733213

- temperature:       480.0000000
  free_energy:        58.2466310
  entropy:            41.0045726
  heat_capacity:      56.0556637
  energy:             77.9288259

- temperature:       490.0000000
  free_energy:        57.8307521
  entropy:            42.1706128
  heat_capacity:      57.0455300
  energy:             78.4943523

- temperature:       500.0000000
  free_energy:        57.4032314
  entropy:            43.3328472
  heat_capacity:      58.0109638
  energy:             79.0696550

- temperature:       510.0000000
  free_energy:        56.9641089
  entropy:            44.4909455
  heat_capacity:      58.9522568
  energy:             79.6544911

- temperature:       520.0000000
  free_energy:        56.5134273
  entropy:            45.6446028
  heat_capacity:      59.8697362
  energy:             80.2486208

- temperature:       530.0000000
  free_energy:        56.0512326
  entropy:            46.7935378
  heat_capacity:      60.7637608
  energy:             80.8518076

- temperature:       540.0000000
  free_energy:        55.5775732
  entropy:            47.9374924
  heat_capacity:      61.6347164
  energy:             81.4638191

- temperature:       550.0000000
  free_energy:        55.0925001
  entropy:            49.0762296
  heat_capacity:      62.4830122
  energy:             82.0844264

- temperature:       560.0000000
  free_energy:        54.5960667
  entropy:            50.2095331
  heat_capacity:      63.3090772
  energy:             82.7134052

- temperature:       570.0000000
  free_energy:        54.0883282
  entropy:            51.3372055
  heat_capacity:      64.1133563
  energy:             83.3505354

- temperature:       580.0000000
  free_energy:        53.5693420
  entropy:            52.4590677
  heat_capacity:      64.8963077
  energy:             83.9956013

- temperature:       590.0000000
  free_energy:        53.0391668
  entropy:            53.5749579
  heat_capacity:      65.6583993
  energy:             84.6483920

- temperature:       600.0000000
  free_energy:        52.4978632
  entropy:            54.6847302
  heat_capacity:      66.4001068
  energy:             85.3087013

- temperature:       610.0000000
  free_energy:        51.9454930
  entropy:            55.7882537
  heat_capacity:      67.1219108
  energy:             85.9763278

- temperature:       620.0000000
  free_energy:        51.3821193
  entropy:            56.8854120
  heat_capacity:      67.8242947
  energy:             86.6510748

- temperature:       630.0000000
  free_energy:        50.8078063
  entropy:            57.9761019
  heat_capacity:      68.5077430
  energy:             87.3327505

- temperature:       640.0000000
  free_energy:        50.2226192
  entropy:            59.0602327
  heat_capacity:      69.1727392
  energy:             88.0211681

- temperature:       650.0000000
  free_energy:        49.6266238
  entropy:            60.1377255
  heat_capacity:      69.8197646
  energy:             88.7161454

- temperature:       660.0000000
  free_energy:        49.0198870
  entropy:            61.2085123
  heat_capacity:      70.4492967
  energy:             89.4175051

- temperature:       670.0000000
  free_energy:        48.4024761
  entropy:            62.2725351
  heat_capacity:      71.0618085
  energy:             90.1250746

- temperature:       680.0000000
  free_energy:        47.7744590
  entropy:            63.3297457
  heat_capacity:      71.6577666
  energy:             90.8386861

- temperature:       690.0000000
  free_energy:        47.1359041
  entropy:            64.3801047
  heat_capacity:      72.2376312
  energy:             91.5581763

- temperature:       700.0000000
  free_energy:        46.4868799
  entropy:            65.4235810
  heat_capacity:      72.8018552
  energy:             92.2833866

- temperature:       710.0000000
  free_energy:        45.8274555
  entropy:            66.4601511
  heat_capacity:      73.3508829
  energy:             93.0141628

- temperature:       720.0000000
  free_energy:        45.1576999
  entropy:            67.4897988
  heat_capacity:      73.8851505
  energy:             93.7503551

- temperature:       730.0000000
  free_energy:        44.4776826
  entropy:            68.5125143
  heat_capacity:      74.4050848
  energy:             94.4918180

- temperature:       740.0000000
  free_energy:        43.7874728
  entropy:            69.5282941
  heat_capacity:      74.9111036
  energy:             95.2384104

- temperature:       750.0000000
  free_energy:        43.0871398
  entropy:            70.5371403
  heat_capacity:      75.4036147
  energy:             95.9899950

- temperature:       760.0000000
  free_energy:        42.3767530
  entropy:            71.5390604
  heat_capacity:      75.8830163
  energy:             96.7464390

- temperature:       770.0000000
  free_energy:        41.6563817
  entropy:            72.5340666
  heat_capacity:      76.3496968
  energy:             97.5076130

- temperature:       780.0000000
  free_energy:        40.9260947
  entropy:            73.5221757
  heat_capacity:      76.8040344
  energy:             98.2733918

- temperature:       790.0000000
  free_energy:        40.1859611
  entropy:            74.5034085
  heat_capacity:      77.2463973
  energy:             99.0436537

- temperature:       800.0000000
  free_energy:        39.4360494
  entropy:            75.4777895
  heat_capacity:      77.6771438
  energy:             99.8182810

- temperature:       810.0000000
  free_energy:        38.6764280
  entropy:            76.4453470
  heat_capacity:      78.0966221
  energy:            100.5971591

- temperature:       820.0000000
  free_energy:        37.9071651
  entropy:            77.4061121
  heat_capacity:      78.5051707
  energy:            101.3801770

- temperature:       830.0000000
  free_energy:        37.1283283
  entropy:            78.3601191
  heat_capacity:      78.9031182
  energy:            102.1672271

- temperature:       840.0000000
  free_energy:        36.3399851
  entropy:            79.3074047
  heat_capacity:      79.2907836
  energy:            102.9582051

- temperature:       850.0000000
  free_energy:        35.5422025
  entropy:            80.2480083
  heat_capacity:      79.6684764
  energy:            103.7530096

- temperature:       860.0000000
  free_energy:        34.7350471
  entropy:            81.1819713
  heat_capacity:      80.0364968
  energy:            104.5515424

- temperature:       870.0000000
  free_energy:        33.9185850
  entropy:            82.1093370
  heat_capacity:      80.3951360
  energy:            105.3537082

- temperature:       880.0000000
  free_energy:        33.0928822
  entropy:            83.0301507
  heat_capacity:      80.7446759
  energy:            106.1594148

- temperature:       890.0000000
  free_energy:        32.2580037
  entropy:            83.9444591
  heat_capacity:      81.0853901
  energy:            106.9685723

- temperature:       900.0000000
  free_energy:        31.4140145
  entropy:            84.8523106
  heat_capacity:      81.4175432
  energy:            107.7810940

- temperature:       910.0000000
  free_energy:        30.5609789
  entropy:            85.7537546
  heat_capacity:      81.7413919
  energy:            108.5968955

- temperature:       920.0000000
  free_energy:        29.6989606
  entropy:            86.6488417
  heat_capacity:      82.0571844
  energy:            109.4158950

- temperature:       930.0000000
  free_energy:        28.8280230
  entropy:            87.5376238
  heat_capacity:      82.3651613
  energy:            110.2380132

- temperature:       940.0000000
  free_energy:        27.9482290
  entropy:            88.4201532
  heat_capacity:      82.6655553
  energy:            111.0631730

- temperature:       950.0000000
  free_energy:        27.0596406
  entropy:            89.2964833
  heat_capacity:      82.9585918
  energy:            111.8912997

- temperature:       960.0000000
  free_energy:        26.1623198
  entropy:            90.1666679
  heat_capacity:      83.2444889
  energy:            112.7223210

- temperature:       970.0000000
  free_energy:        25.2563276
  entropy:            91.0307617
  heat_capacity:      83.5234574
  energy:            113.5561664

- temperature:       980.0000000
  free_energy:        24.3417247
  entropy:            91.8888194
  heat_capacity:      83.7957017
  energy:            114.3927677

- temperature:       990.0000000
  free_energy:        23.4185711
  entropy:            92.7408965
  heat_capacity:      84.0614193
  energy:            115.2320587

- temperature:      1000.0000000
  free_energy:        22.4869265
  entropy:            93.5870485
  heat_capacity:      84.3208014
  energy:            116.0739750
