16   
1    

1    
  0.0100000000000000   0.0000000000000000   0.0000000000000000
  -0.4066491100   -0.0034901700   -0.0024679200
   0.0616681300    0.0000297800    0.0000210600
   0.0015368800    0.0346629100   -0.0109232900
   0.0015864400   -0.0347358200    0.0108453600
   0.0015368800    0.0012557300    0.0363216000
   0.0015864400   -0.0013535000   -0.0363643700
  -0.0007005900   -0.0000361700   -0.0000255700
   0.0040812400    0.0000257400    0.0000182000
   0.1098723100    0.0238934400    0.0168952100
   0.1047821200   -0.0206510900   -0.0146025300
   0.0688040200    0.0002902500    0.0001382400
  -0.0061611800   -0.0000706200    0.0000160400
   0.0688040200    0.0002270800    0.0002275700
  -0.0061611800   -0.0000084200   -0.0000719200
  -0.0023053100   -0.0022548500   -0.0015944200
  -0.0022811100    0.0022157100    0.0015667500
