  32  32   0   0
  0.7533559E+01  0.4934311E-09  0.4934311E-09  0.1143376E-08  0.5000000E-15
  1.000000000000000E-004
  CAR 
 graphite                                
     17.97543813    -15.71980541  301      6.14959799      1.00000000
    -15.720  0.0000E+00  0.0000E+00
    -15.607  0.0000E+00  0.0000E+00
    -15.495  0.0000E+00  0.0000E+00
    -15.383  0.0000E+00  0.0000E+00
    -15.271  0.0000E+00  0.0000E+00
    -15.158  0.0000E+00  0.0000E+00
    -15.046  0.0000E+00  0.0000E+00
    -14.934  0.0000E+00  0.0000E+00
    -14.821  0.0000E+00  0.0000E+00
    -14.709  0.0000E+00  0.0000E+00
    -14.597  0.0000E+00  0.0000E+00
    -14.484  0.0000E+00  0.0000E+00
    -14.372  0.0000E+00  0.0000E+00
    -14.260  0.0000E+00  0.0000E+00
    -14.147  0.0000E+00  0.0000E+00
    -14.035  0.0000E+00  0.0000E+00
    -13.923  0.0000E+00  0.0000E+00
    -13.810  0.0000E+00  0.0000E+00
    -13.698  0.1046E+00  0.7572E-03
    -13.586  0.1141E+01  0.8606E-01
    -13.473  0.1747E+01  0.2479E+00
    -13.361  0.2094E+01  0.4639E+00
    -13.249  0.2534E+01  0.7236E+00
    -13.137  0.2916E+01  0.1031E+01
    -13.024  0.3300E+01  0.1379E+01
    -12.912  0.3769E+01  0.1775E+01
    -12.800  0.4546E+01  0.2237E+01
    -12.687  0.4899E+01  0.2786E+01
    -12.575  0.4943E+01  0.3341E+01
    -12.463  0.5213E+01  0.3906E+01
    -12.350  0.5393E+01  0.4503E+01
    -12.238  0.6005E+01  0.5147E+01
    -12.126  0.4727E+01  0.5775E+01
    -12.013  0.4859E+01  0.6289E+01
    -11.901  0.6108E+01  0.6891E+01
    -11.789  0.3154E+01  0.7465E+01
    -11.676  0.3775E+01  0.7822E+01
    -11.564  0.4488E+01  0.8292E+01
    -11.452  0.5406E+01  0.8935E+01
    -11.339  0.3938E+01  0.9405E+01
    -11.227  0.4788E+01  0.9901E+01
    -11.115  0.5366E+01  0.1047E+02
    -11.002  0.6281E+01  0.1112E+02
    -10.890  0.5635E+01  0.1175E+02
    -10.778  0.5343E+01  0.1236E+02
    -10.666  0.5082E+01  0.1295E+02
    -10.553  0.4839E+01  0.1351E+02
    -10.441  0.4663E+01  0.1403E+02
    -10.329  0.4815E+01  0.1456E+02
    -10.216  0.5381E+01  0.1513E+02
    -10.104  0.5241E+01  0.1574E+02
     -9.992  0.5326E+01  0.1633E+02
     -9.879  0.5491E+01  0.1693E+02
     -9.767  0.5469E+01  0.1755E+02
     -9.655  0.5603E+01  0.1817E+02
     -9.542  0.5796E+01  0.1881E+02
     -9.430  0.6135E+01  0.1948E+02
     -9.318  0.6502E+01  0.2019E+02
     -9.205  0.6161E+01  0.2090E+02
     -9.093  0.5169E+01  0.2154E+02
     -8.981  0.4108E+01  0.2206E+02
     -8.868  0.3841E+01  0.2250E+02
     -8.756  0.4065E+01  0.2294E+02
     -8.644  0.4579E+01  0.2342E+02
     -8.531  0.5593E+01  0.2399E+02
     -8.419  0.6262E+01  0.2466E+02
     -8.307  0.6556E+01  0.2538E+02
     -8.195  0.7428E+01  0.2615E+02
     -8.082  0.9058E+01  0.2710E+02
     -7.970  0.1025E+02  0.2807E+02
     -7.858  0.5387E+01  0.2884E+02
     -7.745  0.4240E+01  0.2937E+02
     -7.633  0.3995E+01  0.2984E+02
     -7.521  0.3135E+01  0.3023E+02
     -7.408  0.3374E+01  0.3058E+02
     -7.296  0.2577E+01  0.3092E+02
     -7.184  0.2123E+01  0.3118E+02
     -7.071  0.1873E+01  0.3140E+02
     -6.959  0.2368E+01  0.3162E+02
     -6.847  0.4508E+01  0.3195E+02
     -6.734  0.4860E+01  0.3253E+02
     -6.622  0.4341E+01  0.3304E+02
     -6.510  0.4513E+01  0.3353E+02
     -6.397  0.5415E+01  0.3410E+02
     -6.285  0.5604E+01  0.3471E+02
     -6.173  0.6874E+01  0.3540E+02
     -6.061  0.8441E+01  0.3628E+02
     -5.948  0.7570E+01  0.3717E+02
     -5.836  0.7490E+01  0.3801E+02
     -5.724  0.6928E+01  0.3883E+02
     -5.611  0.5851E+01  0.3953E+02
     -5.499  0.5586E+01  0.4017E+02
     -5.387  0.5390E+01  0.4078E+02
     -5.274  0.5204E+01  0.4138E+02
     -5.162  0.5042E+01  0.4195E+02
     -5.050  0.4946E+01  0.4251E+02
     -4.937  0.4868E+01  0.4306E+02
     -4.825  0.4744E+01  0.4360E+02
     -4.713  0.4671E+01  0.4413E+02
     -4.600  0.4564E+01  0.4465E+02
     -4.488  0.3757E+01  0.4511E+02
     -4.376  0.3696E+01  0.4552E+02
     -4.263  0.4265E+01  0.4596E+02
     -4.151  0.5233E+01  0.4650E+02
     -4.039  0.6171E+01  0.4714E+02
     -3.926  0.7912E+01  0.4793E+02
     -3.814  0.8296E+01  0.4885E+02
     -3.702  0.8625E+01  0.4979E+02
     -3.590  0.6787E+01  0.5073E+02
     -3.477  0.3203E+01  0.5128E+02
     -3.365  0.2199E+01  0.5156E+02
     -3.253  0.3024E+01  0.5184E+02
     -3.140  0.4543E+01  0.5226E+02
     -3.028  0.7137E+01  0.5291E+02
     -2.916  0.8464E+01  0.5380E+02
     -2.803  0.8852E+01  0.5479E+02
     -2.691  0.7379E+01  0.5570E+02
     -2.579  0.6676E+01  0.5648E+02
     -2.466  0.7666E+01  0.5728E+02
     -2.354  0.8872E+01  0.5823E+02
     -2.242  0.7803E+01  0.5916E+02
     -2.129  0.7077E+01  0.5999E+02
     -2.017  0.8356E+01  0.6082E+02
     -1.905  0.8381E+01  0.6177E+02
     -1.792  0.9416E+01  0.6279E+02
     -1.680  0.8935E+01  0.6382E+02
     -1.568  0.8711E+01  0.6483E+02
     -1.455  0.8419E+01  0.6575E+02
     -1.343  0.8571E+01  0.6672E+02
     -1.231  0.8808E+01  0.6767E+02
     -1.119  0.9821E+01  0.6872E+02
     -1.006  0.1210E+02  0.6989E+02
     -0.894  0.1004E+02  0.7108E+02
     -0.782  0.1375E+02  0.7227E+02
     -0.669  0.1458E+02  0.7385E+02
     -0.557  0.1371E+02  0.7544E+02
     -0.445  0.1313E+02  0.7692E+02
     -0.332  0.1344E+02  0.7833E+02
     -0.220  0.1107E+02  0.7975E+02
     -0.108  0.1359E+02  0.8114E+02
      0.005  0.1866E+02  0.8310E+02
      0.117  0.1428E+02  0.8495E+02
      0.229  0.1262E+02  0.8643E+02
      0.342  0.1143E+02  0.8779E+02
      0.454  0.9722E+01  0.8895E+02
      0.566  0.1016E+02  0.9006E+02
      0.679  0.1032E+02  0.9120E+02
      0.791  0.1186E+02  0.9243E+02
      0.903  0.1323E+02  0.9386E+02
      1.015  0.1167E+02  0.9521E+02
      1.128  0.9414E+01  0.9637E+02
      1.240  0.1005E+02  0.9745E+02
      1.352  0.1072E+02  0.9862E+02
      1.465  0.1065E+02  0.9984E+02
      1.577  0.9403E+01  0.1010E+03
      1.689  0.1034E+02  0.1020E+03
      1.802  0.9697E+01  0.1032E+03
      1.914  0.9057E+01  0.1042E+03
      2.026  0.9528E+01  0.1053E+03
      2.139  0.1004E+02  0.1064E+03
      2.251  0.1009E+02  0.1075E+03
      2.363  0.1000E+02  0.1086E+03
      2.476  0.9680E+01  0.1098E+03
      2.588  0.8593E+01  0.1108E+03
      2.700  0.8296E+01  0.1117E+03
      2.813  0.8427E+01  0.1127E+03
      2.925  0.8766E+01  0.1136E+03
      3.037  0.9474E+01  0.1147E+03
      3.150  0.9004E+01  0.1157E+03
      3.262  0.8478E+01  0.1167E+03
      3.374  0.7702E+01  0.1176E+03
      3.486  0.5388E+01  0.1184E+03
      3.599  0.3292E+01  0.1188E+03
      3.711  0.2564E+01  0.1192E+03
      3.823  0.3460E+01  0.1195E+03
      3.936  0.7164E+01  0.1200E+03
      4.048  0.7164E+01  0.1208E+03
      4.160  0.8030E+01  0.1217E+03
      4.273  0.8122E+01  0.1225E+03
      4.385  0.6425E+01  0.1235E+03
      4.497  0.4336E+01  0.1241E+03
      4.610  0.4271E+01  0.1245E+03
      4.722  0.4350E+01  0.1250E+03
      4.834  0.4342E+01  0.1255E+03
      4.947  0.3800E+01  0.1260E+03
      5.059  0.3010E+01  0.1264E+03
      5.171  0.2507E+01  0.1267E+03
      5.284  0.2078E+01  0.1269E+03
      5.396  0.1821E+01  0.1271E+03
      5.508  0.1680E+01  0.1273E+03
      5.621  0.1536E+01  0.1275E+03
      5.733  0.1505E+01  0.1277E+03
      5.845  0.1179E+01  0.1278E+03
      5.957  0.6655E+00  0.1279E+03
      6.070  0.1640E+00  0.1280E+03
      6.182  0.1473E-01  0.1280E+03
      6.294  0.1830E+00  0.1280E+03
      6.407  0.3713E+00  0.1280E+03
      6.519  0.5655E+00  0.1281E+03
      6.631  0.7655E+00  0.1282E+03
      6.744  0.9158E+00  0.1283E+03
      6.856  0.1046E+01  0.1284E+03
      6.968  0.1237E+01  0.1285E+03
      7.081  0.1452E+01  0.1287E+03
      7.193  0.1645E+01  0.1288E+03
      7.305  0.1821E+01  0.1290E+03
      7.418  0.2261E+01  0.1292E+03
      7.530  0.3314E+01  0.1296E+03
      7.642  0.3739E+01  0.1300E+03
      7.755  0.6886E+01  0.1305E+03
      7.867  0.9624E+01  0.1316E+03
      7.979  0.1054E+02  0.1327E+03
      8.092  0.7647E+01  0.1337E+03
      8.204  0.6342E+01  0.1345E+03
      8.316  0.5980E+01  0.1352E+03
      8.428  0.5830E+01  0.1358E+03
      8.541  0.5550E+01  0.1365E+03
      8.653  0.4676E+01  0.1371E+03
      8.765  0.3683E+01  0.1376E+03
      8.878  0.3252E+01  0.1379E+03
      8.990  0.3950E+01  0.1383E+03
      9.102  0.4471E+01  0.1388E+03
      9.215  0.4588E+01  0.1393E+03
      9.327  0.4942E+01  0.1399E+03
      9.439  0.4689E+01  0.1404E+03
      9.552  0.4349E+01  0.1409E+03
      9.664  0.4516E+01  0.1414E+03
      9.776  0.4322E+01  0.1419E+03
      9.889  0.4138E+01  0.1424E+03
     10.001  0.3946E+01  0.1428E+03
     10.113  0.3774E+01  0.1433E+03
     10.226  0.3651E+01  0.1437E+03
     10.338  0.3597E+01  0.1441E+03
     10.450  0.3554E+01  0.1445E+03
     10.562  0.3460E+01  0.1449E+03
     10.675  0.3190E+01  0.1453E+03
     10.787  0.3098E+01  0.1456E+03
     10.899  0.3013E+01  0.1460E+03
     11.012  0.2941E+01  0.1463E+03
     11.124  0.2941E+01  0.1466E+03
     11.236  0.2980E+01  0.1470E+03
     11.349  0.3033E+01  0.1473E+03
     11.461  0.3085E+01  0.1476E+03
     11.573  0.3000E+01  0.1480E+03
     11.686  0.3069E+01  0.1483E+03
     11.798  0.2947E+01  0.1487E+03
     11.910  0.3544E+01  0.1490E+03
     12.023  0.3227E+01  0.1494E+03
     12.135  0.2868E+01  0.1497E+03
     12.247  0.2623E+01  0.1501E+03
     12.360  0.2420E+01  0.1503E+03
     12.472  0.2223E+01  0.1506E+03
     12.584  0.2296E+01  0.1508E+03
     12.697  0.2509E+01  0.1511E+03
     12.809  0.3450E+01  0.1514E+03
     12.921  0.3211E+01  0.1518E+03
     13.033  0.2620E+01  0.1522E+03
     13.146  0.3808E+01  0.1525E+03
     13.258  0.4453E+01  0.1530E+03
     13.370  0.5906E+01  0.1535E+03
     13.483  0.9226E+01  0.1544E+03
     13.595  0.8467E+01  0.1554E+03
     13.707  0.7287E+01  0.1563E+03
     13.820  0.8441E+01  0.1571E+03
     13.932  0.9131E+01  0.1581E+03
     14.044  0.1003E+02  0.1592E+03
     14.157  0.1032E+02  0.1604E+03
     14.269  0.1112E+02  0.1616E+03
     14.381  0.1399E+02  0.1630E+03
     14.494  0.1297E+02  0.1645E+03
     14.606  0.8428E+01  0.1657E+03
     14.718  0.5025E+01  0.1665E+03
     14.831  0.3528E+01  0.1670E+03
     14.943  0.2798E+01  0.1673E+03
     15.055  0.2710E+01  0.1676E+03
     15.168  0.1154E+01  0.1678E+03
     15.280  0.5067E+00  0.1679E+03
     15.392  0.3344E+00  0.1679E+03
     15.504  0.2099E+00  0.1680E+03
     15.617  0.1327E+00  0.1680E+03
     15.729  0.7919E-01  0.1680E+03
     15.841  0.3585E-01  0.1680E+03
     15.954  0.2633E-02  0.1680E+03
     16.066  0.0000E+00  0.1680E+03
     16.178  0.0000E+00  0.1680E+03
     16.291  0.0000E+00  0.1680E+03
     16.403  0.0000E+00  0.1680E+03
     16.515  0.0000E+00  0.1680E+03
     16.628  0.0000E+00  0.1680E+03
     16.740  0.0000E+00  0.1680E+03
     16.852  0.0000E+00  0.1680E+03
     16.965  0.0000E+00  0.1680E+03
     17.077  0.0000E+00  0.1680E+03
     17.189  0.0000E+00  0.1680E+03
     17.302  0.0000E+00  0.1680E+03
     17.414  0.0000E+00  0.1680E+03
     17.526  0.0000E+00  0.1680E+03
     17.638  0.0000E+00  0.1680E+03
     17.751  0.0000E+00  0.1680E+03
     17.863  0.0000E+00  0.1680E+03
     17.975  0.0000E+00  0.1680E+03
