   32   32    1    1
  0.7533559E+01  0.4934311E-09  0.4934311E-09  0.1143376E-08  0.5000000E-15
  1.000000000000000E-004
  CAR 
 graphite                                
    128    163     84
 
  0.0000000E+00  0.0000000E+00  0.0000000E+00  0.3086420E-02
    1      -13.719805
    2      -13.297944
    3      -13.296564
    4      -12.791816
    5       -8.268120
    6       -8.265489
    7       -8.262703
    8       -8.038676
    9       -8.035212
   10       -8.034510
   11       -8.034320
   12       -8.033943
   13       -8.029343
   14       -7.922691
   15       -7.922083
   16       -7.921026
   17       -7.011268
   18       -7.008070
   19       -7.006896
   20       -6.992772
   21       -6.989583
   22       -6.988162
   23       -6.988139
   24       -6.987652
   25       -6.982702
   26       -6.770703
   27       -6.767330
   28       -6.764428
   29       -3.155691
   30       -1.344089
   31       -1.341055
   32       -0.250829
   33       -0.248143
   34       -0.243773
   35       -0.139090
   36       -0.135360
   37       -0.135313
   38       -0.134077
   39       -0.132224
   40       -0.127693
   41       -0.020558
   42       -0.018018
   43       -0.013451
   44        0.954148
   45        2.806488
   46        2.808799
   47        2.811272
   48        3.195491
   49        3.207554
   50        3.236272
   51        3.242476
   52        3.247213
   53        3.254902
   54        3.282945
   55        3.294755
   56        3.855271
   57        3.858781
   58        3.859034
   59        3.859117
   60        3.859984
   61        3.864001
   62        4.186129
   63        4.186294
   64        4.186806
   65        7.826070
   66        7.834696
   67        7.835536
   68        7.836237
   69        7.837253
   70        7.845399
   71        8.080288
   72        8.082921
   73        8.084215
   74        8.993645
   75        8.998363
   76        9.001746
   77       12.469209
   78       13.026968
   79       13.031033
   80       13.035682
   81       13.572741
   82       13.575145
   83       13.576045
   84       13.580961
 
  0.1111111E+00  0.1387779E-16  0.0000000E+00  0.6172840E-02
    1      -13.645146
    2      -13.224612
    3      -13.223235
    4      -12.720556
    5       -9.116425
    6       -8.791965
    7       -8.790965
    8       -8.550077
    9       -8.547429
   10       -8.428867
   11       -8.258839
   12       -8.257534
   13       -8.256802
   14       -8.253491
   15       -7.970240
   16       -7.967872
   17       -6.849015
   18       -6.845601
   19       -6.649714
   20       -6.646949
   21       -6.645480
   22       -6.644165
   23       -6.377599
   24       -6.361457
   25       -6.358133
   26       -6.122673
   27       -6.119609
   28       -5.819710
   29       -3.065304
   30       -1.258088
   31       -1.255062
   32       -0.483288
   33       -0.478328
   34       -0.360992
   35       -0.360643
   36       -0.357690
   37       -0.353310
   38       -0.233239
   39       -0.228049
   40       -0.177025
   41       -0.065267
   42       -0.063020
   43        0.051825
   44        1.033825
   45        2.144908
   46        2.666364
   47        2.669157
   48        2.892917
   49        2.946895
   50        2.953256
   51        3.007254
   52        3.031409
   53        3.082151
   54        3.087133
   55        3.138163
   56        3.435776
   57        3.437925
   58        3.807142
   59        3.807871
   60        3.808334
   61        3.812812
   62        4.357899
   63        4.358719
   64        4.430940
   65        7.956446
   66        7.964481
   67        7.965256
   68        7.968982
   69        8.025750
   70        8.028965
   71        8.052198
   72        8.369357
   73        8.375898
   74        9.132461
   75        9.137099
   76        9.669980
   77       12.546311
   78       13.075339
   79       13.369674
   80       13.376334
   81       13.616437
   82       13.618008
   83       13.907652
   84       13.914600
 
  0.2222222E+00  0.1387779E-16  0.0000000E+00  0.6172840E-02
    1      -13.421444
    2      -13.005077
    3      -13.003705
    4      -12.507131
    5      -10.146977
    6       -9.794156
    7       -9.792921
    8       -9.386553
    9       -8.915766
   10       -8.913533
   11       -8.596158
   12       -8.594825
   13       -8.594274
   14       -8.591509
   15       -8.238835
   16       -8.236574
   17       -6.206972
   18       -6.203598
   19       -5.958830
   20       -5.956390
   21       -5.954796
   22       -5.953455
   23       -5.665151
   24       -5.661932
   25       -5.048656
   26       -4.799369
   27       -4.796486
   28       -4.517886
   29       -2.794930
   30       -1.107620
   31       -1.103037
   32       -1.001361
   33       -0.998358
   34       -0.964693
   35       -0.964309
   36       -0.961706
   37       -0.957430
   38       -0.811405
   39       -0.806600
   40        0.038930
   41        0.148726
   42        0.151151
   43        0.264322
   44        1.057747
   45        1.271337
   46        2.040825
   47        2.125744
   48        2.131510
   49        2.217901
   50        2.400328
   51        2.403009
   52        2.557299
   53        2.559429
   54        2.597991
   55        2.666684
   56        2.671281
   57        2.740898
   58        3.687155
   59        3.688015
   60        3.688696
   61        3.693200
   62        4.214595
   63        4.686546
   64        4.688210
   65        7.990403
   66        7.994724
   67        8.287080
   68        8.293981
   69        8.294753
   70        8.297924
   71        8.806460
   72        9.399358
   73        9.403077
   74        9.576276
   75        9.581636
   76       10.862141
   77       12.779452
   78       13.210333
   79       13.741631
   80       13.743247
   81       14.277978
   82       14.307356
   83       14.315716
   84       14.479970
 
  0.3333333E+00  0.8326673E-16  0.0000000E+00  0.6172840E-02
    1      -13.049943
    2      -12.640413
    3      -12.639051
    4      -12.152464
    5      -11.074049
    6      -10.701930
    7      -10.700618
    8      -10.267124
    9       -9.180025
   10       -9.177971
   11       -8.849717
   12       -8.848332
   13       -8.847952
   14       -8.845351
   15       -8.473193
   16       -8.471076
   17       -5.391160
   18       -5.387731
   19       -5.154202
   20       -5.151516
   21       -5.149843
   22       -5.148715
   23       -4.887518
   24       -4.884265
   25       -3.595257
   26       -3.372221
   27       -3.369137
   28       -3.124147
   29       -2.346681
   30       -1.936096
   31       -1.932179
   32       -1.778468
   33       -1.777692
   34       -1.775916
   35       -1.771597
   36       -1.600929
   37       -1.596665
   38       -0.577330
   39       -0.574345
   40        0.000115
   41        0.389719
   42        0.496455
   43        0.499153
   44        0.608964
   45        0.825858
   46        0.947924
   47        0.952884
   48        1.076866
   49        1.614880
   50        1.617319
   51        1.661237
   52        2.023978
   53        2.107143
   54        2.111707
   55        2.175659
   56        2.177955
   57        2.197863
   58        3.562222
   59        3.565141
   60        3.565377
   61        3.566214
   62        3.570966
   63        4.955317
   64        4.957674
   65        8.081219
   66        8.085508
   67        8.672454
   68        8.678374
   69        8.679072
   70        8.681208
   71        9.609061
   72        9.612123
   73       10.215673
   74       11.031382
   75       11.035849
   76       12.185578
   77       13.165485
   78       13.422543
   79       13.943306
   80       13.945020
   81       14.317181
   82       14.371833
   83       14.402376
   84       14.406986
 
  0.4444444E+00  0.2775558E-16  0.0000000E+00  0.6172840E-02
    1      -12.532454
    2      -12.132498
    3      -12.131161
    4      -11.872122
    5      -11.658533
    6      -11.484514
    7      -11.483152
    8      -11.028294
    9       -9.315963
   10       -9.313988
   11       -8.980977
   12       -8.979547
   13       -8.979290
   14       -8.976725
   15       -8.597891
   16       -8.595846
   17       -4.605013
   18       -4.601917
   19       -4.422817
   20       -4.419062
   21       -4.417999
   22       -4.417571
   23       -4.243427
   24       -4.240903
   25       -2.649521
   26       -2.647437
   27       -2.539427
   28       -2.538012
   29       -2.537367
   30       -2.533120
   31       -2.375916
   32       -2.372876
   33       -2.090046
   34       -1.899285
   35       -1.895802
   36       -1.725178
   37       -1.687683
   38       -0.937991
   39       -0.590203
   40       -0.439600
   41       -0.435438
   42       -0.262502
   43        0.018169
   44        0.020601
   45        0.750102
   46        0.752691
   47        0.859162
   48        0.960888
   49        0.964001
   50        1.068632
   51        1.419455
   52        1.514016
   53        1.517433
   54        1.614217
   55        2.053444
   56        2.055576
   57        2.192578
   58        2.843416
   59        3.490308
   60        3.491565
   61        3.492364
   62        3.496959
   63        5.088140
   64        5.090812
   65        8.214895
   66        8.218388
   67        8.934778
   68        8.939929
   69        8.940310
   70        8.941319
   71        9.693734
   72        9.696530
   73       11.853739
   74       12.529408
   75       12.533189
   76       13.503041
   77       13.534605
   78       13.654783
   79       13.679214
   80       13.823441
   81       13.828114
   82       14.091344
   83       14.219105
   84       14.221324
 
 -0.8470329E-21  0.1111111E+00  0.0000000E+00  0.6172840E-02
    1      -13.645148
    2      -13.224613
    3      -13.223238
    4      -12.720558
    5       -9.116354
    6       -8.791910
    7       -8.790828
    8       -8.550291
    9       -8.547501
   10       -8.428687
   11       -8.259208
   12       -8.257543
   13       -8.256798
   14       -8.253815
   15       -7.970284
   16       -7.968347
   17       -6.849068
   18       -6.844040
   19       -6.650094
   20       -6.646956
   21       -6.645470
   22       -6.641078
   23       -6.378880
   24       -6.361636
   25       -6.356571
   26       -6.122774
   27       -6.121683
   28       -5.820770
   29       -3.065299
   30       -1.258083
   31       -1.255055
   32       -0.484507
   33       -0.478568
   34       -0.363066
   35       -0.360720
   36       -0.357688
   37       -0.354109
   38       -0.234395
   39       -0.228411
   40       -0.175470
   41       -0.063084
   42       -0.062205
   43        0.053287
   44        1.033835
   45        2.145820
   46        2.665453
   47        2.668725
   48        2.889971
   49        2.946599
   50        2.946922
   51        3.003409
   52        3.035384
   53        3.087116
   54        3.088875
   55        3.141076
   56        3.437193
   57        3.438700
   58        3.805295
   59        3.807897
   60        3.808227
   61        3.811917
   62        4.357449
   63        4.358457
   64        4.432029
   65        7.957466
   66        7.964341
   67        7.965608
   68        7.972421
   69        8.025662
   70        8.030710
   71        8.050190
   72        8.368243
   73        8.372950
   74        9.132611
   75        9.139367
   76        9.668149
   77       12.546336
   78       13.075904
   79       13.369734
   80       13.375618
   81       13.617056
   82       13.618531
   83       13.909932
   84       13.914103
 
  0.1111111E+00  0.1111111E+00  0.0000000E+00  0.6172840E-02
    1      -13.495953
    2      -13.078158
    3      -13.076784
    4      -12.578188
    5       -9.591584
    6       -9.588202
    7       -9.252544
    8       -9.249651
    9       -9.249603
   10       -9.245558
   11       -8.863143
   12       -8.859695
   13       -8.073017
   14       -7.846819
   15       -7.844381
   16       -7.733808
   17       -6.826275
   18       -6.808888
   19       -6.806233
   20       -6.595713
   21       -5.697765
   22       -5.694196
   23       -5.441745
   24       -5.439671
   25       -5.439645
   26       -5.434277
   27       -5.149431
   28       -5.145637
   29       -2.884903
   30       -1.179904
   31       -1.086693
   32       -1.083684
   33       -1.036936
   34       -1.033582
   35       -0.880836
   36       -0.338490
   37       -0.335383
   38       -0.219235
   39       -0.215522
   40       -0.215473
   41       -0.213130
   42       -0.091323
   43       -0.088351
   44        1.192412
   45        1.671961
   46        1.674528
   47        2.356802
   48        2.414969
   49        2.421318
   50        2.464051
   51        2.733232
   52        2.767386
   53        2.772512
   54        2.823326
   55        3.073196
   56        3.080549
   57        3.083855
   58        3.084446
   59        3.087063
   60        4.122328
   61        4.125970
   62        4.434277
   63        4.469997
   64        4.472267
   65        7.755646
   66        7.762060
   67        8.109829
   68        8.297137
   69        8.299827
   70        8.673791
   71        8.903212
   72        8.905572
   73        8.906296
   74        8.912696
   75       10.167169
   76       10.170264
   77       12.702317
   78       13.459701
   79       13.464226
   80       13.988960
   81       13.993851
   82       13.993981
   83       13.998283
   84       14.266455
 
  0.2222222E+00  0.1111111E+00  0.0000000E+00  0.6172840E-02
    1      -13.198339
    2      -12.786046
    3      -12.784677
    4      -12.294126
    5      -10.572628
    6      -10.210635
    7      -10.209383
    8       -9.937634
    9       -9.790194
   10       -9.589033
   11       -9.587835
   12       -9.187459
   13       -8.156513
   14       -7.874230
   15       -7.872484
   16       -7.595494
   17       -6.494261
   18       -6.306304
   19       -6.303882
   20       -6.037672
   21       -4.902237
   22       -4.661086
   23       -4.660317
   24       -4.392894
   25       -4.298209
   26       -4.063487
   27       -4.060577
   28       -3.801289
   29       -2.525563
   30       -2.104879
   31       -1.940587
   32       -1.937276
   33       -1.755556
   34       -0.878009
   35       -0.746177
   36       -0.743172
   37       -0.740325
   38       -0.739002
   39       -0.591392
   40       -0.048982
   41        0.067580
   42        0.069918
   43        0.191422
   44        0.581506
   45        1.313031
   46        1.379413
   47        1.467838
   48        1.474317
   49        1.506208
   50        1.555050
   51        2.142618
   52        2.144833
   53        2.167298
   54        2.225755
   55        2.231136
   56        2.301050
   57        2.799896
   58        2.802107
   59        3.181903
   60        3.970519
   61        4.322404
   62        4.325907
   63        4.449530
   64        4.858722
   65        7.762138
   66        7.767846
   67        7.888134
   68        8.595819
   69        8.729006
   70        9.443948
   71        9.466481
   72        9.469967
   73       10.257512
   74       10.262041
   75       10.547902
   76       11.427806
   77       13.017360
   78       13.636995
   79       14.156189
   80       14.157786
   81       14.443332
   82       14.632987
   83       14.650488
   84       14.681691
 
  0.3333333E+00  0.1111111E+00  0.0000000E+00  0.6172840E-02
    1      -12.753816
    2      -12.349734
    3      -12.348377
    4      -11.869826
    5      -11.435698
    6      -11.056468
    7      -11.055153
    8      -10.612003
    9      -10.149060
   10       -9.795706
   11       -9.794525
   12       -9.387366
   13       -8.316186
   14       -8.010455
   15       -8.009122
   16       -7.671680
   17       -5.753940
   18       -5.537095
   19       -5.534840
   20       -5.293335
   21       -4.078063
   22       -3.871788
   23       -3.870969
   24       -3.653006
   25       -3.037025
   26       -2.879264
   27       -2.875814
   28       -2.825247
   29       -2.683155
   30       -2.621327
   31       -2.618181
   32       -2.396006
   33       -1.990410
   34       -1.577517
   35       -1.441124
   36       -1.438961
   37       -1.278892
   38       -0.421316
   39       -0.244784
   40       -0.241687
   41        0.099854
   42        0.235573
   43        0.240788
   44        0.367465
   45        0.371679
   46        0.482240
   47        0.484780
   48        0.600653
   49        1.089595
   50        1.230113
   51        1.232601
   52        1.521474
   53        1.606598
   54        1.610998
   55        1.702620
   56        1.967716
   57        2.618982
   58        2.621397
   59        3.141497
   60        3.255807
   61        4.407703
   62        4.411258
   63        4.414865
   64        5.431227
   65        7.450701
   66        7.878384
   67        7.882356
   68        8.725142
   69        9.180247
   70        9.914234
   71        9.916647
   72       10.733625
   73       10.986306
   74       11.737273
   75       11.740974
   76       12.748479
   77       13.482707
   78       13.872982
   79       14.173696
   80       14.310609
   81       14.316543
   82       14.386473
   83       14.388099
   84       14.484780
 
  0.4444444E+00  0.1111111E+00  0.0000000E+00  0.6172840E-02
    1      -12.166532
    2      -12.163399
    3      -11.774190
    4      -11.771571
    5      -11.771398
    6      -11.767592
    7      -11.309368
    8      -11.306126
    9      -10.220049
   10       -9.865227
   11       -9.864052
   12       -9.454658
   13       -8.375507
   14       -8.064809
   15       -8.063615
   16       -7.716173
   17       -5.208632
   18       -5.051302
   19       -5.049263
   20       -4.921489
   21       -3.554107
   22       -3.473866
   23       -3.420284
   24       -3.418998
   25       -3.416143
   26       -3.415589
   27       -3.305853
   28       -3.279227
   29       -1.936469
   30       -1.878525
   31       -1.874260
   32       -1.753979
   33       -1.337677
   34       -1.334445
   35       -1.286788
   36       -1.284168
   37       -1.168380
   38       -1.168293
   39       -1.167922
   40       -1.160720
   41       -0.985027
   42       -0.981210
   43        0.423657
   44        0.427418
   45        0.428285
   46        0.431592
   47        0.902156
   48        0.908220
   49        0.999684
   50        1.010043
   51        1.010095
   52        1.011739
   53        1.016715
   54        1.114154
   55        1.118988
   56        2.556556
   57        2.558658
   58        2.560869
   59        2.563744
   60        3.114346
   61        4.389697
   62        4.432955
   63        4.435518
   64        5.740407
   65        7.203821
   66        7.944712
   67        7.947013
   68        8.781624
   69        9.388759
   70       10.088869
   71       10.091001
   72       10.765565
   73       12.619506
   74       12.622957
   75       13.179872
   76       13.181507
   77       13.183480
   78       13.189706
   79       13.988023
   80       13.991103
   81       14.059135
   82       14.064165
   83       14.312993
   84       14.315148
 
 -0.4444444E+00  0.1111111E+00  0.0000000E+00  0.6172840E-02
    1      -12.753920
    2      -12.349837
    3      -12.348494
    4      -11.869921
    5      -11.435528
    6      -11.056309
    7      -11.054969
    8      -10.611824
    9      -10.149455
   10       -9.795925
   11       -9.794755
   12       -9.387584
   13       -8.316057
   14       -8.010255
   15       -8.009132
   16       -7.671642
   17       -5.751165
   18       -5.533790
   19       -5.533116
   20       -5.291122
   21       -4.080883
   22       -3.875176
   23       -3.872841
   24       -3.655413
   25       -3.039719
   26       -2.881274
   27       -2.879712
   28       -2.825132
   29       -2.686280
   30       -2.621467
   31       -2.617912
   32       -2.395865
   33       -1.990443
   34       -1.574516
   35       -1.438823
   36       -1.434640
   37       -1.275367
   38       -0.421274
   39       -0.244816
   40       -0.241707
   41        0.098925
   42        0.235103
   43        0.238661
   44        0.365502
   45        0.371686
   46        0.481890
   47        0.484878
   48        0.600640
   49        1.089722
   50        1.230112
   51        1.232611
   52        1.523374
   53        1.608851
   54        1.611478
   55        1.703665
   56        1.967750
   57        2.619041
   58        2.621749
   59        3.140907
   60        3.255738
   61        4.407914
   62        4.411152
   63        4.413640
   64        5.430465
   65        7.453442
   66        7.881176
   67        7.883655
   68        8.725797
   69        9.177816
   70        9.912274
   71        9.915549
   72       10.733253
   73       10.986696
   74       11.737431
   75       11.741537
   76       12.749036
   77       13.482908
   78       13.871978
   79       14.172945
   80       14.312455
   81       14.317391
   82       14.385164
   83       14.387438
   84       14.487107
 
 -0.3333333E+00  0.1111111E+00  0.0000000E+00  0.6172840E-02
    1      -13.198418
    2      -12.786120
    3      -12.784761
    4      -12.294205
    5      -10.572429
    6      -10.210446
    7      -10.209156
    8       -9.938070
    9       -9.789995
   10       -9.589468
   11       -9.588297
   12       -9.187884
   13       -8.156391
   14       -7.873830
   15       -7.872806
   16       -7.595536
   17       -6.491022
   18       -6.302491
   19       -6.301672
   20       -6.034861
   21       -4.905174
   22       -4.664463
   23       -4.662649
   24       -4.395644
   25       -4.298403
   26       -4.063699
   27       -4.060637
   28       -3.801382
   29       -2.525589
   30       -2.108526
   31       -1.943165
   32       -1.942138
   33       -1.759345
   34       -0.873936
   35       -0.746145
   36       -0.743156
   37       -0.737428
   38       -0.733617
   39       -0.587118
   40       -0.049046
   41        0.067428
   42        0.070045
   43        0.191450
   44        0.581545
   45        1.313250
   46        1.376939
   47        1.466414
   48        1.469617
   49        1.506237
   50        1.551157
   51        2.142561
   52        2.144914
   53        2.171513
   54        2.230628
   55        2.232594
   56        2.303530
   57        2.800012
   58        2.802855
   59        3.180638
   60        3.970416
   61        4.322140
   62        4.323359
   63        4.450377
   64        4.858579
   65        7.766758
   66        7.770584
   67        7.891383
   68        8.597662
   69        8.725249
   70        9.444298
   71        9.463210
   72        9.467708
   73       10.257619
   74       10.262511
   75       10.546454
   76       11.428268
   77       13.017466
   78       13.636369
   79       14.155457
   80       14.157309
   81       14.448497
   82       14.639709
   83       14.649263
   84       14.687381
 
 -0.2222222E+00  0.1111111E+00  0.0000000E+00  0.6172840E-02
    1      -13.496000
    2      -13.078203
    3      -13.076834
    4      -12.578236
    5       -9.590490
    6       -9.589663
    7       -9.250624
    8       -9.249727
    9       -9.249334
   10       -9.248462
   11       -8.861993
   12       -8.861257
   13       -8.073104
   14       -7.846101
   15       -7.845279
   16       -7.733355
   17       -6.823065
   18       -6.804870
   19       -6.804105
   20       -6.592526
   21       -5.699311
   22       -5.695603
   23       -5.442906
   24       -5.441246
   25       -5.439872
   26       -5.436949
   27       -5.150787
   28       -5.147203
   29       -2.884919
   30       -1.184001
   31       -1.086707
   32       -1.083692
   33       -1.039814
   34       -1.038984
   35       -0.885031
   36       -0.337657
   37       -0.331691
   38       -0.217705
   39       -0.215362
   40       -0.212400
   41       -0.208719
   42       -0.090556
   43       -0.084564
   44        1.192420
   45        1.672926
   46        1.674041
   47        2.351074
   48        2.411862
   49        2.412263
   50        2.457981
   51        2.739797
   52        2.775669
   53        2.776526
   54        2.829020
   55        3.071461
   56        3.082088
   57        3.083901
   58        3.084268
   59        3.087080
   60        4.122089
   61        4.122921
   62        4.434601
   63        4.470468
   64        4.472801
   65        7.760947
   66        7.765639
   67        8.112359
   68        8.293118
   69        8.299655
   70        8.677660
   71        8.899355
   72        8.904678
   73        8.905594
   74        8.911453
   75       10.165386
   76       10.169857
   77       12.702375
   78       13.461267
   79       13.467361
   80       13.992177
   81       13.993914
   82       13.997852
   83       14.000287
   84       14.260723
 
 -0.1111111E+00  0.1111111E+00  0.0000000E+00  0.6172840E-02
    1      -13.645163
    2      -13.224628
    3      -13.223254
    4      -12.720574
    5       -9.117065
    6       -8.792651
    7       -8.791386
    8       -8.549818
    9       -8.547180
   10       -8.429282
   11       -8.259100
   12       -8.256704
   13       -8.256553
   14       -8.253734
   15       -7.970278
   16       -7.967903
   17       -6.846124
   18       -6.844070
   19       -6.646063
   20       -6.645667
   21       -6.645373
   22       -6.641312
   23       -6.381518
   24       -6.359056
   25       -6.356897
   26       -6.125715
   27       -6.124012
   28       -5.823322
   29       -3.065304
   30       -1.258087
   31       -1.255057
   32       -0.485127
   33       -0.482357
   34       -0.364231
   35       -0.360724
   36       -0.360672
   37       -0.358748
   38       -0.234919
   39       -0.232261
   40       -0.170995
   41       -0.059910
   42       -0.056247
   43        0.057907
   44        1.033838
   45        2.146605
   46        2.665130
   47        2.667750
   48        2.883294
   49        2.938008
   50        2.943459
   51        2.998246
   52        3.040669
   53        3.090601
   54        3.097577
   55        3.147794
   56        3.437432
   57        3.440649
   58        3.804300
   59        3.807892
   60        3.808231
   61        3.809969
   62        4.357282
   63        4.358388
   64        4.432893
   65        7.962716
   66        7.965783
   67        7.966755
   68        7.973824
   69        8.028713
   70        8.030787
   71        8.046102
   72        8.363534
   73        8.369420
   74        9.136335
   75        9.139779
   76        9.664762
   77       12.546352
   78       13.080997
   79       13.367878
   80       13.372117
   81       13.621784
   82       13.623973
   83       13.904287
   84       13.910675
 
 -0.3388132E-20  0.2222222E+00  0.0000000E+00  0.6172840E-02
    1      -13.421451
    2      -13.005081
    3      -13.003715
    4      -12.507139
    5      -10.147020
    6       -9.794176
    7       -9.792981
    8       -9.386590
    9       -8.916245
   10       -8.913113
   11       -8.597072
   12       -8.594829
   13       -8.594270
   14       -8.590764
   15       -8.239276
   16       -8.236279
   17       -6.207285
   18       -6.202045
   19       -5.959597
   20       -5.956397
   21       -5.954757
   22       -5.950297
   23       -5.665528
   24       -5.660325
   25       -5.049687
   26       -4.799472
   27       -4.798445
   28       -4.518934
   29       -2.794909
   30       -1.108951
   31       -1.103247
   32       -1.001336
   33       -0.998327
   34       -0.966902
   35       -0.964536
   36       -0.961703
   37       -0.958026
   38       -0.812660
   39       -0.806844
   40        0.040523
   41        0.151085
   42        0.151892
   43        0.265836
   44        1.058250
   45        1.271367
   46        2.038345
   47        2.125729
   48        2.126203
   49        2.215026
   50        2.399423
   51        2.402790
   52        2.557922
   53        2.560084
   54        2.601077
   55        2.671256
   56        2.672308
   57        2.743467
   58        3.685146
   59        3.688135
   60        3.688661
   61        3.692534
   62        4.215595
   63        4.685825
   64        4.687779
   65        7.990580
   66        7.996671
   67        8.287984
   68        8.293866
   69        8.295093
   70        8.301536
   71        8.804491
   72        9.399312
   73        9.405295
   74        9.575389
   75        9.579469
   76       10.860836
   77       12.779530
   78       13.210999
   79       13.742441
   80       13.743732
   81       14.278543
   82       14.307445
   83       14.315298
   84       14.495517
 
  0.1111111E+00  0.2222222E+00  0.0000000E+00  0.6172840E-02
    1      -13.198344
    2      -12.786048
    3      -12.784685
    4      -12.294131
    5      -10.572688
    6      -10.210665
    7      -10.209470
    8       -9.937590
    9       -9.790252
   10       -9.589014
   11       -9.587776
   12       -9.187430
   13       -8.156498
   14       -7.874228
   15       -7.872467
   16       -7.595490
   17       -6.494210
   18       -6.306167
   19       -6.303881
   20       -6.037581
   21       -4.901086
   22       -4.660899
   23       -4.658190
   24       -4.391711
   25       -4.299330
   26       -4.063612
   27       -4.062735
   28       -3.802466
   29       -2.525547
   30       -2.104990
   31       -1.940587
   32       -1.937466
   33       -1.755638
   34       -0.879600
   35       -0.746170
   36       -0.743206
   37       -0.742109
   38       -0.740253
   39       -0.592915
   40       -0.047303
   41        0.069856
   42        0.070905
   43        0.193013
   44        0.581909
   45        1.312476
   46        1.378105
   47        1.467842
   48        1.471725
   49        1.506249