    4    4  200    1
  0.8119452E+01  0.2466437E-09  0.2466437E-09  0.6167528E-09  0.5000000E-15
  1.000000000000000E-004
  CAR 
 graphite                                
     16    215     12
 
  0.0000000E+00  0.0000000E+00  0.0000000E+00  0.8680556E-03
    1      -14.298609
    2      -13.740032
    3       -3.456884
    4       -0.506001
    5        2.452230
    6        2.468761
    7        2.495747
    8        2.510919
    9       10.617646
   10       13.769781
   11       13.776069
   12       13.877518
 
  0.8333333E-01 -0.6938894E-17  0.0000000E+00  0.3472222E-02
    1      -14.131759
    2      -13.578217
    3       -3.254448
    4       -0.321967
    5        1.796207
    6        1.870437
    7        2.107079
    8        2.171050
    9       10.807665
   10       13.812667
   11       13.970382
   12       14.470344
 
  0.1666667E+00 -0.1387779E-16  0.0000000E+00  0.3472222E-02
    1      -13.633170
    2      -13.094779
    3       -2.651350
    4        0.123699
    5        0.222820
    6        0.259185
    7        1.300309
    8        1.390234
    9       11.379842
   10       13.671390
   11       14.001943
   12       14.478736
 
  0.2500000E+00  0.0000000E+00  0.0000000E+00  0.3472222E-02
    1      -12.808681
    2      -12.295229
    3       -2.012547
    4       -1.810073
    5       -1.661731
    6        0.411558
    7        0.517565
    8        1.100552
    9       12.203428
   10       12.314513
   11       13.232178
   12       13.305989
 
  0.3333333E+00 -0.2775558E-16  0.0000000E+00  0.3472222E-02
    1      -11.670851
    2      -11.191709
    3       -4.251892
    4       -3.984864
    5       -0.326593
    6       -0.321586
    7       -0.211767
    8        2.231005
    9        9.737494
   10       11.132312
   11       12.857784
   12       13.361918
 
  0.4166667E+00 -0.2775558E-16  0.0000000E+00  0.3472222E-02
    1      -10.249302
    2       -9.818502
    3       -6.380973
    4       -6.062152
    5       -0.801856
    6       -0.682259
    7        1.260545
    8        3.305561
    9        7.667211
   10        9.124227
   11       12.598500
   12       13.278257
 
  0.5000000E+00  0.0000000E+00  0.0000000E+00  0.1736111E-02
    1       -8.903354
    2       -8.689708
    3       -7.780021
    4       -7.623499
    5       -0.964840
    6       -0.843813
    7        2.416361
    8        3.451640
    9        7.066471
   10        7.923046
   11       12.501993
   12       13.212710
 
  0.8333333E-01  0.8333333E-01  0.0000000E+00  0.1736111E-02
    1      -13.798837
    2      -13.255415
    3       -2.851402
    4        0.042879
    5        0.760450
    6        0.829495
    7        1.435846
    8        1.488722
    9       11.191795
   10       14.085575
   11       14.282062
   12       15.033876
 
  0.1666667E+00  0.8333333E-01  0.0000000E+00  0.3472222E-02
    1      -13.137018
    2      -12.613632
    3       -2.053965
    4       -0.990133
    5       -0.848283
    6        0.415650
    7        0.511165
    8        0.756541
    9       11.960611
   10       13.165861
   11       13.917139
   12       14.127383
 
  0.2500000E+00  0.8333333E-01  0.0000000E+00  0.3472222E-02
    1      -12.155418
    2      -11.661628
    3       -3.107167
    4       -2.884545
    5       -0.884841
    6       -0.487864
    7       -0.361118
    8        1.773653
    9       10.858700
   10       11.958344
   11       13.076669
   12       13.803930
 
  0.3333333E+00  0.8333333E-01  0.0000000E+00  0.3472222E-02
    1      -10.872915
    2      -10.419264
    3       -5.266262
    4       -4.977733
    5       -1.130827
    6       -0.990318
    7        0.597214
    8        2.949845
    9        8.559721
   10        9.944610
   11       13.420821
   12       14.043984
 
  0.4166667E+00  0.8333333E-01  0.0000000E+00  0.3472222E-02
    1       -9.357355
    2       -8.978133
    3       -7.218469
    4       -6.906796
    5       -1.463076
    6       -1.316981
    7        2.163062
    8        3.654317
    9        7.133553
   10        8.194059
   11       13.236871
   12       13.958229
 
  0.5000000E+00  0.8333333E-01  0.0000000E+00  0.3472222E-02
    1       -9.359780
    2       -8.980381
    3       -7.215817
    4       -6.903800
    5       -1.464043
    6       -1.317813
    7        2.161473
    8        3.654432
    9        7.132129
   10        8.196969
   11       13.237865
   12       13.959237
 
 -0.4166667E+00  0.8333333E-01  0.0000000E+00  0.3472222E-02
    1      -10.875095
    2      -10.421436
    3       -5.262780
    4       -4.974085
    5       -1.133299
    6       -0.992657
    7        0.595311
    8        2.948447
    9        8.559063
   10        9.948281
   11       13.423724
   12       14.046102
 
 -0.3333333E+00  0.8333333E-01  0.0000000E+00  0.3472222E-02
    1      -12.157122
    2      -11.663322
    3       -3.103833
    4       -2.881010
    5       -0.886474
    6       -0.491133
    7       -0.364270
    8        1.772131
    9       10.856658
   10       11.962007
   11       13.074563
   12       13.808268
 
 -0.2500000E+00  0.8333333E-01  0.0000000E+00  0.3472222E-02
    1      -13.138231
    2      -12.614837
    3       -2.055191
    4       -0.989129
    5       -0.847156
    6        0.414468
    7        0.509672
    8        0.755339
    9       11.958849
   10       13.161229
   11       13.920536
   12       14.133118
 
 -0.1666667E+00  0.8333333E-01  0.0000000E+00  0.3472222E-02
    1      -13.799564
    2      -13.256134
    3       -2.852157
    4        0.042125
    5        0.752305
    6        0.822994
    7        1.443101
    8        1.495892
    9       11.190667
   10       14.092236
   11       14.290936
   12       15.041090
 
 -0.8333333E-01  0.8333333E-01  0.0000000E+00  0.1736111E-02
    1      -14.132000
    2      -13.578456
    3       -3.254703
    4       -0.322223
    5        1.783382
    6        1.858392
    7        2.119920
    8        2.183339
    9       10.807267
   10       13.816723
   11       13.974935
   12       14.471584
 
  0.1666667E+00  0.1666667E+00  0.0000000E+00  0.1736111E-02
    1      -12.318087
    2      -11.819376
    3       -2.313399
    4       -2.201953
    5       -1.074676
    6       -0.937071
    7       -0.855459
    8        1.617169
    9       11.416085
   10       12.206087
   11       12.928404
   12       15.303684
 
  0.2500000E+00  0.1666667E+00  0.0000000E+00  0.3472222E-02
    1      -11.190476
    2      -10.726516
    3       -4.090745
    4       -3.882342
    5       -2.030460
    6       -1.882608
    7        0.252027
    8        2.734691
    9        9.378945
   10       10.370127
   11       14.239478
   12       15.371027
 
  0.3333333E+00  0.1666667E+00  0.0000000E+00  0.3472222E-02
    1       -9.788431
    2       -9.372965
    3       -6.042539
    4       -5.753604
    5       -2.629237
    6       -2.443285
    7        1.827123
    8        3.846769
    9        7.487327
   10        8.600311
   11       15.076368
   12       15.755668
 
  0.4166667E+00  0.1666667E+00  0.0000000E+00  0.3472222E-02
    1       -8.475942
    2       -8.269437
    3       -7.374524
    4       -7.236791
    5       -2.820363
    6       -2.625439
    7        3.010939
    8        4.021222
    9        7.047027
   10        7.336059
   11       14.982700
   12       15.841547
 
  0.5000000E+00  0.1666667E+00  0.0000000E+00  0.3472222E-02
    1       -9.793195
    2       -9.377713
    3       -6.036259
    4       -5.746800
    5       -2.631855
    6       -2.445686
    7        1.823390
    8        3.844877
    9        7.483609
   10        8.608744
   11       15.079225
   12       15.752191
 
 -0.4166667E+00  0.1666667E+00  0.0000000E+00  0.3472222E-02
    1      -11.194365
    2      -10.730404
    3       -4.085049
    4       -3.875969
    5       -2.033937
    6       -1.885840
    7        0.248526
    8        2.731424
    9        9.373727
   10       10.378946
   11       14.234111
   12       15.377004
 
 -0.3333333E+00  0.1666667E+00  0.0000000E+00  0.3472222E-02
    1      -12.320974
    2      -11.822270
    3       -2.315261
    4       -2.201235
    5       -1.077502
    6       -0.935522
    7       -0.852451
    8        1.614306
    9       11.406955
   10       12.213766
   11       12.924367
   12       15.323300
 
 -0.2500000E+00  0.1666667E+00  0.0000000E+00  0.3472222E-02
    1      -13.138953
    2      -12.615557
    3       -2.055927
    4       -1.000407
    5       -0.856996
    6        0.426173
    7        0.522152
    8        0.754519
    9       11.957906
   10       13.155851
   11       13.920557
   12       14.153044
 
 -0.1666667E+00  0.1666667E+00  0.0000000E+00  0.1736111E-02
    1      -13.634134
    2      -13.095738
    3       -2.652352
    4        0.110234
    5        0.221785
    6        0.246395
    7        1.314840
    8        1.404446
    9       11.378445
   10       13.690075
   11       14.019288
   12       14.471266
 
  0.2500000E+00  0.2500000E+00  0.0000000E+00  0.1736111E-02
    1       -9.939326
    2       -9.516387
    3       -5.107898
    4       -4.957201
    5       -3.490446
    6       -3.380032
    7        1.697058
    8        3.889948
    9        7.769649
   10        8.735608
   11       15.675577
   12       17.182740
 
  0.3333333E+00  0.2500000E+00  0.0000000E+00  0.3472222E-02
    1       -8.480622
    2       -8.131537
    3       -6.567180
    4       -6.330346
    5       -4.244225
    6       -4.054729
    7        3.276180
    8        4.775988
    9        6.436944
   10        7.286655
   11       16.991803
   12       17.263746
 
  0.4166667E+00  0.2500000E+00  0.0000000E+00  0.3472222E-02
    1       -8.487963
    2       -8.138535
    3       -6.560145
    4       -6.321200
    5       -4.245359
    6       -4.055575
    7        3.271753
    8        4.776365
    9        6.426666
   10        7.299553
   11       16.991026
   12       17.251281
 
  0.5000000E+00  0.2500000E+00  0.0000000E+00  0.3472222E-02
    1       -9.945826
    2       -9.523035
    3       -5.104627
    4       -4.950396
    5       -3.490126
    6       -3.377525
    7        1.691898
    8        3.884541
    9        7.761524
   10        8.748993
   11       15.666192
   12       17.204568
 
 -0.4166667E+00  0.2500000E+00  0.0000000E+00  0.3472222E-02
    1      -11.195589
    2      -10.731652
    3       -4.095245
    4       -3.884792
    5       -2.022384
    6       -1.873367
    7        0.247479
    8        2.729496
    9        9.369245
   10       10.378797
   11       14.232875
   12       15.408181
 
 -0.3333333E+00  0.2500000E+00  0.0000000E+00  0.3472222E-02
    1      -12.159054
    2      -11.665260
    3       -3.116566
    4       -2.893095
    5       -0.888324
    6       -0.474578
    7       -0.347734
    8        1.769702
    9       10.848404
   10       11.960446
   11       13.073139
   12       13.836780
 
 -0.2500000E+00  0.2500000E+00  0.0000000E+00  0.1736111E-02
    1      -12.810855
    2      -12.297391
    3       -2.025280
    4       -1.822261
    5       -1.663900
    6        0.427784
    7        0.533559
    8        1.098120
    9       12.193454
   10       12.312195
   11       13.231200
   12       13.333512
 
  0.3333333E+00  0.3333333E+00  0.0000000E+00  0.1736111E-02
    1       -7.283712
    2       -7.097809
    3       -7.094724
    4       -6.908180
    5       -5.034716
    6       -5.032999
    7        4.446632
    8        5.377754
    9        5.391489
   10        6.608542
   11       17.015168
   12       17.046933
 
  0.4166667E+00  0.3333333E+00  0.0000000E+00  0.3472222E-02
    1       -8.490466
    2       -8.142262
    3       -6.565095
    4       -6.326477
    5       -4.236921
    6       -4.046062
    7        3.272265
    8        4.763595
    9        6.432859
   10        7.300419
   11       17.015361
   12       17.261927
 
  0.5000000E+00  0.3333333E+00  0.0000000E+00  0.3472222E-02
    1       -9.796349
    2       -9.381195
    3       -6.045836
    4       -5.756162
    5       -2.616990
    6       -2.430752
    7        1.821784
    8        3.836724
    9        7.482082
   10        8.607195
   11       15.112781
   12       15.766990
 
 -0.4166667E+00  0.3333333E+00  0.0000000E+00  0.3472222E-02
    1      -10.878792
    2      -10.425241
    3       -5.273689
    4       -4.984684
    5       -1.115403
    6       -0.974945
    7        0.592363
    8        2.942424
    9        8.552789
   10        9.944522
   11       13.454994
   12       14.074731
 
 -0.3333333E+00  0.3333333E+00  0.0000000E+00  0.1736111E-02
    1      -11.674735
    2      -11.195623
    3       -4.262753
    4       -3.995305
    5       -0.325131
    6       -0.309028
    7       -0.194408
    8        2.226117
    9        9.728654
   10       11.129157
   11       12.886881
   12       13.383790
 
  0.4166667E+00  0.4166667E+00  0.0000000E+00  0.1736111E-02
    1       -8.484978
    2       -8.283056
    3       -7.373945
    4       -7.239167
    5       -2.805960
    6       -2.611028
    7        3.012807
    8        3.999178
    9        7.056671
   10        7.331849
   11       15.019579
   12       15.879328
 
  0.5000000E+00  0.4166667E+00  0.0000000E+00  0.3472222E-02
    1       -9.366415
    2       -8.988398
    3       -7.222075
    4       -6.910887
    5       -1.446109
    6       -1.300140
    7        2.160057
    8        3.637477
    9        7.136485
   10        8.189759
   11       13.272282
   12       13.993755
 
 -0.4166667E+00  0.4166667E+00  0.0000000E+00  0.1736111E-02
    1      -10.255577
    2       -9.825109
    3       -6.388893
    4       -6.069965
    5       -0.783460
    6       -0.664052
    7        1.256462
    8        3.294674
    9        7.664601
   10        9.118707
   11       12.631811
   12       13.311390
 
  0.5000000E+00  0.5000000E+00  0.0000000E+00  0.8680556E-03
    1       -8.913113
    2       -8.704206
    3       -7.780471
    4       -7.627182
    5       -0.946162
    6       -0.825322
    7        2.417817
    8        3.428363
    9        7.076318
   10        7.911100
   11       12.536091
   12       13.246800
 
  0.0000000E+00  0.0000000E+00  0.1250000E+00  0.1736111E-02
    1      -14.279543
    2      -13.763897
    3       -3.363914
    4       -0.651388
    5        2.453873
    6        2.470353
    7        2.494079
    8        2.509303
    9       10.874072
   10       13.773022
   11       13.779332
   12       13.872174
 
  0.8333333E-01 -0.6938894E-17  0.1250000E+00  0.6944444E-02
    1      -14.112835
    2      -13.601856
    3       -3.162038
    4       -0.466209
    5        1.798957
    6        1.867586
    7        2.109468
    8        2.168559
    9       11.061274
   10       13.816469
   11       13.964718
   12       14.473266
 
  0.1666667E+00 -0.1387779E-16  0.1250000E+00  0.6944444E-02
    1      -13.614673
    2      -13.117643
    3       -2.560494
    4        0.080271
    5        0.130732
    6        0.254055
    7        1.303709
    8        1.386786
    9       11.623637
   10       13.674665
   11       13.985434
   12       14.513237
 
  0.2500000E+00  0.0000000E+00  0.1250000E+00  0.6944444E-02
    1      -12.790981
    2      -12.316855
    3       -2.005203
    4       -1.818345
    5       -1.573271
    6        0.415615
    7        0.513607
    8        0.967053
    9       12.193701
   10       12.575586
   11       13.170933
   12       13.331631
 
  0.3333333E+00 -0.2775558E-16  0.1250000E+00  0.6944444E-02
    1      -11.654196
    2      -11.211741
    3       -4.242265
    4       -3.995503
    5       -0.322190
    6       -0.238666
    7       -0.216206
    8        2.111767
    9        9.772575
   10       11.063841
   11       12.888568
   12       13.380073
 
  0.4166667E+00 -0.2775558E-16  0.1250000E+00  0.6944444E-02
    1      -10.234141
    2       -9.836240
    3       -6.369743
    4       -6.075211
    5       -0.797384
    6       -0.686934
    7        1.333807
    8        3.226069
    9        7.686551
   10        9.041279
   11       12.623833
   12       13.252475
 
  0.5000000E+00  0.0000000E+00  0.1250000E+00  0.3472222E-02
    1       -8.892940
    2       -8.694215
    3       -7.779971
    4       -7.633966
    5       -0.960281
    6       -0.848490
    7        2.473502
    8        3.444103
    9        7.030963
   10        7.838075
   11       12.527356
   12       13.184750
 
  0.8333333E-01  0.8333333E-01  0.1250000E+00  0.3472222E-02
    1      -13.780189
    2      -13.278485
    3       -2.759977
    4       -0.099075
    5        0.763465
    6        0.827298
    7        1.437425
    8        1.486355
    9       11.439804
   10       14.084275
   11       14.273349
   12       15.053704
 
  0.1666667E+00  0.8333333E-01  0.1250000E+00  0.6944444E-02
    1      -13.119028
    2      -12.635784
    3       -1.964975
    4       -0.984802
    5       -0.853637
    6        0.418905
    7        0.507237
    8        0.620010
    9       12.192763
   10       13.188080
   11       13.868049
   12       14.151527
 
  0.2500000E+00  0.8333333E-01  0.1250000E+00  0.6944444E-02
    1      -12.138332
    2      -11.682373
    3       -3.099080
    4       -2.893522
    5       -0.799617
    6       -0.483210
    7       -0.366133
    8        1.646893
    9       10.889073
   10       11.907183
   11       13.286930
   12       13.829806
 
  0.3333333E+00  0.8333333E-01  0.1250000E+00  0.6944444E-02
    1      -10.856963
    2      -10.438110
    3       -5.255949
    4       -4.989372
    5       -1.125646
    6       -0.995782
    7        0.675814
    8        2.845031
    9        8.593357
   10        9.877347
   11       13.447670
   12       14.029594
 
  0.4166667E+00  0.8333333E-01  0.1250000E+00  0.6944444E-02
    1       -9.343683
    2       -8.993282
    3       -7.208161
    4       -6.920072
    5       -1.457790
    6       -1.322684
    7        2.227494
    8        3.617987
    9        7.120324
   10        8.117418
   11       13.261979
   12       13.929058
 
  0.5000000E+00  0.8333333E-01  0.1250000E+00  0.6944444E-02
    1       -9.346097
    2       -8.995496
    3       -7.205490
    4       -6.917084
    5       -1.458607
    6       -1.323516
    7        2.225943
    8        3.617975
    9        7.119152
   10        8.120184
   11       13.262966
   12       13.930037
 
 -0.4166667E+00  0.8333333E-01  0.1250000E+00  0.6944444E-02
    1      -10.859221
    2      -10.440288
    3       -5.252438
    4       -4.985752
    5       -1.128144
    6       -0.998118
    7        0.673919
    8        2.843583
    9        8.592908
   10        9.880831
   11       13.450540
   12       14.031886
 
 -0.3333333E+00  0.8333333E-01  0.1250000E+00  0.6944444E-02
    1      -12.140027
    2      -11.684065
    3       -3.095740
    4       -2.889959
    5       -0.801254
    6       -0.486456
    7       -0.369287
    8        1.645361
    9       10.887317
   10       11.910589
   11       13.284866
   12       13.833999
 
 -0.2500000E+00  0.8333333E-01  0.1250000E+00  0.6944444E-02
    1      -13.120241
    2      -12.636990
    3       -1.966197
    4       -0.983793
    5       -0.852512
    6        0.417719
    7        0.505745
    8        0.618800
    9       12.191079
   10       13.183768
   11       13.871266
   12       14.157233
 
 -0.1666667E+00  0.8333333E-01  0.1250000E+00  0.6944444E-02
    1      -13.780922
    2      -13.279214
    3       -2.760711
    4       -0.099828
    5        0.755284
    6        0.820660
    7        1.444683
    8        1.493533
    9       11.438668
   10       14.090950
   11       14.282154
   12       15.054297
 
 -0.8333333E-01  0.8333333E-01  0.1250000E+00  0.3472222E-02
    1      -14.113083
    2      -13.602097
    3       -3.162293
    4       -0.466465
    5        1.786159
    6        1.855464
    7        2.122291
    8        2.180869
    9       11.060868
   10       13.820538
   11       13.969266
   12       14.474380
 
  0.1666667E+00  0.1666667E+00  0.1250000E+00  0.3472222E-02
    1      -12.300801
    2      -11.840332
    3       -2.308803
    4       -2.205894
    5       -0.988534
    6       -0.934799
    7       -0.859346
    8        1.488022
    9       11.444857
   10       12.168063
   11       13.153647
   12       15.317807
 
  0.2500000E+00  0.1666667E+00  0.1250000E+00  0.6944444E-02
    1      -11.174321
    2      -10.745886
    3       -4.082976
    4       -3.890437
    5       -2.025551
    6       -1.888878
    7        0.332953
    8        2.619351
    9        9.413923
   10       10.329520
   11       14.423700
   12       15.390771
 
  0.3333333E+00  0.1666667E+00  0.1250000E+00  0.6944444E-02
    1       -9.773624
    2       -9.390072
    3       -6.032347
    4       -5.765234
    5       -2.622639
    6       -2.450809
    7        1.898867
    8        3.766995
    9        7.510788
   10        8.546439
   11       15.103070
   12       15.749482
 
  0.4166667E+00  0.1666667E+00  0.1250000E+00  0.6944444E-02
    1       -8.465932
    2       -8.273925
    3       -7.374624
    4       -7.245983
    5       -2.813387
    6       -2.633421
    7        3.068138
    8        4.016771
    9        7.000658
   10        7.290679
   11       15.004995
   12       15.794994
 
  0.5000000E+00  0.1666667E+00  0.1250000E+00  0.6944444E-02
    1       -9.778374
    2       -9.394882
    3       -6.026049
    4       -5.758451
    5       -2.625228
    6       -2.453146
    7        1.895171
    8        3.764911
    9        7.507665
   10        8.554360
   11       15.105840
   12       15.747142
 
 -0.4166667E+00  0.1666667E+00  0.1250000E+00  0.6944444E-02
    1      -11.178211
    2      -10.749774
    3       -4.077252
    4       -3.884099
    5       -2.029012
    6       -1.892121
    7        0.329458
    8        2.616052
    9        9.409211
   10       10.337687
   11       14.418053
   12       15.396667
 
 -0.3333333E+00  0.1666667E+00  0.1250000E+00  0.6944444E-02
    1      -12.303715
    2      -11.843235
    3       -2.310547
    4       -2.205208
    5       -0.991395
    6       -0.933224
    7       -0.856580
    8        1.485162
    9       11.436285
   10       12.174998
   11       13.149572
   12       15.337199
 
 -0.2500000E+00  0.1666667E+00  0.1250000E+00  0.6944444E-02
    1      -13.120964
    2      -12.637708
    3       -1.966935
    4       -0.994979
    5       -0.862360
    6        0.429459
    7        0.518207
    8        0.617992
    9       12.189965
   10       13.179090
   11       13.871824
   12       14.176328
 
 -0.1666667E+00  0.1666667E+00  0.1250000E+00  0.3472222E-02
    1      -13.615638
    2      -13.118601
    3       -2.561495
    4        0.078795
    5        0.117710
    6        0.241259
    7        1.318228
    8        1.401010
    9       11.622224
   10       13.693149
   11       14.002719
   12       14.506197
 
  0.2500000E+00  0.2500000E+00  0.1250000E+00  0.3472222E-02
    1       -9.924485
    2       -9.533820
    3       -5.101460
    4       -4.962181
    5       -3.488038
    6       -3.385941
    7        1.771111
    8        3.793841
    9        7.807504
   10        8.696486
   11       15.757338
   12       17.085307
 
  0.3333333E+00  0.2500000E+00  0.1250000E+00  0.6944444E-02
    1       -8.467945
    2       -8.145355
    3       -6.558825
    4       -6.339853
    5       -4.238263
    6       -4.063186
    7        3.339590
    8        4.739409
    9        6.448942
   10        7.232770
   11       16.730150
   12       16.877415
 
  0.4166667E+00  0.2500000E+00  0.1250000E+00  0.6944444E-02
    1       -8.475280
    2       -8.152381
    3       -6.551698
    4       -6.330783
    5       -4.239385
    6       -4.064040
    7        3.335155
    8        4.739243
    9        6.439659
   10        7.245095
   11       16.716254
   12       16.881877
 
  0.5000000E+00  0.2500000E+00  0.1250000E+00  0.6944444E-02
    1       -9.930986
    2       -9.540451
    3       -5.098075
    4       -4.955517
    5       -3.487583
    6       -3.383482
    7        1.765963
    8        3.788440
    9        7.800013
   10        8.708911
   11       15.747172
   12       17.103713
 
 -0.4166667E+00  0.2500000E+00  0.1250000E+00  0.6944444E-02
    1      -11.179435
    2      -10.751021
    3       -4.087413
    4       -3.892981
    5       -2.017419
    6       -1.879668
    7        0.328396
    8        2.614209
    9        9.404673
   10       10.337254
   11       14.417292
   12       15.427635
 
 -0.3333333E+00  0.2500000E+00  0.1250000E+00  0.6944444E-02
    1      -12.141966
    2      -11.686001
    3       -3.108452
    4       -2.902106
    5       -0.803111
    6       -0.469844
    7       -0.352752
    8        1.642982
    9       10.879014
   10       11.908664
   11       13.284693
   12       13.862122
 
 -0.2500000E+00  0.2500000E+00  0.1250000E+00  0.3472222E-02
    1      -12.793156
    2      -12.319028
    3       -2.017963
    4       -1.830509
    5       -1.575485
    6        0.431833
    7        0.529610
    8        0.964641
    9       12.183945
   10       12.574166
   11       13.170413
   12       13.358507
 
  0.3333333E+00  0.3333333E+00  0.1250000E+00  0.3472222E-02
    1       -7.270592
    2       -7.096550
    3       -7.093642
    4       -6.923506
    5       -5.037538
    6       -5.035956
    7        4.517087
    8        5.390434
    9        5.403181
   10        6.508768
   11       16.624114
   12       16.648952
 
  0.4166667E+00  0.3333333E+00  0.1250000E+00  0.6944444E-02
    1       -8.477787
    2       -8.156040
    3       -6.556698
    4       -6.336073
    5       -4.230891
    6       -4.054551
    7        3.335514
    8        4.727569
    9        6.444928
   10        7.245680
   11       16.713918
   12       16.908349
 
  0.5000000E+00  0.3333333E+00  0.1250000E+00  0.6944444E-02
    1       -9.781538
    2       -9.398347
    3       -6.035625
    4       -5.767832
    5       -2.610357
    6       -2.438209
    7        1.893479
    8        3.757339
    9        7.505559
   10        8.552433
   11       15.139968
   12       15.768812
 
 -0.4166667E+00  0.3333333E+00  0.1250000E+00  0.6944444E-02
    1      -10.862924
    2      -10.444096
    3       -5.263370
    4       -4.996366
    5       -1.110257
    6       -0.980405
    7        0.670926
    8        2.837834
    9        8.586319
   10        9.876678
   11       13.482078
   12       14.061693
 
 -0.3333333E+00  0.3333333E+00  0.1250000E+00  0.3472222E-02
    1      -11.658081
    2      -11.215790
    3       -4.253147
    4       -4.005974
    5       -0.304629
    6       -0.242214
    7       -0.198839
    8        2.106996
    9        9.763643
   10       11.060288
   11       12.918420
   12       13.405815
 
  0.4166667E+00  0.4166667E+00  0.1250000E+00  0.3472222E-02
    1       -8.475112
    2       -8.287381
    3       -7.374218
    4       -7.248418
    5       -2.798982
    6       -2.619007
    7        3.069577
    8        3.995864
    9        7.009285
   10        7.286225
   11       15.041891
   12       15.832011
 
  0.5000000E+00  0.4166667E+00  0.1250000E+00  0.6944444E-02
    1       -9.352777
    2       -9.003467
    3       -7.211807
    4       -6.924158
    5       -1.440820
    6       -1.305836
    7        2.224284
    8        3.602043
    9        7.122380
   10        8.112803
   11       13.297396
   12       13.964467
 
 -0.4166667E+00  0.4166667E+00  0.1250000E+00  0.3472222E-02
    1      -10.240423
    2       -9.842831
    3       -6.377666
    4       -6.083035
    5       -0.778995
    6       -0.668719
    7        1.329626
    8        3.215750
    9        7.683282
   10        9.035487
   11       12.657163
   12       13.285563
 
  0.5000000E+00  0.5000000E+00  0.1250000E+00  0.1736111E-02
    1       -8.902845
    2       -8.708531
    3       -7.780559
    4       -7.637569
    5       -0.941612
    6       -0.830000
    7        2.474490
    8        3.422032
    9        7.039462
   10        7.826231
   11       12.561451
   12       13.218765
 
  0.0000000E+00  0.0000000E+00  0.2500000E+00  0.1736111E-02
    1      -14.224364
    2      -13.830452
    3       -3.094134
    4       -1.041988
    5        2.458572
    6        2.474907
    7        2.489369
    8        2.504742
    9       11.596042
   10       13.783908
   11       13.789853
   12       13.862127
 
  0.8333333E-01 -0.6938894E-17  0.2500000E+00  0.6944444E-02
    1      -14.058134
    2      -13.667768
    3       -2.893677
    4       -0.854053
    5        1.807020
    6        1.859438
    7        2.116323
    8        2.161594
    9       11.774232
   10       13.827140
   11       13.950154
   12       14.498705
 
  0.1666667E+00 -0.1387779E-16  0.2500000E+00  0.6944444E-02
    1      -13.561308
    2      -13.181510
    3       -2.296866
    4       -0.297282
    5        0.143922
    6        0.239174
    7        1.313334
    8        1.376843
    9       12.303395
   10       13.687523
   11       13.948715
   12       14.605982
 
  0.2500000E+00  0.0000000E+00  0.2500000E+00  0.6944444E-02
    1      -12.739825
    2      -12.377483
    3       -1.984159
    4       -1.841229
    5       -1.317853
    6        0.427041
    7        0.501988
    8        0.606349
    9       12.271357
   10       12.984769
   11       13.187164
   12       13.405511
 
  0.3333333E+00 -0.2775558E-16  0.2500000E+00  0.6944444E-02
    1      -11.606098
    2      -11.267978
    3       -4.214788
    4       -4.025984
    5       -0.309898
    6       -0.228831
    7        0.001454
    8        1.786367
    9        9.884558
   10       10.876699
   11       12.964362
   12       13.362752
 