  32  32   0   0
  0.5760957E+01  0.4934311E-09  0.4934311E-09  0.8743465E-09  0.5000000E-15
  1.000000000000000E-004
  CAR 
 graphite                                
     21.15630237    -14.07625112  301      9.72226758      1.00000000
    -14.076  0.0000E+00  0.0000E+00
    -13.959  0.0000E+00  0.0000E+00
    -13.841  0.0000E+00  0.0000E+00
    -13.724  0.0000E+00  0.0000E+00
    -13.606  0.0000E+00  0.0000E+00
    -13.489  0.0000E+00  0.0000E+00
    -13.372  0.0000E+00  0.0000E+00
    -13.254  0.0000E+00  0.0000E+00
    -13.137  0.0000E+00  0.0000E+00
    -13.019  0.0000E+00  0.0000E+00
    -12.902  0.0000E+00  0.0000E+00
    -12.784  0.0000E+00  0.0000E+00
    -12.667  0.0000E+00  0.0000E+00
    -12.550  0.0000E+00  0.0000E+00
    -12.432  0.0000E+00  0.0000E+00
    -12.315  0.0000E+00  0.0000E+00
    -12.197  0.0000E+00  0.0000E+00
    -12.080  0.0000E+00  0.0000E+00
    -11.962  0.5836E+00  0.2881E-01
    -11.845  0.8505E+00  0.1115E+00
    -11.727  0.1084E+01  0.2271E+00
    -11.610  0.1267E+01  0.3651E+00
    -11.493  0.1440E+01  0.5252E+00
    -11.375  0.1575E+01  0.7016E+00
    -11.258  0.1737E+01  0.8959E+00
    -11.140  0.1875E+01  0.1108E+01
    -11.023  0.1977E+01  0.1335E+01
    -10.905  0.2093E+01  0.1573E+01
    -10.788  0.2313E+01  0.1829E+01
    -10.670  0.2448E+01  0.2111E+01
    -10.553  0.2796E+01  0.2412E+01
    -10.436  0.2590E+01  0.2735E+01
    -10.318  0.2846E+01  0.3048E+01
    -10.201  0.2872E+01  0.3394E+01
    -10.083  0.2269E+01  0.3701E+01
     -9.966  0.2592E+01  0.3970E+01
     -9.848  0.2914E+01  0.4342E+01
     -9.731  0.3052E+01  0.4682E+01
     -9.613  0.3346E+01  0.5069E+01
     -9.496  0.3431E+01  0.5460E+01
     -9.379  0.3466E+01  0.5872E+01
     -9.261  0.3296E+01  0.6269E+01
     -9.144  0.4337E+01  0.6788E+01
     -9.026  0.3445E+01  0.7235E+01
     -8.909  0.3348E+01  0.7629E+01
     -8.791  0.3628E+01  0.8038E+01
     -8.674  0.3521E+01  0.8466E+01
     -8.556  0.4218E+01  0.8910E+01
     -8.439  0.4791E+01  0.9443E+01
     -8.322  0.5105E+01  0.1002E+02
     -8.204  0.5089E+01  0.1062E+02
     -8.087  0.4879E+01  0.1121E+02
     -7.969  0.4112E+01  0.1173E+02
     -7.852  0.5086E+01  0.1229E+02
     -7.734  0.4972E+01  0.1289E+02
     -7.617  0.4389E+01  0.1343E+02
     -7.500  0.5276E+01  0.1400E+02
     -7.382  0.5740E+01  0.1466E+02
     -7.265  0.5228E+01  0.1531E+02
     -7.147  0.6175E+01  0.1601E+02
     -7.030  0.4602E+01  0.1664E+02
     -6.912  0.4499E+01  0.1717E+02
     -6.795  0.4366E+01  0.1769E+02
     -6.677  0.4655E+01  0.1821E+02
     -6.560  0.6240E+01  0.1883E+02
     -6.443  0.6667E+01  0.1958E+02
     -6.325  0.6697E+01  0.2038E+02
     -6.208  0.6633E+01  0.2115E+02
     -6.090  0.5447E+01  0.2186E+02
     -5.973  0.4239E+01  0.2243E+02
     -5.855  0.3006E+01  0.2285E+02
     -5.738  0.3519E+01  0.2321E+02
     -5.620  0.4635E+01  0.2367E+02
     -5.503  0.6637E+01  0.2436E+02
     -5.386  0.6787E+01  0.2520E+02
     -5.268  0.5480E+01  0.2591E+02
     -5.151  0.5802E+01  0.2656E+02
     -5.033  0.6498E+01  0.2727E+02
     -4.916  0.3410E+01  0.2786E+02
     -4.798  0.3332E+01  0.2823E+02
     -4.681  0.7296E+01  0.2888E+02
     -4.563  0.5941E+01  0.2970E+02
     -4.446  0.3620E+01  0.3022E+02
     -4.329  0.2809E+01  0.3059E+02
     -4.211  0.2435E+01  0.3090E+02
     -4.094  0.3267E+01  0.3125E+02
     -3.976  0.4040E+01  0.3167E+02
     -3.859  0.5160E+01  0.3221E+02
     -3.741  0.5263E+01  0.3286E+02
     -3.624  0.4347E+01  0.3339E+02
     -3.506  0.3878E+01  0.3389E+02
     -3.389  0.4501E+01  0.3438E+02
     -3.272  0.6872E+01  0.3501E+02
     -3.154  0.8025E+01  0.3590E+02
     -3.037  0.7246E+01  0.3685E+02
     -2.919  0.5252E+01  0.3752E+02
     -2.802  0.5208E+01  0.3813E+02
     -2.684  0.5628E+01  0.3875E+02
     -2.567  0.6010E+01  0.3944E+02
     -2.450  0.5714E+01  0.4014E+02
     -2.332  0.5653E+01  0.4082E+02
     -2.215  0.5309E+01  0.4146E+02
     -2.097  0.5829E+01  0.4209E+02
     -1.980  0.6645E+01  0.4283E+02
     -1.862  0.4769E+01  0.4359E+02
     -1.745  0.4093E+01  0.4408E+02
     -1.627  0.4471E+01  0.4457E+02
     -1.510  0.4613E+01  0.4509E+02
     -1.393  0.5313E+01  0.4567E+02
     -1.275  0.6069E+01  0.4634E+02
     -1.158  0.7801E+01  0.4714E+02
     -1.040  0.7344E+01  0.4804E+02
     -0.923  0.6268E+01  0.4881E+02
     -0.805  0.5907E+01  0.4952E+02
     -0.688  0.6135E+01  0.5021E+02
     -0.570  0.6724E+01  0.5108E+02
     -0.453  0.7457E+01  0.5193E+02
     -0.336  0.6634E+01  0.5273E+02
     -0.218  0.6290E+01  0.5349E+02
     -0.101  0.6316E+01  0.5423E+02
      0.017  0.7493E+01  0.5502E+02
      0.134  0.8335E+01  0.5599E+02
      0.252  0.6291E+01  0.5691E+02
      0.369  0.6751E+01  0.5766E+02
      0.487  0.7573E+01  0.5860E+02
      0.604  0.6004E+01  0.5934E+02
      0.721  0.1057E+02  0.6024E+02
      0.839  0.8748E+01  0.6136E+02
      0.956  0.7703E+01  0.6233E+02
      1.074  0.7121E+01  0.6316E+02
      1.191  0.8117E+01  0.6408E+02
      1.309  0.8398E+01  0.6507E+02
      1.426  0.8892E+01  0.6606E+02
      1.544  0.9604E+01  0.6718E+02
      1.661  0.8635E+01  0.6817E+02
      1.778  0.9227E+01  0.6922E+02
      1.896  0.1002E+02  0.7038E+02
      2.013  0.1144E+02  0.7165E+02
      2.131  0.1090E+02  0.7308E+02
      2.248  0.9782E+01  0.7425E+02
      2.366  0.9627E+01  0.7537E+02
      2.483  0.1151E+02  0.7668E+02
      2.600  0.9776E+01  0.7792E+02
      2.718  0.1109E+02  0.7903E+02
      2.835  0.1203E+02  0.8029E+02
      2.953  0.1404E+02  0.8184E+02
      3.070  0.1286E+02  0.8349E+02
      3.188  0.1159E+02  0.8494E+02
      3.305  0.9953E+01  0.8618E+02
      3.423  0.9896E+01  0.8730E+02
      3.540  0.1323E+02  0.8863E+02
      3.657  0.1110E+02  0.9003E+02
      3.775  0.1206E+02  0.9147E+02
      3.892  0.1086E+02  0.9281E+02
      4.010  0.1004E+02  0.9404E+02
      4.127  0.8475E+01  0.9513E+02
      4.245  0.8615E+01  0.9612E+02
      4.362  0.8628E+01  0.9714E+02
      4.480  0.1111E+02  0.9831E+02
      4.597  0.9530E+01  0.9952E+02
      4.714  0.7935E+01  0.1006E+03
      4.832  0.7494E+01  0.1015E+03
      4.949  0.7098E+01  0.1023E+03
      5.067  0.6879E+01  0.1031E+03
      5.184  0.7263E+01  0.1040E+03
      5.302  0.7713E+01  0.1049E+03
      5.419  0.7539E+01  0.1057E+03
      5.537  0.7244E+01  0.1066E+03
      5.654  0.7250E+01  0.1075E+03
      5.771  0.7515E+01  0.1083E+03
      5.889  0.6857E+01  0.1092E+03
      6.006  0.5585E+01  0.1099E+03
      6.124  0.4826E+01  0.1105E+03
      6.241  0.4638E+01  0.1111E+03
      6.359  0.4456E+01  0.1116E+03
      6.476  0.4028E+01  0.1121E+03
      6.594  0.3541E+01  0.1125E+03
      6.711  0.3804E+01  0.1130E+03
      6.828  0.3659E+01  0.1134E+03
      6.946  0.3590E+01  0.1139E+03
      7.063  0.3856E+01  0.1143E+03
      7.181  0.4113E+01  0.1148E+03
      7.298  0.4000E+01  0.1152E+03
      7.416  0.3731E+01  0.1157E+03
      7.533  0.3180E+01  0.1161E+03
      7.650  0.3607E+01  0.1165E+03
      7.768  0.4541E+01  0.1170E+03
      7.885  0.5198E+01  0.1176E+03
      8.003  0.6339E+01  0.1182E+03
      8.120  0.7412E+01  0.1191E+03
      8.238  0.6540E+01  0.1198E+03
      8.355  0.7648E+01  0.1207E+03
      8.473  0.5753E+01  0.1214E+03
      8.590  0.5162E+01  0.1220E+03
      8.707  0.5135E+01  0.1226E+03
      8.825  0.6526E+01  0.1233E+03
      8.942  0.5890E+01  0.1240E+03
      9.060  0.5525E+01  0.1247E+03
      9.177  0.5131E+01  0.1253E+03
      9.295  0.5050E+01  0.1259E+03
      9.412  0.6440E+01  0.1265E+03
      9.530  0.5655E+01  0.1273E+03
      9.647  0.3809E+01  0.1278E+03
      9.764  0.1757E+01  0.1281E+03
      9.882  0.1208E+01  0.1282E+03
      9.999  0.1218E+01  0.1284E+03
     10.117  0.1256E+01  0.1285E+03
     10.234  0.1443E+01  0.1287E+03
     10.352  0.1708E+01  0.1289E+03
     10.469  0.2012E+01  0.1291E+03
     10.587  0.2249E+01  0.1293E+03
     10.704  0.2159E+01  0.1296E+03
     10.821  0.1990E+01  0.1299E+03
     10.939  0.2032E+01  0.1301E+03
     11.056  0.2125E+01  0.1303E+03
     11.174  0.2304E+01  0.1306E+03
     11.291  0.5894E+01  0.1311E+03
     11.409  0.6409E+01  0.1318E+03
     11.526  0.5811E+01  0.1325E+03
     11.644  0.5720E+01  0.1332E+03
     11.761  0.6355E+01  0.1339E+03
     11.878  0.4487E+01  0.1346E+03
     11.996  0.4355E+01  0.1351E+03
     12.113  0.5444E+01  0.1357E+03
     12.231  0.6182E+01  0.1364E+03
     12.348  0.5079E+01  0.1370E+03
     12.466  0.4306E+01  0.1376E+03
     12.583  0.4474E+01  0.1381E+03
     12.700  0.3805E+01  0.1386E+03
     12.818  0.4281E+01  0.1390E+03
     12.935  0.4877E+01  0.1396E+03
     13.053  0.5804E+01  0.1402E+03
     13.170  0.5192E+01  0.1408E+03
     13.288  0.4974E+01  0.1414E+03
     13.405  0.4309E+01  0.1420E+03
     13.523  0.3409E+01  0.1424E+03
     13.640  0.3270E+01  0.1428E+03
     13.757  0.3260E+01  0.1432E+03
     13.875  0.3383E+01  0.1436E+03
     13.992  0.3533E+01  0.1440E+03
     14.110  0.4062E+01  0.1444E+03
     14.227  0.4654E+01  0.1449E+03
     14.345  0.4618E+01  0.1455E+03
     14.462  0.4846E+01  0.1460E+03
     14.580  0.5446E+01  0.1467E+03
     14.697  0.6078E+01  0.1473E+03
     14.814  0.6447E+01  0.1481E+03
     14.932  0.5487E+01  0.1488E+03
     15.049  0.4986E+01  0.1494E+03
     15.167  0.5170E+01  0.1499E+03
     15.284  0.5896E+01  0.1506E+03
     15.402  0.5847E+01  0.1513E+03
     15.519  0.4954E+01  0.1519E+03
     15.637  0.4671E+01  0.1525E+03
     15.754  0.5516E+01  0.1531E+03
     15.871  0.6059E+01  0.1537E+03
     15.989  0.6838E+01  0.1545E+03
     16.106  0.7477E+01  0.1554E+03
     16.224  0.6326E+01  0.1562E+03
     16.341  0.5893E+01  0.1570E+03
     16.459  0.5008E+01  0.1576E+03
     16.576  0.6279E+01  0.1583E+03
     16.694  0.8165E+01  0.1591E+03
     16.811  0.6722E+01  0.1600E+03
     16.928  0.5775E+01  0.1607E+03
     17.046  0.6295E+01  0.1614E+03
     17.163  0.1018E+02  0.1624E+03
     17.281  0.4640E+01  0.1632E+03
     17.398  0.4256E+01  0.1638E+03
     17.516  0.4099E+01  0.1643E+03
     17.633  0.3855E+01  0.1647E+03
     17.750  0.4009E+01  0.1652E+03
     17.868  0.4415E+01  0.1657E+03
     17.985  0.5365E+01  0.1663E+03
     18.103  0.4362E+01  0.1668E+03
     18.220  0.3125E+01  0.1673E+03
     18.338  0.2126E+01  0.1676E+03
     18.455  0.1190E+01  0.1678E+03
     18.573  0.6092E+00  0.1679E+03
     18.690  0.3778E+00  0.1679E+03
     18.807  0.2428E+00  0.1680E+03
     18.925  0.1213E+00  0.1680E+03
     19.042  0.2700E-01  0.1680E+03
     19.160  0.0000E+00  0.1680E+03
     19.277  0.0000E+00  0.1680E+03
     19.395  0.0000E+00  0.1680E+03
     19.512  0.0000E+00  0.1680E+03
     19.630  0.0000E+00  0.1680E+03
     19.747  0.0000E+00  0.1680E+03
     19.864  0.0000E+00  0.1680E+03
     19.982  0.0000E+00  0.1680E+03
     20.099  0.0000E+00  0.1680E+03
     20.217  0.0000E+00  0.1680E+03
     20.334  0.0000E+00  0.1680E+03
     20.452  0.0000E+00  0.1680E+03
     20.569  0.0000E+00  0.1680E+03
     20.687  0.0000E+00  0.1680E+03
     20.804  0.0000E+00  0.1680E+03
     20.921  0.0000E+00  0.1680E+03
     21.039  0.0000E+00  0.1680E+03
     21.156  0.0000E+00  0.1680E+03
