   32   32    1    1
  0.5317807E+01  0.4934311E-09  0.4934311E-09  0.8070891E-09  0.5000000E-15
  1.000000000000000E-004
  CAR 
 graphite                                
    128    163     84
 
  0.0000000E+00  0.0000000E+00  0.0000000E+00  0.3086420E-02
    1      -11.764895
    2       -9.982507
    3       -9.975603
    4       -6.258491
    5       -6.067278
    6       -6.067028
    7       -6.066418
    8       -5.092635
    9       -5.090378
   10       -5.089070
   11       -4.501969
   12       -4.494886
   13       -4.493435
   14       -4.493037
   15       -4.491557
   16       -4.484383
   17       -3.409011
   18       -3.405674
   19       -3.403541
   20       -3.401814
   21       -3.398854
   22       -3.396502
   23       -1.840755
   24       -1.142955
   25       -1.141581
   26       -1.141025
   27       -0.989578
   28       -0.986495
   29       -0.984230
   30        2.874652
   31        2.877434
   32        2.882120
   33        3.907886
   34        3.913482
   35        3.914889
   36        3.915551
   37        3.916752
   38        3.923125
   39        3.958348
   40        3.959275
   41        3.959852
   42        4.939492
   43        4.948264
   44        5.173783
   45        5.177258
   46        5.182502
   47        6.825868
   48        6.839009
   49        7.238950
   50        7.240545
   51        7.241164
   52        7.359530
   53        7.368430
   54        7.372725
   55        7.383341
   56        7.870160
   57        7.884690
   58        9.400687
   59        9.416241
   60        9.416520
   61        9.418329
   62        9.418540
   63        9.434020
   64       11.631681
   65       12.312903
   66       12.327331
   67       12.328947
   68       12.330039
   69       12.331683
   70       12.346159
   71       14.830653
   72       14.835517
   73       14.841151
   74       14.908580
   75       14.909729
   76       14.911797
   77       17.811715
   78       17.814250
   79       17.815862
   80       18.021470
   81       18.039775
   82       18.050100
   83       18.052870
   84       18.061832
 
  0.1111111E+00 -0.1387779E-16  0.0000000E+00  0.6172840E-02
    1      -11.686751
    2       -9.906053
    3       -9.899156
    4       -6.923701
    5       -6.332635
    6       -6.330665
    7       -6.192953
    8       -5.285356
    9       -5.278952
   10       -4.730206
   11       -4.726667
   12       -4.724330
   13       -4.718900
   14       -4.697299
   15       -4.694387
   16       -4.136882
   17       -3.049986
   18       -3.046114
   19       -3.043244
   20       -3.040450
   21       -2.502159
   22       -2.496030
   23       -2.067462
   24       -1.750009
   25       -1.553681
   26       -1.550701
   27       -0.482603
   28       -0.479037
   29        0.062805
   30        2.604730
   31        2.609833
   32        2.952183
   33        3.410821
   34        3.653430
   35        3.656345
   36        3.658053
   37        3.664273
   38        3.860221
   39        3.861684
   40        3.983096
   41        3.988255
   42        4.997860
   43        5.003574
   44        5.006638
   45        5.014942
   46        5.242170
   47        6.424952
   48        6.594028
   49        7.063024
   50        7.071201
   51        7.199047
   52        7.207428
   53        7.487383
   54        7.489672
   55        7.690717
   56        7.809115
   57        7.907294
   58        9.057790
   59        9.069106
   60        9.365708
   61        9.374398
   62        9.376201
   63        9.388435
   64       11.676403
   65       12.471468
   66       12.483404
   67       12.486186
   68       12.494754
   69       12.709033
   70       12.720981
   71       14.592538
   72       14.593755
   73       14.782030
   74       14.899181
   75       15.248402
   76       15.256163
   77       17.870387
   78       17.873155
   79       17.932116
   80       18.004846
   81       18.165974
   82       18.178214
   83       18.195497
   84       18.202884
 
  0.2222222E+00 -0.4163336E-16  0.0000000E+00  0.6172840E-02
    1      -11.452589
    2       -9.677122
    3       -9.670245
    4       -8.011247
    5       -6.710138
    6       -6.707933
    7       -6.329574
    8       -6.323029
    9       -5.996753
   10       -5.080612
   11       -5.077592
   12       -5.074678
   13       -5.070080
   14       -3.940567
   15       -3.937163
   16       -3.300362
   17       -2.378930
   18       -2.324762
   19       -2.320752
   20       -2.317861
   21       -2.314856
   22       -1.910786
   23       -1.907872
   24       -1.478495
   25       -1.122686
   26       -1.116579
   27        0.126532
   28        0.130079
   29        1.265436
   30        1.939551
   31        1.943640
   32        2.374906
   33        2.971168
   34        2.973983
   35        2.975909
   36        2.981854
   37        3.180603
   38        3.647416
   39        3.649519
   40        4.200338
   41        4.205656
   42        4.506892
   43        4.512760
   44        5.175153
   45        5.183354
   46        5.365603
   47        5.441919
   48        6.035810
   49        6.250028
   50        6.257463
   51        6.770414
   52        6.778068
   53        7.099037
   54        7.568556
   55        8.141180
   56        8.143848
   57        8.325053
   58        8.335036
   59        9.267703
   60        9.275929
   61        9.280800
   62        9.282516
   63        9.295435
   64       11.802571
   65       12.833576
   66       12.845559
   67       12.848905
   68       12.857995
   69       13.526866
   70       13.537296
   71       13.783200
   72       13.784046
   73       14.495468
   74       15.094434
   75       16.381197
   76       16.388914
   77       17.554789
   78       17.643199
   79       17.650802
   80       17.972340
   81       17.975644
   82       18.211395
   83       18.495599
   84       18.504841
 
  0.3333333E+00  0.2775558E-16  0.0000000E+00  0.6172840E-02
    1      -11.063460
    2       -9.296862
    3       -9.290013
    4       -8.988291
    5       -7.275944
    6       -7.269314
    7       -6.987281
    8       -6.985049
    9       -5.671313
   10       -5.344090
   11       -5.341147
   12       -5.337962
   13       -5.333810
   14       -3.959382
   15       -3.099016
   16       -3.095228
   17       -2.103170
   18       -2.099896
   19       -1.472940
   20       -1.468652
   21       -1.466118
   22       -1.463091
   23       -1.028720
   24       -0.962594
   25        0.320280
   26        0.323941
   27        0.364876
   28        0.370908
   29        1.325211
   30        1.533083
   31        1.535178
   32        2.067468
   33        2.069952
   34        2.072228
   35        2.077788
   36        2.522329
   37        3.448100
   38        3.450542
   39        3.553902
   40        3.805994
   41        3.811205
   42        3.934147
   43        4.553459
   44        4.558998
   45        4.785961
   46        4.792314
   47        5.354100
   48        5.762732
   49        5.765817
   50        5.774076
   51        6.174145
   52        6.196980
   53        6.203418
   54        7.159073
   55        7.534422
   56        7.543893
   57        9.047481
   58        9.050392
   59        9.180277
   60        9.189292
   61        9.190986
   62        9.202955
   63       10.747821
   64       11.978203
   65       12.716590
   66       12.717662
   67       13.206479
   68       13.218584
   69       13.222201
   70       13.231734
   71       14.271744
   72       14.441365
   73       14.451151
   74       15.415510
   75       16.945872
   76       16.954145
   77       16.984607
   78       16.991933
   79       18.006218
   80       18.013897
   81       18.040383
   82       18.044174
   83       19.018611
   84       19.025309
 
  0.4444444E+00 -0.8326673E-16  0.0000000E+00  0.6172840E-02
    1      -10.520814
    2       -9.827529
    3       -8.767406
    4       -8.760621
    5       -8.091813
    6       -8.085092
    7       -7.130048
    8       -7.127840
    9       -5.480809
   10       -5.477889
   11       -5.474589
   12       -5.470621
   13       -5.218496
   14       -4.643374
   15       -2.587687
   16       -2.583575
   17       -1.873488
   18       -1.869900
   19       -0.681045
   20       -0.676223
   21       -0.673916
   22       -0.671692
   23       -0.404175
   24       -0.368345
   25       -0.364485
   26        0.385839
   27        0.665189
   28        1.222456
   29        1.224193
   30        1.226974
   31        1.231752
   32        1.899706
   33        1.905705
   34        2.063502
   35        2.067203
   36        2.325825
   37        3.036706
   38        3.041174
   39        3.334773
   40        3.337307
   41        3.418125
   42        3.424541
   43        3.797658
   44        4.058669
   45        4.671893
   46        5.025515
   47        5.031514
   48        5.039915
   49        5.589311
   50        5.595506
   51        6.184066
   52        6.190198
   53        6.199196
   54        6.669119
   55        6.805486
   56        6.814681
   57        9.126083
   58        9.135367
   59        9.137051
   60        9.148772
   61       10.025236
   62       10.028656
   63       11.640671
   64       11.642181
   65       11.832256
   66       12.102338
   67       13.435101
   68       13.447466
   69       13.451160
   70       13.460822
   71       14.523554
   72       15.332360
   73       15.341275
   74       15.602816
   75       15.853650
   76       16.169779
   77       16.178147
   78       16.390251
   79       18.067702
   80       18.072105
   81       19.631581
   82       19.637273
   83       19.934251
   84       19.991307
 
  0.0000000E+00  0.1111111E+00  0.0000000E+00  0.6172840E-02
    1      -11.686753
    2       -9.906055
    3       -9.899159
    4       -6.923754
    5       -6.333496
    6       -6.329830
    7       -6.192949
    8       -5.285300
    9       -5.278901
   10       -4.731283
   11       -4.725748
   12       -4.724235
   13       -4.719173
   14       -4.698033
   15       -4.693443
   16       -4.137112
   17       -3.050612
   18       -3.045120
   19       -3.043423
   20       -3.037876
   21       -2.502972
   22       -2.497472
   23       -2.068624
   24       -1.750005
   25       -1.554438
   26       -1.549077
   27       -0.483189
   28       -0.477005
   29        0.061589
   30        2.603213
   31        2.609516
   32        2.953900
   33        3.411216
   34        3.650924
   35        3.656123
   36        3.658036
   37        3.663354
   38        3.859317
   39        3.862064
   40        3.985726
   41        3.989407
   42        4.996295
   43        5.003478
   44        5.006294
   45        5.014869
   46        5.244329
   47        6.421393
   48        6.597617
   49        7.061417
   50        7.064543
   51        7.205950
   52        7.208917
   53        7.486844
   54        7.489742
   55        7.686204
   56        7.813747
   57        7.907998
   58        9.059223
   59        9.070022
   60        9.363910
   61        9.374318
   62        9.376316
   63        9.387156
   64       11.676445
   65       12.472783
   66       12.484133
   67       12.486425
   68       12.497436
   69       12.707442
   70       12.718379
   71       14.592474
   72       14.595050
   73       14.780196
   74       14.899931
   75       15.248585
   76       15.255167
   77       17.871418
   78       17.874411
   79       17.936781
   80       18.003033
   81       18.164591
   82       18.174350
   83       18.198712
   84       18.202791
 
  0.1111111E+00  0.1111111E+00  0.0000000E+00  0.6172840E-02
    1      -11.530575
    2       -9.753351
    3       -9.746467
    4       -7.424530
    5       -7.420710
    6       -6.062122
    7       -5.862901
    8       -5.765814
    9       -5.759716
   10       -5.758678
   11       -5.752589
   12       -4.878095
   13       -4.299941
   14       -4.293881
   15       -3.474772
   16       -3.470032
   17       -3.209766
   18       -3.203927
   19       -2.414573
   20       -2.410420
   21       -1.791753
   22       -1.787047
   23       -1.786051
   24       -1.779394
   25       -1.568742
   26       -0.978059
   27       -0.893125
   28        0.666719
   29        0.671456
   30        1.836270
   31        2.765969
   32        2.769269
   33        2.898761
   34        2.903965
   35        2.970424
   36        2.973513
   37        3.796662
   38        3.802365
   39        3.803953
   40        3.805706
   41        4.187940
   42        4.444557
   43        5.127264
   44        5.129938
   45        5.133894
   46        5.136815
   47        5.768422
   48        6.104834
   49        6.530701
   50        6.538832
   51        6.870335
   52        6.878567
   53        7.375563
   54        7.485653
   55        7.593312
   56        8.606509
   57        8.609687
   58        8.762397
   59        8.773253
   60        8.773847
   61        8.783100
   62        9.632934
   63        9.645557
   64       11.762203
   65       12.446452
   66       12.459480
   67       13.143010
   68       13.151708
   69       13.152730
   70       13.164077
   71       13.828683
   72       14.409613
   73       14.412625
   74       15.376001
   75       15.382008
   76       16.323811
   77       17.869958
   78       17.879293
   79       17.886287
   80       17.910291
   81       18.170309
   82       18.172692
   83       18.484524
   84       18.552649
 
  0.2222222E+00  0.1111111E+00  0.0000000E+00  0.6172840E-02
    1      -11.218865
    2       -9.448718
    3       -9.441860
    4       -8.459915
    5       -7.789260
    6       -6.763643
    7       -6.757053
    8       -6.115351
    9       -6.108840
   10       -5.914341
   11       -5.801215
   12       -4.328457
   13       -4.322108
   14       -4.284661
   15       -3.549924
   16       -3.119191
   17       -2.675708
   18       -2.669699
   19       -2.209743
   20       -1.689899
   21       -1.294503
   22       -1.208108
   23       -0.970097
   24       -0.964728
   25       -0.385116
   26       -0.353049
   27       -0.347051
   28        0.999571
   29        1.173650
   30        1.865728
   31        1.900910
   32        1.904305
   33        1.910451
   34        2.306297
   35        2.623518
   36        3.101808
   37        3.199975
   38        3.204036
   39        3.673896
   40        4.088308
   41        4.093593
   42        4.310245
   43        4.610834
   44        4.707202
   45        5.155283
   46        5.161985
   47        5.367183
   48        5.392950
   49        5.801989
   50        5.809354
   51        6.308587
   52        6.316840
   53        6.706284
   54        7.204290
   55        7.966555
   56        7.983811
   57        7.993236
   58        8.542840
   59        8.552834
   60        9.495949
   61        9.802675
   62        9.814948
   63       10.078037
   64       11.916921
   65       12.536439
   66       12.549083
   67       12.714388
   68       13.666647
   69       13.678868
   70       13.689198
   71       14.049672
   72       14.059411
   73       14.172736
   74       15.635355
   75       16.572690
   76       17.343275
   77       17.352426
   78       17.463816
   79       17.603212
   80       17.887692
   81       17.971621
   82       18.245078
   83       18.704153
   84       19.001301
 
  0.3333333E+00  0.1111111E+00  0.0000000E+00  0.6172840E-02
    1      -10.753005
    2       -9.368719
    3       -8.993813
    4       -8.987009
    5       -8.012067
    6       -7.645427
    7       -7.638738
    8       -6.330435
    9       -6.323901
   10       -6.072918
   11       -5.412055
   12       -4.469255
   13       -4.462935
   14       -4.266348
   15       -3.363073
   16       -3.188740
   17       -1.851975
   18       -1.845984
   19       -1.660644
   20       -1.403249
   21       -0.670841
   22       -0.586432
   23       -0.130150
   24       -0.127201
   25       -0.121797
   26        0.830488
   27        0.874088
   28        0.879230
   29        0.904116
   30        1.051354
   31        1.151489
   32        1.157381
   33        2.403557
   34        2.413433
   35        2.417529
   36        2.513250
   37        2.806513
   38        3.007152
   39        3.128080
   40        3.668436
   41        4.078457
   42        4.100393
   43        4.107570
   44        4.309280
   45        4.510022
   46        4.515498
   47        4.615284
   48        5.648778
   49        5.656372
   50        5.729058
   51        5.767683
   52        6.012261
   53        6.020792
   54        6.728580
   55        7.216686
   56        7.226013
   57        8.401816
   58        8.411686
   59        8.797055
   60        9.884544
   61        9.896054
   62       10.495987
   63       11.437805
   64       11.507471
   65       12.088107
   66       12.652382
   67       12.663982
   68       12.719745
   69       14.103417
   70       14.113523
   71       14.142863
   72       14.973682
   73       14.983041
   74       16.012148
   75       16.151928
   76       16.648421
   77       16.657229
   78       17.049416
   79       18.043504
   80       18.244179
   81       18.251678
   82       19.415783
   83       19.504874
   84       19.524258
 
  0.4444444E+00  0.1111111E+00  0.0000000E+00  0.6172840E-02
    1      -10.136903
    2      -10.133328
    3       -8.394543
    4       -8.388786
    5       -8.387318
    6       -8.381426
    7       -8.086669
    8       -6.402673
    9       -6.396131
   10       -6.134346
   11       -4.899885
   12       -4.895976
   13       -4.525574
   14       -4.519247
   15       -3.234187
   16       -2.549170
   17       -2.206749
   18       -1.311028
   19       -1.306024
   20       -0.899666
   21       -0.791235
   22        0.035195
   23        0.038601
   24        0.261774
   25        0.267490
   26        0.271667
   27        0.369700
   28        0.375209
   29        1.508739
   30        1.512438
   31        1.619514
   32        1.919901
   33        1.925270
   34        2.122163
   35        2.328739
   36        2.664148
   37        2.664812
   38        2.667708
   39        2.675100
   40        3.012210
   41        3.548880
   42        3.872770
   43        3.878653
   44        4.295873
   45        4.619690
   46        4.625595
   47        5.037783
   48        5.048936
   49        5.049155
   50        5.051381
   51        6.224564
   52        6.230923
   53        6.536901
   54        6.546225
   55        6.546789
   56        6.555685
   57        8.353966
   58        8.363847
   59        9.466461
   60        9.906827
   61        9.917807
   62       10.714869
   63       11.330329
   64       11.895078
   65       12.094072
   66       12.097646
   67       12.704728
   68       12.715552
   69       14.264894
   70       14.275539
   71       14.838454
   72       14.845054
   73       15.845538
   74       15.850628
   75       15.852262
   76       15.863232
   77       16.492050
   78       16.495796
   79       18.069806
   80       18.234595
   81       20.025548
   82       20.031393
   83       20.038004
   84       20.041841
 
 -0.4444444E+00  0.1111111E+00  0.0000000E+00  0.6172840E-02
    1      -10.753099
    2       -9.368545
    3       -8.993924
    4       -8.987124
    5       -8.012284
    6       -7.645259
    7       -7.638583
    8       -6.330664
    9       -6.324129
   10       -6.072712
   11       -5.412148
   12       -4.469182
   13       -4.462865
   14       -4.266151
   15       -3.361255
   16       -3.188719
   17       -1.848754
   18       -1.843774
   19       -1.659233
   20       -1.406883
   21       -0.670884
   22       -0.589182
   23       -0.131994
   24       -0.128086
   25       -0.124795
   26        0.833733
   27        0.871466
   28        0.875637
   29        0.904132
   30        1.053684
   31        1.151442
   32        1.157681
   33        2.403636
   34        2.416134
   35        2.421897
   36        2.510261
   37        2.802651
   38        3.010691
   39        3.127633
   40        3.664660
   41        4.082286
   42        4.099901
   43        4.105962
   44        4.309014
   45        4.509482
   46        4.515529
   47        4.612399
   48        5.652545
   49        5.657314
   50        5.732362
   51        5.767654
   52        6.011403
   53        6.019911
   54        6.729191
   55        7.216807
   56        7.226165
   57        8.401994
   58        8.412000
   59        8.798491
   60        9.883944
   61        9.894952
   62       10.495647
   63       11.437726
   64       11.506739
   65       12.088455
   66       12.654491
   67       12.665245
   68       12.718976
   69       14.102406
   70       14.112853
   71       14.142499
   72       14.973002
   73       14.982687
   74       16.011431
   75       16.151381
   76       16.650632
   77       16.658660
   78       17.050825
   79       18.044036
   80       18.244355
   81       18.257430
   82       19.416536
   83       19.505067
   84       19.510731
 
 -0.3333333E+00  0.1111111E+00  0.0000000E+00  0.6172840E-02
    1      -11.218945
    2       -9.448798
    3       -9.441942
    4       -8.459711
    5       -7.789722
    6       -6.763445
    7       -6.756862
    8       -6.115807
    9       -6.109293
   10       -5.913998
   11       -5.801284
   12       -4.328298
   13       -4.322137
   14       -4.282629
   15       -3.549752
   16       -3.118952
   17       -2.671996
   18       -2.667097
   19       -2.213794
   20       -1.690082
   21       -1.292495
   22       -1.208142
   23       -0.973409
   24       -0.967422
   25       -0.384619
   26       -0.353143
   27       -0.347019
   28        0.997382
   29        1.172925
   30        1.866934
   31        1.898074
   32        1.902281
   33        1.907426
   34        2.308186
   35        2.623595
   36        3.100516
   37        3.203618
   38        3.209285
   39        3.669509
   40        4.088155
   41        4.093699
   42        4.309713
   43        4.609029
   44        4.712249
   45        5.154244
   46        5.159898
   47        5.366055
   48        5.393182
   49        5.800742
   50        5.807401
   51        6.313663
   52        6.318226
   53        6.707772
   54        7.206097
   55        7.968969
   56        7.983546
   57        7.993141
   58        8.543184
   59        8.553433
   60        9.495152
   61        9.801591
   62        9.813072
   63       10.078052
   64       11.917182
   65       12.540097
   66       12.551261
   67       12.713942
   68       13.664442
   69       13.678434
   70       13.687579
   71       14.049267
   72       14.059338
   73       14.172174
   74       15.634865
   75       16.578293
   76       17.347587
   77       17.354673
   78       17.463124
   79       17.605641
   80       17.881648
   81       17.972742
   82       18.245008
   83       18.705729
   84       18.970736
 
 -0.2222222E+00  0.1111111E+00  0.0000000E+00  0.6172840E-02
    1      -11.530623
    2       -9.753399
    3       -9.746516
    4       -7.423338
    5       -7.422350
    6       -6.062181
    7       -5.862605
    8       -5.764832
    9       -5.760376
   10       -5.758648
   11       -5.753626
   12       -4.875873
   13       -4.299932
   14       -4.294178
   15       -3.473219
   16       -3.472728
   17       -3.205464
   18       -3.201428
   19       -2.416147
   20       -2.411553
   21       -1.793241
   22       -1.788010
   23       -1.787241
   24       -1.781831
   25       -1.568762
   26       -0.976767
   27       -0.890133
   28        0.665710
   29        0.670140
   30        1.832059
   31        2.766191
   32        2.772985
   33        2.894891
   34        2.899009
   35        2.971751
   36        2.972394
   37        3.798511
   38        3.803825
   39        3.805351
   40        3.810806
   41        4.187261
   42        4.439787
   43        5.127526
   44        5.130837
   45        5.136235
   46        5.138450
   47        5.762814
   48        6.108820
   49        6.526272
   50        6.529524
   51        6.880203
   52        6.882913
   53        7.371331
   54        7.487702
   55        7.599656
   56        8.607145
   57        8.607709
   58        8.763537
   59        8.773033
   60        8.773871
   61        8.783954
   62        9.631654
   63        9.643383
   64       11.762362
   65       12.450504
   66       12.462136
   67       13.141127
   68       13.151359
   69       13.152245
   70       13.162696
   71       13.828669
   72       14.408948
   73       14.411353
   74       15.378264
   75       15.384859
   76       16.317929
   77       17.878320
   78       17.883333
   79       17.888345
   80       17.916458
   81       18.169710
   82       18.173810
   83       18.480758
   84       18.499518
 
 -0.1111111E+00  0.1111111E+00  0.0000000E+00  0.6172840E-02
    1      -11.686769
    2       -9.906071
    3       -9.899175
    4       -6.924572
    5       -6.332124
    6       -6.330199
    7       -6.192973
    8       -5.285965
    9       -5.279574
   10       -4.730928
   11       -4.725219
   12       -4.722869
   13       -4.720425
   14       -4.695990
   15       -4.693571
   16       -4.138750
   17       -3.046956
   18       -3.044886
   19       -3.041412
   20       -3.038375
   21       -2.506025
   22       -2.499926
   23       -2.070759
   24       -1.750012
   25       -1.551886
   26       -1.549435
   27       -0.480264
   28       -0.477455
   29        0.058951
   30        2.602553
   31        2.605362
   32        2.958708
   33        3.411554
   34        3.649491
   35        3.654846
   36        3.656527
   37        3.658021
   38        3.859660
   39        3.861198
   40        3.989855
   41        3.995221
   42        4.995428
   43        4.999261
   44        5.006289
   45        5.014924
   46        5.249549
   47        6.414412
   48        6.604633
   49        7.051690
   50        7.060200
   51        7.210305
   52        7.218799
   53        7.488523
   54        7.489954
   55        7.678901
   56        7.821248
   57        7.906430
   58        9.060118
   59        9.071417
   60        9.362540
   61        9.374491
   62        9.376377
   63        9.385255
   64       11.676498
   65       12.475663
   66       12.484639
   67       12.487518
   68       12.499026
   69       12.704591
   70       12.716303
   71       14.592860
   72       14.594921
   73       14.779119
   74       14.905347
   75       15.246201
   76       15.251846
   77       17.872786
   78       17.875459
   79       17.944081
   80       18.001365
   81       18.168990
   82       18.190372
   83       18.202818
   84       18.219017
 
 -0.1694066E-20  0.2222222E+00  0.0000000E+00  0.6172840E-02
    1      -11.452598
    2       -9.677130
    3       -9.670254
    4       -8.011340
    5       -6.711100
    6       -6.706873
    7       -6.329623
    8       -6.323081
    9       -5.996788
   10       -5.081922
   11       -5.076754
   12       -5.074822
   13       -5.069495
   14       -3.941156
   15       -3.936427
   16       -3.299576
   17       -2.381105
   18       -2.325493
   19       -2.319817
   20       -2.318123
   21       -2.312219
   22       -1.911484
   23       -1.906173
   24       -1.478478
   25       -1.123503
   26       -1.118021
   27        0.126277
   28        0.132684
   29        1.264030
   30        1.937744
   31        1.942841
   32        2.375173
   33        2.968488
   34        2.973712
   35        2.975844
   36        2.981188
   37        3.182397
   38        3.646142
   39        3.650263
   40        4.203134
   41        4.206787
   42        4.505099
   43        4.512554
   44        5.175085
   45        5.183289
   46        5.362586
   47        5.444250
   48        6.038827
   49        6.248646
   50        6.252409
   51        6.776223
   52        6.779331
   53        7.095287
   54        7.572627
   55        8.140205
   56        8.144427
   57        8.325771
   58        8.335625
   59        9.268206
   60        9.275161
   61        9.280729
   62        9.282729
   63        9.294062
   64       11.802764
   65       12.834806
   66       12.846310
   67       12.849043
   68       12.860430
   69       13.525701
   70       13.535663
   71       13.782456
   72       13.785137
   73       14.493301
   74       15.095283
   75       16.380801
   76       16.388245
   77       17.557971
   78       17.646112
   79       17.651821
   80       17.974761
   81       17.976673
   82       18.211075
   83       18.494725
   84       18.499709
 
  0.1111111E+00  0.2222222E+00  0.0000000E+00  0.6172840E-02
    1      -11.218871
    2       -9.448722
    3       -9.441866
    4       -8.460016
    5       -7.789154
    6       -6.763726
    7       -6.757130
    8       -6.115301
    9       -6.108796
   10       -5.914249
   11       -5.801213
   12       -4.328431
   13       -4.322090
   14       -4.284685
   15       -3.549679
   16       -3.119982
   17       -2.675625
   18       -2.669695
   19       -2.207581
   20       -1.691514
   21       -1.295053
   22       -1.208097
   23       -0.969148
   24       -0.963214
   25       -0.383870
   26       -0.353904
   27       -0.348523
   28        0.998688
   29        1.175614
   30        1.863870
   31        1.900928
   32        1.904364
   33        1.910295
   34        2.304065
   35        2.623211
   36        3.104096
   37        3.197531
   38        3.202661
   39        3.673867
   40        4.091119
   41        4.094884
   42        4.310148
   43        4.608923
   44        4.705096
   45        5.155101
   46        5.160990
   47        5.369668
   48        5.395102
   49        5.801174