 vasp.5.3.5 31Mar14 (build Nov 02 2014 15:17:37) complex                        
  
 executed on        ion-Intel-MKL date 2016.08.24  02:59:37
 running on    6 total cores
 distrk:  each k-point on    6 cores,    1 groups
 distr:  one band on NCORES_PER_BAND=   1 cores,    6 groups


--------------------------------------------------------------------------------------------------------


 INCAR:
 POTCAR:   PAW_PBE C 08Apr2002                    

 ----------------------------------------------------------------------------- 
|                                                                             |
|           W    W    AA    RRRRR   N    N  II  N    N   GGGG   !!!           |
|           W    W   A  A   R    R  NN   N  II  NN   N  G    G  !!!           |
|           W    W  A    A  R    R  N N  N  II  N N  N  G       !!!           |
|           W WW W  AAAAAA  RRRRR   N  N N  II  N  N N  G  GGG   !            |
|           WW  WW  A    A  R   R   N   NN  II  N   NN  G    G                |
|           W    W  A    A  R    R  N    N  II  N    N   GGGG   !!!           |
|                                                                             |
|      For optimal performance we recommend to set                            |
|        NCORE= 4 - approx SQRT( number of cores)                             |
|      NCORE specifies how many cores store one orbital (NPAR=cpu/NCORE).     |
|      This setting can  greatly improve the performance of VASP for DFT.     |
|      The default, NPAR=number of cores might be grossly inefficient         |
|      on modern multi-core architectures or massively parallel machines.     |
|      Do your own testing !!!!                                               |
|      Unfortunately you need to use the default for GW and RPA calculations. |
|      (for HF NCORE is supported but not extensively tested yet)             |
|                                                                             |
 ----------------------------------------------------------------------------- 

 POTCAR:   PAW_PBE C 08Apr2002                    
   VRHFIN =C: s2p2                                                              
   LEXCH  = PE                                                                  
   EATOM  =   147.1560 eV,   10.8157 Ry                                         
                                                                                
   TITEL  = PAW_PBE C 08Apr2002                                                 
   LULTRA =        F    use ultrasoft PP ?                                      
   IUNSCR =        0    unscreen: 0-lin 1-nonlin 2-no                           
   RPACOR =     .000    partial core radius                                     
   POMASS =   12.011; ZVAL   =    4.000    mass and valenz                      
   RCORE  =    1.500    outmost cutoff radius                                   
   RWIGS  =    1.630; RWIGS  =     .863    wigner-seitz radius (au A)           
   ENMAX  =  400.000; ENMIN  =  300.000 eV                                      
   ICORE  =        2    local potential                                         
   LCOR   =        T    correct aug charges                                     
   LPAW   =        T    paw PP                                                  
   EAUG   =  644.873                                                            
   DEXC   =     .000                                                            
   RMAX   =    2.266    core radius for proj-oper                               
   RAUG   =    1.300    factor for augmentation sphere                          
   RDEP   =    1.501    radius for radial grids                                 
   RDEPT  =    1.300    core radius for aug-charge                              
   QCUT   =   -5.516; QGAM   =   11.032    optimization parameters              
                                                                                
   Description                                                                  
     l     E      TYP  RCUT    TYP  RCUT                                        
     0   .000     23  1.200                                                     
     0   .000     23  1.200                                                     
     1   .000     23  1.500                                                     
     1  2.500     23  1.500                                                     
     2   .000      7  1.500                                                     
  local pseudopotential read in
  atomic valenz-charges read in
  non local Contribution for L=           0  read in
    real space projection operators read in
  non local Contribution for L=           0  read in
    real space projection operators read in
  non local Contribution for L=           1  read in
    real space projection operators read in
  non local Contribution for L=           1  read in
    real space projection operators read in
    PAW grid and wavefunctions read in
 
   number of l-projection  operators is LMAX  =           4
   number of lm-projection operators is LMMAX =           8
 

 ----------------------------------------------------------------------------- 
|                                                                             |
|  ADVICE TO THIS USER RUNNING 'VASP/VAMP'   (HEAR YOUR MASTER'S VOICE ...):  |
|                                                                             |
|      You have a (more or less) 'large supercell' and for larger cells       |
|      it might be more efficient to use real space projection operators      |
|      So try LREAL= Auto  in the INCAR   file.                               |
|      Mind: If you want to do a very accurate calculations keep the          |
|      reciprocal projection scheme          (i.e. LREAL=.FALSE.)             |
|                                                                             |
 ----------------------------------------------------------------------------- 

 PAW_PBE C 08Apr2002                    :
 energy of atom  1       EATOM= -147.1560
 kinetic energy error for atom=    0.0057 (will be added to EATOM!!)
 
 
 POSCAR: C                                       
  positions in direct lattice
  No initial velocities read in
 exchange correlation table for  LEXCH =        8
   RHO(1)=    0.500       N(1)  =     2000
   RHO(2)=  100.500       N(2)  =     4000
 


--------------------------------------------------------------------------------------------------------


 ion  position               nearest neighbor table
   1  0.501  0.000  0.126-  20 1.42  18 1.42  19 1.43  12 2.01  16 2.03
   2  1.000  0.000  0.125-  19 1.42  17 1.42  20 1.42  15 2.02  11 2.02
   3  0.500  0.500  0.125-  18 1.42  20 1.42  17 1.42  14 2.02  10 2.02
   4  1.000  0.500  0.125-  17 1.42  19 1.42  18 1.42  13 2.02   9 2.02
   5  0.500  0.000  0.625-  24 1.42  22 1.42  23 1.42  16 2.02  12 2.02
   6  1.000  0.000  0.625-  23 1.42  21 1.42  24 1.42  15 2.02  11 2.02
   7  0.500  0.500  0.625-  22 1.42  24 1.42  21 1.42  14 2.02  10 2.02
   8  1.000  0.500  0.625-  21 1.42  23 1.42  22 1.42  13 2.02   9 2.02
   9  0.000  0.500  0.375-  28 1.42  27 1.42  26 1.42   8 2.02   4 2.02
  10  0.500  0.500  0.375-  27 1.42  28 1.42  25 1.42   7 2.02   3 2.02
  11  0.000  1.000  0.375-  26 1.42  25 1.42  28 1.42   6 2.02   2 2.02
  12  0.500  1.000  0.375-  25 1.42  26 1.42  27 1.42   1 2.01   5 2.02
  13  0.000  0.500  0.875-  32 1.42  31 1.42  30 1.42   8 2.02   4 2.02
  14  0.500  0.500  0.875-  31 1.42  32 1.42  29 1.42   7 2.02   3 2.02
  15  0.000  1.000  0.875-  30 1.42  29 1.42  32 1.42   6 2.02   2 2.02
  16  0.500  1.000  0.875-  29 1.42  30 1.42  31 1.42   5 2.02   1 2.03
  17  0.167  0.333  0.125-   4 1.42   2 1.42   3 1.42
  18  0.667  0.333  0.125-   3 1.42   4 1.42   1 1.42
  19  0.167  0.833  0.125-   2 1.42   4 1.42   1 1.43
  20  0.667  0.833  0.125-   1 1.42   3 1.42   2 1.42
  21  0.167  0.333  0.625-   8 1.42   6 1.42   7 1.42
  22  0.667  0.333  0.625-   7 1.42   5 1.42   8 1.42
  23  0.167  0.833  0.625-   6 1.42   8 1.42   5 1.42
  24  0.667  0.833  0.625-   5 1.42   7 1.42   6 1.42
  25  0.333  0.167  0.375-  12 1.42  11 1.42  10 1.42
  26  0.833  0.167  0.375-  11 1.42  12 1.42   9 1.42
  27  0.333  0.667  0.375-  10 1.42   9 1.42  12 1.42
  28  0.833  0.667  0.375-   9 1.42  10 1.42  11 1.42
  29  0.333  0.167  0.875-  16 1.42  15 1.42  14 1.42
  30  0.833  0.167  0.875-  15 1.42  16 1.42  13 1.42
  31  0.333  0.667  0.875-  14 1.42  13 1.42  16 1.42
  32  0.833  0.667  0.875-  13 1.42  14 1.42  15 1.42
 
  LATTYP: Found a base centered orthorhombic cell.
 ALAT       =     4.9339256766
 B/A-ratio  =     1.7322311103
 C/A-ratio  =     1.6357949639
  
  Lattice vectors:
  
 A1 = (   4.9343108848,  -0.0002224000,   0.0000000000)
 A2 = (  -2.4673480464,   4.2731273763,   0.0000000000)
 A3 = (   0.0000000000,   0.0000000000,   8.0708907740)


Analysis of symmetry for initial positions (statically):
=====================================================================
 Subroutine PRICEL returns:
 Original cell was already a primitive cell.
 

 Routine SETGRP: Setting up the symmetry group for a 
 base centered orthorhombic supercell.


 Subroutine GETGRP returns: Found  1 space group operations
 (whereof  1 operations were pure point group operations)
 out of a pool of  8 trial point group operations.


The static configuration has the point symmetry C_1 .


Analysis of symmetry for dynamics (positions and initial velocities):
=====================================================================
 Subroutine PRICEL returns:
 Original cell was already a primitive cell.
 

 Routine SETGRP: Setting up the symmetry group for a 
 base centered orthorhombic supercell.


 Subroutine GETGRP returns: Found  1 space group operations
 (whereof  1 operations were pure point group operations)
 out of a pool of  8 trial point group operations.


The dynamic configuration has the point symmetry C_1 .
 
 
 KPOINTS: B4C B11C-CBC                            

Automatic generation of k-mesh.
Space group operators:
 irot       det(A)        alpha          n_x          n_y          n_z        tau_x        tau_y        tau_z
    1     1.000000     0.000000     1.000000     0.000000     0.000000     0.000000     0.000000     0.000000
 
 Subroutine IBZKPT returns following result:
 ===========================================
 
 Found    163 irreducible k-points:
 
 Following reciprocal coordinates:
            Coordinates               Weight
  0.000000  0.000000  0.000000      1.000000
  0.111111 -0.000000  0.000000      2.000000
  0.222222 -0.000000  0.000000      2.000000
  0.333333  0.000000  0.000000      2.000000
  0.444444 -0.000000  0.000000      2.000000
  0.000000  0.111111  0.000000      2.000000
  0.111111  0.111111  0.000000      2.000000
  0.222222  0.111111  0.000000      2.000000
  0.333333  0.111111  0.000000      2.000000
  0.444444  0.111111  0.000000      2.000000
 -0.444444  0.111111  0.000000      2.000000
 -0.333333  0.111111  0.000000      2.000000
 -0.222222  0.111111  0.000000      2.000000
 -0.111111  0.111111  0.000000      2.000000
 -0.000000  0.222222  0.000000      2.000000
  0.111111  0.222222  0.000000      2.000000
  0.222222  0.222222  0.000000      2.000000
  0.333333  0.222222  0.000000      2.000000
  0.444444  0.222222  0.000000      2.000000
 -0.444444  0.222222  0.000000      2.000000
 -0.333333  0.222222  0.000000      2.000000
 -0.222222  0.222222  0.000000      2.000000
 -0.111111  0.222222  0.000000      2.000000
  0.000000  0.333333  0.000000      2.000000
  0.111111  0.333333  0.000000      2.000000
  0.222222  0.333333  0.000000      2.000000
  0.333333  0.333333  0.000000      2.000000
  0.444444  0.333333  0.000000      2.000000
 -0.444444  0.333333  0.000000      2.000000
 -0.333333  0.333333  0.000000      2.000000
 -0.222222  0.333333  0.000000      2.000000
 -0.111111  0.333333  0.000000      2.000000
 -0.000000  0.444444  0.000000      2.000000
  0.111111  0.444444  0.000000      2.000000
  0.222222  0.444444  0.000000      2.000000
  0.333333  0.444444  0.000000      2.000000
  0.444444  0.444444  0.000000      2.000000
 -0.444444  0.444444  0.000000      2.000000
 -0.333333  0.444444  0.000000      2.000000
 -0.222222  0.444444  0.000000      2.000000
 -0.111111  0.444444  0.000000      2.000000
  0.000000  0.000000  0.250000      2.000000
  0.111111 -0.000000  0.250000      2.000000
  0.222222 -0.000000  0.250000      2.000000
  0.333333  0.000000  0.250000      2.000000
  0.444444 -0.000000  0.250000      2.000000
 -0.444444  0.000000  0.250000      2.000000
 -0.333333 -0.000000  0.250000      2.000000
 -0.222222  0.000000  0.250000      2.000000
 -0.111111  0.000000  0.250000      2.000000
  0.000000  0.111111  0.250000      2.000000
  0.111111  0.111111  0.250000      2.000000
  0.222222  0.111111  0.250000      2.000000
  0.333333  0.111111  0.250000      2.000000
  0.444444  0.111111  0.250000      2.000000
 -0.444444  0.111111  0.250000      2.000000
 -0.333333  0.111111  0.250000      2.000000
 -0.222222  0.111111  0.250000      2.000000
 -0.111111  0.111111  0.250000      2.000000
 -0.000000  0.222222  0.250000      2.000000
  0.111111  0.222222  0.250000      2.000000
  0.222222  0.222222  0.250000      2.000000
  0.333333  0.222222  0.250000      2.000000
  0.444444  0.222222  0.250000      2.000000
 -0.444444  0.222222  0.250000      2.000000
 -0.333333  0.222222  0.250000      2.000000
 -0.222222  0.222222  0.250000      2.000000
 -0.111111  0.222222  0.250000      2.000000
  0.000000  0.333333  0.250000      2.000000
  0.111111  0.333333  0.250000      2.000000
  0.222222  0.333333  0.250000      2.000000
  0.333333  0.333333  0.250000      2.000000
  0.444444  0.333333  0.250000      2.000000
 -0.444444  0.333333  0.250000      2.000000
 -0.333333  0.333333  0.250000      2.000000
 -0.222222  0.333333  0.250000      2.000000
 -0.111111  0.333333  0.250000      2.000000
 -0.000000  0.444444  0.250000      2.000000
  0.111111  0.444444  0.250000      2.000000
  0.222222  0.444444  0.250000      2.000000
  0.333333  0.444444  0.250000      2.000000
  0.444444  0.444444  0.250000      2.000000
 -0.444444  0.444444  0.250000      2.000000
 -0.333333  0.444444  0.250000      2.000000
 -0.222222  0.444444  0.250000      2.000000
 -0.111111  0.444444  0.250000      2.000000
  0.000000 -0.444444  0.250000      2.000000
  0.111111 -0.444444  0.250000      2.000000
  0.222222 -0.444444  0.250000      2.000000
  0.333333 -0.444444  0.250000      2.000000
  0.444444 -0.444444  0.250000      2.000000
 -0.444444 -0.444444  0.250000      2.000000
 -0.333333 -0.444444  0.250000      2.000000
 -0.222222 -0.444444  0.250000      2.000000
 -0.111111 -0.444444  0.250000      2.000000
  0.000000 -0.333333  0.250000      2.000000
  0.111111 -0.333333  0.250000      2.000000
  0.222222 -0.333333  0.250000      2.000000
  0.333333 -0.333333  0.250000      2.000000
  0.444444 -0.333333  0.250000      2.000000
 -0.444444 -0.333333  0.250000      2.000000
 -0.333333 -0.333333  0.250000      2.000000
 -0.222222 -0.333333  0.250000      2.000000
 -0.111111 -0.333333  0.250000      2.000000
  0.000000 -0.222222  0.250000      2.000000
  0.111111 -0.222222  0.250000      2.000000
  0.222222 -0.222222  0.250000      2.000000
  0.333333 -0.222222  0.250000      2.000000
  0.444444 -0.222222  0.250000      2.000000
 -0.444444 -0.222222  0.250000      2.000000
 -0.333333 -0.222222  0.250000      2.000000
 -0.222222 -0.222222  0.250000      2.000000
 -0.111111 -0.222222  0.250000      2.000000
  0.000000 -0.111111  0.250000      2.000000
  0.111111 -0.111111  0.250000      2.000000
  0.222222 -0.111111  0.250000      2.000000
  0.333333 -0.111111  0.250000      2.000000
  0.444444 -0.111111  0.250000      2.000000
 -0.444444 -0.111111  0.250000      2.000000
 -0.333333 -0.111111  0.250000      2.000000
 -0.222222 -0.111111  0.250000      2.000000
 -0.111111 -0.111111  0.250000      2.000000
  0.000000  0.000000  0.500000      1.000000
  0.111111 -0.000000  0.500000      2.000000
  0.222222 -0.000000  0.500000      2.000000
  0.333333  0.000000  0.500000      2.000000
  0.444444 -0.000000  0.500000      2.000000
  0.000000  0.111111  0.500000      2.000000
  0.111111  0.111111  0.500000      2.000000
  0.222222  0.111111  0.500000      2.000000
  0.333333  0.111111  0.500000      2.000000
  0.444444  0.111111  0.500000      2.000000
 -0.444444  0.111111  0.500000      2.000000
 -0.333333  0.111111  0.500000      2.000000
 -0.222222  0.111111  0.500000      2.000000
 -0.111111  0.111111  0.500000      2.000000
 -0.000000  0.222222  0.500000      2.000000
  0.111111  0.222222  0.500000      2.000000
  0.222222  0.222222  0.500000      2.000000
  0.333333  0.222222  0.500000      2.000000
  0.444444  0.222222  0.500000      2.000000
 -0.444444  0.222222  0.500000      2.000000
 -0.333333  0.222222  0.500000      2.000000
 -0.222222  0.222222  0.500000      2.000000
 -0.111111  0.222222  0.500000      2.000000
  0.000000  0.333333  0.500000      2.000000
  0.111111  0.333333  0.500000      2.000000
  0.222222  0.333333  0.500000      2.000000
  0.333333  0.333333  0.500000      2.000000
  0.444444  0.333333  0.500000      2.000000
 -0.444444  0.333333  0.500000      2.000000
 -0.333333  0.333333  0.500000      2.000000
 -0.222222  0.333333  0.500000      2.000000
 -0.111111  0.333333  0.500000      2.000000
 -0.000000  0.444444  0.500000      2.000000
  0.111111  0.444444  0.500000      2.000000
  0.222222  0.444444  0.500000      2.000000
  0.333333  0.444444  0.500000      2.000000
  0.444444  0.444444  0.500000      2.000000
 -0.444444  0.444444  0.500000      2.000000
 -0.333333  0.444444  0.500000      2.000000
 -0.222222  0.444444  0.500000      2.000000
 -0.111111  0.444444  0.500000      2.000000
 
 Following cartesian coordinates:
            Coordinates               Weight
  0.000000  0.000000  0.000000      1.000000
  0.022519  0.013002  0.000000      2.000000
  0.045037  0.026005  0.000000      2.000000
  0.067556  0.039007  0.000000      2.000000
  0.090075  0.052010  0.000000      2.000000
  0.000001  0.026003  0.000000      2.000000
  0.022520  0.039005  0.000000      2.000000
  0.045038  0.052008  0.000000      2.000000
  0.067557  0.065010  0.000000      2.000000
  0.090076  0.078013  0.000000      2.000000
 -0.090073 -0.026007  0.000000      2.000000
 -0.067555 -0.013005  0.000000      2.000000
 -0.045036 -0.000002  0.000000      2.000000
 -0.022517  0.013000  0.000000      2.000000
  0.000002  0.052006  0.000000      2.000000
  0.022521  0.065008  0.000000      2.000000
  0.045040  0.078011  0.000000      2.000000
  0.067558  0.091013  0.000000      2.000000
  0.090077  0.104016  0.000000      2.000000
 -0.090072 -0.000004  0.000000      2.000000
 -0.067554  0.012998  0.000000      2.000000
 -0.045035  0.026001  0.000000      2.000000
 -0.022516  0.039003  0.000000      2.000000
  0.000004  0.078009  0.000000      2.000000
  0.022522  0.091011  0.000000      2.000000
  0.045041  0.104014  0.000000      2.000000
  0.067559  0.117016  0.000000      2.000000
  0.090078  0.130019  0.000000      2.000000
 -0.090071  0.025999  0.000000      2.000000
 -0.067552  0.039001  0.000000      2.000000
 -0.045034  0.052004  0.000000      2.000000
 -0.022515  0.065006  0.000000      2.000000
  0.000005  0.104012  0.000000      2.000000
  0.022523  0.117014  0.000000      2.000000
  0.045042  0.130017  0.000000      2.000000
  0.067561  0.143019  0.000000      2.000000
  0.090079  0.156022  0.000000      2.000000
 -0.090070  0.052002  0.000000      2.000000
 -0.067551  0.065004  0.000000      2.000000
 -0.045033  0.078007  0.000000      2.000000
 -0.022514  0.091009  0.000000      2.000000
  0.000000  0.000000  0.030976      2.000000
  0.022519  0.013002  0.030976      2.000000
  0.045037  0.026005  0.030976      2.000000
  0.067556  0.039007  0.030976      2.000000
  0.090075  0.052010  0.030976      2.000000
 -0.090075 -0.052010  0.030976      2.000000
 -0.067556 -0.039007  0.030976      2.000000
 -0.045037 -0.026005  0.030976      2.000000
 -0.022519 -0.013002  0.030976      2.000000
  0.000001  0.026003  0.030976      2.000000
  0.022520  0.039005  0.030976      2.000000
  0.045038  0.052008  0.030976      2.000000
  0.067557  0.065010  0.030976      2.000000
  0.090076  0.078013  0.030976      2.000000
 -0.090073 -0.026007  0.030976      2.000000
 -0.067555 -0.013005  0.030976      2.000000
 -0.045036 -0.000002  0.030976      2.000000
 -0.022517  0.013000  0.030976      2.000000
  0.000002  0.052006  0.030976      2.000000
  0.022521  0.065008  0.030976      2.000000
  0.045040  0.078011  0.030976      2.000000
  0.067558  0.091013  0.030976      2.000000
  0.090077  0.104016  0.030976      2.000000
 -0.090072 -0.000004  0.030976      2.000000
 -0.067554  0.012998  0.030976      2.000000
 -0.045035  0.026001  0.030976      2.000000
 -0.022516  0.039003  0.030976      2.000000
  0.000004  0.078009  0.030976      2.000000
  0.022522  0.091011  0.030976      2.000000
  0.045041  0.104014  0.030976      2.000000
  0.067559  0.117016  0.030976      2.000000
  0.090078  0.130019  0.030976      2.000000
 -0.090071  0.025999  0.030976      2.000000
 -0.067552  0.039001  0.030976      2.000000
 -0.045034  0.052004  0.030976      2.000000
 -0.022515  0.065006  0.030976      2.000000
  0.000005  0.104012  0.030976      2.000000
  0.022523  0.117014  0.030976      2.000000
  0.045042  0.130017  0.030976      2.000000
  0.067561  0.143019  0.030976      2.000000
  0.090079  0.156022  0.030976      2.000000
 -0.090070  0.052002  0.030976      2.000000
 -0.067551  0.065004  0.030976      2.000000
 -0.045033  0.078007  0.030976      2.000000
 -0.022514  0.091009  0.030976      2.000000
 -0.000005 -0.104012  0.030976      2.000000
  0.022514 -0.091009  0.030976      2.000000
  0.045033 -0.078007  0.030976      2.000000
  0.067551 -0.065004  0.030976      2.000000
  0.090070 -0.052002  0.030976      2.000000
 -0.090079 -0.156022  0.030976      2.000000
 -0.067561 -0.143019  0.030976      2.000000
 -0.045042 -0.130017  0.030976      2.000000
 -0.022523 -0.117014  0.030976      2.000000
 -0.000004 -0.078009  0.030976      2.000000
  0.022515 -0.065006  0.030976      2.000000
  0.045034 -0.052004  0.030976      2.000000
  0.067552 -0.039001  0.030976      2.000000
  0.090071 -0.025999  0.030976      2.000000
 -0.090078 -0.130019  0.030976      2.000000
 -0.067559 -0.117016  0.030976      2.000000
 -0.045041 -0.104014  0.030976      2.000000
 -0.022522 -0.091011  0.030976      2.000000
 -0.000002 -0.052006  0.030976      2.000000
  0.022516 -0.039003  0.030976      2.000000
  0.045035 -0.026001  0.030976      2.000000
  0.067554 -0.012998  0.030976      2.000000
  0.090072  0.000004  0.030976      2.000000
 -0.090077 -0.104016  0.030976      2.000000
 -0.067558 -0.091013  0.030976      2.000000
 -0.045040 -0.078011  0.030976      2.000000
 -0.022521 -0.065008  0.030976      2.000000
 -0.000001 -0.026003  0.030976      2.000000
  0.022517 -0.013000  0.030976      2.000000
  0.045036  0.000002  0.030976      2.000000
  0.067555  0.013005  0.030976      2.000000
  0.090073  0.026007  0.030976      2.000000
 -0.090076 -0.078013  0.030976      2.000000
 -0.067557 -0.065010  0.030976      2.000000
 -0.045038 -0.052008  0.030976      2.000000
 -0.022520 -0.039005  0.030976      2.000000
  0.000000  0.000000  0.061951      1.000000
  0.022519  0.013002  0.061951      2.000000
  0.045037  0.026005  0.061951      2.000000
  0.067556  0.039007  0.061951      2.000000
  0.090075  0.052010  0.061951      2.000000
  0.000001  0.026003  0.061951      2.000000
  0.022520  0.039005  0.061951      2.000000
  0.045038  0.052008  0.061951      2.000000
  0.067557  0.065010  0.061951      2.000000
  0.090076  0.078013  0.061951      2.000000
 -0.090073 -0.026007  0.061951      2.000000
 -0.067555 -0.013005  0.061951      2.000000
 -0.045036 -0.000002  0.061951      2.000000
 -0.022517  0.013000  0.061951      2.000000
  0.000002  0.052006  0.061951      2.000000
  0.022521  0.065008  0.061951      2.000000
  0.045040  0.078011  0.061951      2.000000
  0.067558  0.091013  0.061951      2.000000
  0.090077  0.104016  0.061951      2.000000
 -0.090072 -0.000004  0.061951      2.000000
 -0.067554  0.012998  0.061951      2.000000
 -0.045035  0.026001  0.061951      2.000000
 -0.022516  0.039003  0.061951      2.000000
  0.000004  0.078009  0.061951      2.000000
  0.022522  0.091011  0.061951      2.000000
  0.045041  0.104014  0.061951      2.000000
  0.067559  0.117016  0.061951      2.000000
  0.090078  0.130019  0.061951      2.000000
 -0.090071  0.025999  0.061951      2.000000
 -0.067552  0.039001  0.061951      2.000000
 -0.045034  0.052004  0.061951      2.000000
 -0.022515  0.065006  0.061951      2.000000
  0.000005  0.104012  0.061951      2.000000
  0.022523  0.117014  0.061951      2.000000
  0.045042  0.130017  0.061951      2.000000
  0.067561  0.143019  0.061951      2.000000
  0.090079  0.156022  0.061951      2.000000
 -0.090070  0.052002  0.061951      2.000000
 -0.067551  0.065004  0.061951      2.000000
 -0.045033  0.078007  0.061951      2.000000
 -0.022514  0.091009  0.061951      2.000000
 
 TETIRR: Found    970 inequivalent tetrahedra from     1944


--------------------------------------------------------------------------------------------------------




 Dimension of arrays:
   k-points           NKPTS =    163   k-points in BZ     NKDIM =    163   number of bands    NBANDS=     84
   number of dos      NEDOS =    301   number of ions     NIONS =     32
   non local maximal  LDIM  =      4   non local SUM 2l+1 LMDIM =      8
   total plane-waves  NPLWV = 102400
   max r-space proj   IRMAX =      1   max aug-charges    IRDMAX=   7300
   dimension x,y,z NGX =    40 NGY =   40 NGZ =   64
   dimension x,y,z NGXF=    80 NGYF=   80 NGZF=  128
   support grid    NGXF=    80 NGYF=   80 NGZF=  128
   ions per type =              32
 NGX,Y,Z   is equivalent  to a cutoff of  13.48, 13.48, 13.18 a.u.
 NGXF,Y,Z  is equivalent  to a cutoff of  26.95, 26.95, 26.37 a.u.


 I would recommend the setting:
   dimension x,y,z NGX =    39 NGY =   39 NGZ =   64
 SYSTEM =  graphite                                
 POSCAR =  C                                       

 Startparameter for this run:
   NWRITE =      2    write-flag & timer
   PREC   = accura    normal or accurate (medium, high low for compatibility)
   ISTART =      0    job   : 0-new  1-cont  2-samecut
   ICHARG =      2    charge: 1-file 2-atom 10-const
   ISPIN  =      1    spin polarized calculation?
   LNONCOLLINEAR =      F non collinear calculations
   LSORBIT =      F    spin-orbit coupling
   INIWAV =      1    electr: 0-lowe 1-rand  2-diag
   LASPH  =      F    aspherical Exc in radial PAW
   METAGGA=      F    non-selfconsistent MetaGGA calc.

 Electronic Relaxation 1
   ENCUT  =  600.0 eV  44.10 Ry    6.64 a.u.   9.86  9.86 16.12*2*pi/ulx,y,z
   ENINI  =  600.0     initial cutoff
   ENAUG  =  644.9 eV  augmentation charge cutoff
   NELM   =    200;   NELMIN=  2; NELMDL=  0     # of ELM steps 
   EDIFF  = 0.1E-05   stopping-criterion for ELM
   LREAL  =      F    real-space projection
   NLSPLINE    = F    spline interpolate recip. space projectors
   LCOMPAT=      F    compatible to vasp.4.4
   GGA_COMPAT  = T    GGA compatible to vasp.4.4-vasp.4.6
   LMAXPAW     = -100 max onsite density
   LMAXMIX     =    2 max onsite mixed and CHGCAR
   VOSKOWN=      0    Vosko Wilk Nusair interpolation
   ROPT   =    0.00000
 Ionic relaxation
   EDIFFG = 0.1E-02   stopping-criterion for IOM
   NSW    =      0    number of steps for IOM
   NBLOCK =      1;   KBLOCK =      1    inner block; outer block 
   IBRION =     -1    ionic relax: 0-MD 1-quasi-New 2-CG
   NFREE  =      0    steps in history (QN), initial steepest desc. (CG)
   ISIF   =      2    stress and relaxation
   IWAVPR =     10    prediction:  0-non 1-charg 2-wave 3-comb
   ISYM   =      2    0-nonsym 1-usesym 2-fastsym
   LCORR  =      T    Harris-Foulkes like correction to forces

   POTIM  = 0.5000    time-step for ionic-motion
   TEIN   =    0.0    initial temperature
   TEBEG  =    0.0;   TEEND  =   0.0 temperature during run
   SMASS  =  -3.00    Nose mass-parameter (am)
   estimated Nose-frequenzy (Omega)   =  0.10E-29 period in steps =****** mass=  -0.556E-27a.u.
   SCALEE = 1.0000    scale energy and forces
   NPACO  =    256;   APACO  = 16.0  distance and # of slots for P.C.
   PSTRESS=    0.0 pullay stress

  Mass of Ions in am
   POMASS =  12.01
  Ionic Valenz
   ZVAL   =   4.00
  Atomic Wigner-Seitz radii
   RWIGS  =  -1.00
  virtual crystal weights 
   VCA    =   1.00
   NELECT =     128.0000    total number of electrons
   NUPDOWN=      -1.0000    fix difference up-down

 DOS related values:
   EMIN   =  10.00;   EMAX   =-10.00  energy-range for DOS
   EFERMI =   0.00
   ISMEAR =    -5;   SIGMA  =   0.20  broadening in eV -4-tet -1-fermi 0-gaus

 Electronic relaxation 2 (details)
   IALGO  =     38    algorithm
   LDIAG  =      T    sub-space diagonalisation (order eigenvalues)
   LSUBROT=      F    optimize rotation matrix (better conditioning)
   TURBO    =      0    0=normal 1=particle mesh
   IRESTART =      0    0=no restart 2=restart with 2 vectors
   NREBOOT  =      0    no. of reboots
   NMIN     =      0    reboot dimension
   EREF     =   0.00    reference energy to select bands
   IMIX   =      4    mixing-type and parameters
     AMIX     =   0.40;   BMIX     =  1.00
     AMIX_MAG =   1.60;   BMIX_MAG =  1.00
     AMIN     =   0.10
     WC   =   100.;   INIMIX=   1;  MIXPRE=   1;  MAXMIX= -45

 Intra band minimization:
   WEIMIN = 0.0000     energy-eigenvalue tresh-hold
   EBREAK =  0.30E-08  absolut break condition
   DEPER  =   0.30     relativ break condition  

   TIME   =   0.40     timestep for ELM

  volume/ion in A,a.u.               =       5.32        35.89
  Fermi-wavevector in a.u.,A,eV,Ry     =   1.488849  2.813517 30.159644  2.216671
  Thomas-Fermi vector in A             =   2.601832
 
 Write flags
   LWAVE  =      F    write WAVECAR
   LCHARG =      F    write CHGCAR
   LVTOT  =      F    write LOCPOT, total local potential
   LVHAR  =      F    write LOCPOT, Hartree potential only
   LELF   =      F    write electronic localiz. function (ELF)
   LORBIT =      0    0 simple, 1 ext, 2 COOP (PROOUT)


 Dipole corrections
   LMONO  =      F    monopole corrections only (constant potential shift)
   LDIPOL =      F    correct potential (dipole corrections)
   IDIPOL =      0    1-x, 2-y, 3-z, 4-all directions 
   EPSILON=  1.0000000 bulk dielectric constant

 Exchange correlation treatment:
   GGA     =    PE    GGA type
   LEXCH   =     8    internal setting for exchange type
   VOSKOWN=      0    Vosko Wilk Nusair interpolation
   LHFCALC =     F    Hartree Fock is set to
   LHFONE  =     F    Hartree Fock one center treatment
   AEXX    =    0.0000 exact exchange contribution

 Linear response parameters
   LEPSILON=     F    determine dielectric tensor
   LRPA    =     F    only Hartree local field effects (RPA)
   LNABLA  =     F    use nabla operator in PAW spheres
   LVEL    =     F    velocity operator in full k-point grid
   LINTERFAST=   F  fast interpolation
   KINTER  =     0    interpolate to denser k-point grid
   CSHIFT  =0.1000    complex shift for real part using Kramers Kronig
   OMEGAMAX=  -1.0    maximum frequency
   DEG_THRESHOLD= 0.2000000E-02 threshold for treating states as degnerate
   RTIME   =    0.100 relaxation time in fs

 Orbital magnetization related:
   ORBITALMAG=     F  switch on orbital magnetization
   LCHIMAG   =     F  perturbation theory with respect to B field
   DQ        =  0.001000  dq finite difference perturbation B field



--------------------------------------------------------------------------------------------------------


 Static calculation
 charge density and potential will be updated during run
 non-spin polarized calculation
 Variant of blocked Davidson
 Davidson routine will perform the subspace rotation
 perform sub-space diagonalisation
    after iterative eigenvector-optimisation
 modified Broyden-mixing scheme, WC =      100.0
 initial mixing is a Kerker type mixing with AMIX =  0.4000 and BMIX =      1.0000
 Hartree-type preconditioning will be used
 using additional bands           20
 reciprocal scheme for non local part
 calculate Harris-corrections to forces 
   (improved forces if not selfconsistent)
 use gradient corrections 
 use of overlap-Matrix (Vanderbilt PP)
 Fermi weights with tetrahedron method with Bloechl corrections


--------------------------------------------------------------------------------------------------------


  energy-cutoff  :      600.00
  volume of cell :      170.17
      direct lattice vectors                 reciprocal lattice vectors
     4.934310885 -0.000222400  0.000000000     0.202667819  0.117022500  0.000000000
    -2.467348046  4.273127376  0.000000000     0.000010548  0.234026730  0.000000000
     0.000000000  0.000000000  8.070890774     0.000000000  0.000000000  0.123902061

  length of vectors
     4.934310890  4.934310890  8.070890774     0.234026730  0.234026730  0.123902061


 
 k-points in units of 2pi/SCALE and weight: B4C B11C-CBC                            
   0.00000000  0.00000000  0.00000000       0.003
   0.02251865  0.01300250  0.00000000       0.006
   0.04503729  0.02600500  0.00000000       0.006
   0.06755594  0.03900750  0.00000000       0.006
   0.09007459  0.05201000  0.00000000       0.006
   0.00000117  0.02600297  0.00000000       0.006
   0.02251982  0.03900547  0.00000000       0.006
   0.04503847  0.05200797  0.00000000       0.006
   0.06755711  0.06501047  0.00000000       0.006
   0.09007576  0.07801297  0.00000000       0.006
  -0.09007341 -0.02600703  0.00000000       0.006
  -0.06755477 -0.01300453  0.00000000       0.006
  -0.04503612 -0.00000203  0.00000000       0.006
  -0.02251747  0.01300047  0.00000000       0.006
   0.00000234  0.05200594  0.00000000       0.006
   0.02252099  0.06500844  0.00000000       0.006
   0.04503964  0.07801094  0.00000000       0.006
   0.06755828  0.09101344  0.00000000       0.006
   0.09007693  0.10401594  0.00000000       0.006
  -0.09007224 -0.00000406  0.00000000       0.006
  -0.06755360  0.01299844  0.00000000       0.006
  -0.04503495  0.02600094  0.00000000       0.006
  -0.02251630  0.03900344  0.00000000       0.006
   0.00000352  0.07800891  0.00000000       0.006
   0.02252216  0.09101141  0.00000000       0.006
   0.04504081  0.10401391  0.00000000       0.006
   0.06755946  0.11701641  0.00000000       0.006
   0.09007810  0.13001891  0.00000000       0.006
  -0.09007107  0.02599891  0.00000000       0.006
  -0.06755242  0.03900141  0.00000000       0.006
  -0.04503378  0.05200391  0.00000000       0.006
  -0.02251513  0.06500641  0.00000000       0.006
   0.00000469  0.10401188  0.00000000       0.006
   0.02252333  0.11701438  0.00000000       0.006
   0.04504198  0.13001688  0.00000000       0.006
   0.06756063  0.14301938  0.00000000       0.006
   0.09007927  0.15602188  0.00000000       0.006
  -0.09006990  0.05200188  0.00000000       0.006
  -0.06755125  0.06500438  0.00000000       0.006
  -0.04503261  0.07800688  0.00000000       0.006
  -0.02251396  0.09100938  0.00000000       0.006
   0.00000000  0.00000000  0.03097552       0.006
   0.02251865  0.01300250  0.03097552       0.006
   0.04503729  0.02600500  0.03097552       0.006
   0.06755594  0.03900750  0.03097552       0.006
   0.09007459  0.05201000  0.03097552       0.006
  -0.09007459 -0.05201000  0.03097552       0.006
  -0.06755594 -0.03900750  0.03097552       0.006
  -0.04503729 -0.02600500  0.03097552       0.006
  -0.02251865 -0.01300250  0.03097552       0.006
   0.00000117  0.02600297  0.03097552       0.006
   0.02251982  0.03900547  0.03097552       0.006
   0.04503847  0.05200797  0.03097552       0.006
   0.06755711  0.06501047  0.03097552       0.006
   0.09007576  0.07801297  0.03097552       0.006
  -0.09007341 -0.02600703  0.03097552       0.006
  -0.06755477 -0.01300453  0.03097552       0.006
  -0.04503612 -0.00000203  0.03097552       0.006
  -0.02251747  0.01300047  0.03097552       0.006
   0.00000234  0.05200594  0.03097552       0.006
   0.02252099  0.06500844  0.03097552       0.006
   0.04503964  0.07801094  0.03097552       0.006
   0.06755828  0.09101344  0.03097552       0.006
   0.09007693  0.10401594  0.03097552       0.006
  -0.09007224 -0.00000406  0.03097552       0.006
  -0.06755360  0.01299844  0.03097552       0.006
  -0.04503495  0.02600094  0.03097552       0.006
  -0.02251630  0.03900344  0.03097552       0.006
   0.00000352  0.07800891  0.03097552       0.006
   0.02252216  0.09101141  0.03097552       0.006
   0.04504081  0.10401391  0.03097552       0.006
   0.06755946  0.11701641  0.03097552       0.006
   0.09007810  0.13001891  0.03097552       0.006
  -0.09007107  0.02599891  0.03097552       0.006
  -0.06755242  0.03900141  0.03097552       0.006
  -0.04503378  0.05200391  0.03097552       0.006
  -0.02251513  0.06500641  0.03097552       0.006
   0.00000469  0.10401188  0.03097552       0.006
   0.02252333  0.11701438  0.03097552       0.006
   0.04504198  0.13001688  0.03097552       0.006
   0.06756063  0.14301938  0.03097552       0.006
   0.09007927  0.15602188  0.03097552       0.006
  -0.09006990  0.05200188  0.03097552       0.006
  -0.06755125  0.06500438  0.03097552       0.006
  -0.04503261  0.07800688  0.03097552       0.006
  -0.02251396  0.09100938  0.03097552       0.006
  -0.00000469 -0.10401188  0.03097552       0.006
   0.02251396 -0.09100938  0.03097552       0.006
   0.04503261 -0.07800688  0.03097552       0.006
   0.06755125 -0.06500438  0.03097552       0.006
   0.09006990 -0.05200188  0.03097552       0.006
  -0.09007927 -0.15602188  0.03097552       0.006
  -0.06756063 -0.14301938  0.03097552       0.006
  -0.04504198 -0.13001688  0.03097552       0.006
  -0.02252333 -0.11701438  0.03097552       0.006
  -0.00000352 -0.07800891  0.03097552       0.006
   0.02251513 -0.06500641  0.03097552       0.006
   0.04503378 -0.05200391  0.03097552       0.006
   0.06755242 -0.03900141  0.03097552       0.006
   0.09007107 -0.02599891  0.03097552       0.006
  -0.09007810 -0.13001891  0.03097552       0.006
  -0.06755946 -0.11701641  0.03097552       0.006
  -0.04504081 -0.10401391  0.03097552       0.006
  -0.02252216 -0.09101141  0.03097552       0.006
  -0.00000234 -0.05200594  0.03097552       0.006
   0.02251630 -0.03900344  0.03097552       0.006
   0.04503495 -0.02600094  0.03097552       0.006
   0.06755360 -0.01299844  0.03097552       0.006
   0.09007224  0.00000406  0.03097552       0.006
  -0.09007693 -0.10401594  0.03097552       0.006
  -0.06755828 -0.09101344  0.03097552       0.006
  -0.04503964 -0.07801094  0.03097552       0.006
  -0.02252099 -0.06500844  0.03097552       0.006
  -0.00000117 -0.02600297  0.03097552       0.006
   0.02251747 -0.01300047  0.03097552       0.006
   0.04503612  0.00000203  0.03097552       0.006
   0.06755477  0.01300453  0.03097552       0.006
   0.09007341  0.02600703  0.03097552       0.006
  -0.09007576 -0.07801297  0.03097552       0.006
  -0.06755711 -0.06501047  0.03097552       0.006
  -0.04503847 -0.05200797  0.03097552       0.006
  -0.02251982 -0.03900547  0.03097552       0.006
   0.00000000  0.00000000  0.06195103       0.003
   0.02251865  0.01300250  0.06195103       0.006
   0.04503729  0.02600500  0.06195103       0.006
   0.06755594  0.03900750  0.06195103       0.006
   0.09007459  0.05201000  0.06195103       0.006
   0.00000117  0.02600297  0.06195103       0.006
   0.02251982  0.03900547  0.06195103       0.006
   0.04503847  0.05200797  0.06195103       0.006
   0.06755711  0.06501047  0.06195103       0.006
   0.09007576  0.07801297  0.06195103       0.006
  -0.09007341 -0.02600703  0.06195103       0.006
  -0.06755477 -0.01300453  0.06195103       0.006
  -0.04503612 -0.00000203  0.06195103       0.006
  -0.02251747  0.01300047  0.06195103       0.006
   0.00000234  0.05200594  0.06195103       0.006
   0.02252099  0.06500844  0.06195103       0.006
   0.04503964  0.07801094  0.06195103       0.006
   0.06755828  0.09101344  0.06195103       0.006
   0.09007693  0.10401594  0.06195103       0.006
  -0.09007224 -0.00000406  0.06195103       0.006
  -0.06755360  0.01299844  0.06195103       0.006
  -0.04503495  0.02600094  0.06195103       0.006
  -0.02251630  0.03900344  0.06195103       0.006
   0.00000352  0.07800891  0.06195103       0.006
   0.02252216  0.09101141  0.06195103       0.006
   0.04504081  0.10401391  0.06195103       0.006
   0.06755946  0.11701641  0.06195103       0.006
   0.09007810  0.13001891  0.06195103       0.006
  -0.09007107  0.02599891  0.06195103       0.006
  -0.06755242  0.03900141  0.06195103       0.006
  -0.04503378  0.05200391  0.06195103       0.006
  -0.02251513  0.06500641  0.06195103       0.006
   0.00000469  0.10401188  0.06195103       0.006
   0.02252333  0.11701438  0.06195103       0.006
   0.04504198  0.13001688  0.06195103       0.006
   0.06756063  0.14301938  0.06195103       0.006
   0.09007927  0.15602188  0.06195103       0.006
  -0.09006990  0.05200188  0.06195103       0.006
  -0.06755125  0.06500438  0.06195103       0.006
  -0.04503261  0.07800688  0.06195103       0.006
  -0.02251396  0.09100938  0.06195103       0.006
 
 k-points in reciprocal lattice and weights: B4C B11C-CBC                            
   0.00000000  0.00000000  0.00000000       0.003
   0.11111111 -0.00000000  0.00000000       0.006
   0.22222222 -0.00000000  0.00000000       0.006
   0.33333333  0.00000000  0.00000000       0.006
   0.44444444 -0.00000000  0.00000000       0.006
   0.00000000  0.11111111  0.00000000       0.006
   0.11111111  0.11111111  0.00000000       0.006
   0.22222222  0.11111111  0.00000000       0.006
   0.33333333  0.11111111  0.00000000       0.006
   0.44444444  0.11111111  0.00000000       0.006
  -0.44444444  0.11111111  0.00000000       0.006
  -0.33333333  0.11111111  0.00000000       0.006
  -0.22222222  0.11111111  0.00000000       0.006
  -0.11111111  0.11111111  0.00000000       0.006
  -0.00000000  0.22222222  0.00000000       0.006
   0.11111111  0.22222222  0.00000000       0.006
   0.22222222  0.22222222  0.00000000       0.006
   0.33333333  0.22222222  0.00000000       0.006
   0.44444444  0.22222222  0.00000000       0.006
  -0.44444444  0.22222222  0.00000000       0.006
  -0.33333333  0.22222222  0.00000000       0.006
  -0.22222222  0.22222222  0.00000000       0.006
  -0.11111111  0.22222222  0.00000000       0.006
   0.00000000  0.33333333  0.00000000       0.006
   0.11111111  0.33333333  0.00000000       0.006
   0.22222222  0.33333333  0.00000000       0.006
   0.33333333  0.33333333  0.00000000       0.006
   0.44444444  0.33333333  0.00000000       0.006
  -0.44444444  0.33333333  0.00000000       0.006
  -0.33333333  0.33333333  0.00000000       0.006
  -0.22222222  0.33333333  0.00000000       0.006
  -0.11111111  0.33333333  0.00000000       0.006
  -0.00000000  0.44444444  0.00000000       0.006
   0.11111111  0.44444444  0.00000000       0.006
   0.22222222  0.44444444  0.00000000       0.006
   0.33333333  0.44444444  0.00000000       0.006
   0.44444444  0.44444444  0.00000000       0.006
  -0.44444444  0.44444444  0.00000000       0.006
  -0.33333333  0.44444444  0.00000000       0.006
  -0.22222222  0.44444444  0.00000000       0.006
  -0.11111111  0.44444444  0.00000000       0.006
   0.00000000  0.00000000  0.25000000       0.006
   0.11111111 -0.00000000  0.25000000       0.006
   0.22222222 -0.00000000  0.25000000       0.006
   0.33333333  0.00000000  0.25000000       0.006
   0.44444444 -0.00000000  0.25000000       0.006
  -0.44444444  0.00000000  0.25000000       0.006
  -0.33333333 -0.00000000  0.25000000       0.006
  -0.22222222  0.00000000  0.25000000       0.006
  -0.11111111  0.00000000  0.25000000       0.006
   0.00000000  0.11111111  0.25000000       0.006
   0.11111111  0.11111111  0.25000000       0.006
   0.22222222  0.11111111  0.25000000       0.006
   0.33333333  0.11111111  0.25000000       0.006
   0.44444444  0.11111111  0.25000000       0.006
  -0.44444444  0.11111111  0.25000000       0.006
  -0.33333333  0.11111111  0.25000000       0.006
  -0.22222222  0.11111111  0.25000000       0.006
  -0.11111111  0.11111111  0.25000000       0.006
  -0.00000000  0.22222222  0.25000000       0.006
   0.11111111  0.22222222  0.25000000       0.006
   0.22222222  0.22222222  0.25000000       0.006
   0.33333333  0.22222222  0.25000000       0.006
   0.44444444  0.22222222  0.25000000       0.006
  -0.44444444  0.22222222  0.25000000       0.006
  -0.33333333  0.22222222  0.25000000       0.006
  -0.22222222  0.22222222  0.25000000       0.006
  -0.11111111  0.22222222  0.25000000       0.006
   0.00000000  0.33333333  0.25000000       0.006
   0.11111111  0.33333333  0.25000000       0.006
   0.22222222  0.33333333  0.25000000       0.006
   0.33333333  0.33333333  0.25000000       0.006
   0.44444444  0.33333333  0.25000000       0.006
  -0.44444444  0.33333333  0.25000000       0.006
  -0.33333333  0.33333333  0.25000000       0.006
  -0.22222222  0.33333333  0.25000000       0.006
  -0.11111111  0.33333333  0.25000000       0.006
  -0.00000000  0.44444444  0.25000000       0.006
   0.11111111  0.44444444  0.25000000       0.006
   0.22222222  0.44444444  0.25000000       0.006
   0.33333333  0.44444444  0.25000000       0.006
   0.44444444  0.44444444  0.25000000       0.006
  -0.44444444  0.44444444  0.25000000       0.006
  -0.33333333  0.44444444  0.25000000       0.006
  -0.22222222  0.44444444  0.25000000       0.006
  -0.11111111  0.44444444  0.25000000       0.006
   0.00000000 -0.44444444  0.25000000       0.006
   0.11111111 -0.44444444  0.25000000       0.006
   0.22222222 -0.44444444  0.25000000       0.006
   0.33333333 -0.44444444  0.25000000       0.006
   0.44444444 -0.44444444  0.25000000       0.006
  -0.44444444 -0.44444444  0.25000000       0.006
  -0.33333333 -0.44444444  0.25000000       0.006
  -0.22222222 -0.44444444  0.25000000       0.006
  -0.11111111 -0.44444444  0.25000000       0.006
   0.00000000 -0.33333333  0.25000000       0.006
   0.11111111 -0.33333333  0.25000000       0.006
   0.22222222 -0.33333333  0.25000000       0.006
   0.33333333 -0.33333333  0.25000000       0.006
   0.44444444 -0.33333333  0.25000000       0.006
  -0.44444444 -0.33333333  0.25000000       0.006
  -0.33333333 -0.33333333  0.25000000       0.006
  -0.22222222 -0.33333333  0.25000000       0.006
  -0.11111111 -0.33333333  0.25000000       0.006
   0.00000000 -0.22222222  0.25000000       0.006
   0.11111111 -0.22222222  0.25000000       0.006
   0.22222222 -0.22222222  0.25000000       0.006
   0.33333333 -0.22222222  0.25000000       0.006
   0.44444444 -0.22222222  0.25000000       0.006
  -0.44444444 -0.22222222  0.25000000       0.006
  -0.33333333 -0.22222222  0.25000000       0.006
  -0.22222222 -0.22222222  0.25000000       0.006
  -0.11111111 -0.22222222  0.25000000       0.006
   0.00000000 -0.11111111  0.25000000       0.006
   0.11111111 -0.11111111  0.25000000       0.006
   0.22222222 -0.11111111  0.25000000       0.006
   0.33333333 -0.11111111  0.25000000       0.006
   0.44444444 -0.11111111  0.25000000       0.006
  -0.44444444 -0.11111111  0.25000000       0.006
  -0.33333333 -0.11111111  0.25000000       0.006
  -0.22222222 -0.11111111  0.25000000       0.006
  -0.11111111 -0.11111111  0.25000000       0.006
   0.00000000  0.00000000  0.50000000       0.003
   0.11111111 -0.00000000  0.50000000       0.006
   0.22222222 -0.00000000  0.50000000       0.006
   0.33333333  0.00000000  0.50000000       0.006
   0.44444444 -0.00000000  0.50000000       0.006
   0.00000000  0.11111111  0.50000000       0.006
   0.11111111  0.11111111  0.50000000       0.006
   0.22222222  0.11111111  0.50000000       0.006
   0.33333333  0.11111111  0.50000000       0.006
   0.44444444  0.11111111  0.50000000       0.006
  -0.44444444  0.11111111  0.50000000       0.006
  -0.33333333  0.11111111  0.50000000       0.006
  -0.22222222  0.11111111  0.50000000       0.006
  -0.11111111  0.11111111  0.50000000       0.006
  -0.00000000  0.22222222  0.50000000       0.006
   0.11111111  0.22222222  0.50000000       0.006
   0.22222222  0.22222222  0.50000000       0.006
   0.33333333  0.22222222  0.50000000       0.006
   0.44444444  0.22222222  0.50000000       0.006
  -0.44444444  0.22222222  0.50000000       0.006
  -0.33333333  0.22222222  0.50000000       0.006
  -0.22222222  0.22222222  0.50000000       0.006
  -0.11111111  0.22222222  0.50000000       0.006
   0.00000000  0.33333333  0.50000000       0.006
   0.11111111  0.33333333  0.50000000       0.006
   0.22222222  0.33333333  0.50000000       0.006
   0.33333333  0.33333333  0.50000000       0.006
   0.44444444  0.33333333  0.50000000       0.006
  -0.44444444  0.33333333  0.50000000       0.006
  -0.33333333  0.33333333  0.50000000       0.006
  -0.22222222  0.33333333  0.50000000       0.006
  -0.11111111  0.33333333  0.50000000       0.006
  -0.00000000  0.44444444  0.50000000       0.006
   0.11111111  0.44444444  0.50000000       0.006
   0.22222222  0.44444444  0.50000000       0.006
   0.33333333  0.44444444  0.50000000       0.006
   0.44444444  0.44444444  0.50000000       0.006
  -0.44444444  0.44444444  0.50000000       0.006
  -0.33333333  0.44444444  0.50000000       0.006
  -0.22222222  0.44444444  0.50000000       0.006
  -0.11111111  0.44444444  0.50000000       0.006
 
 position of ions in fractional coordinates (direct lattice) 
   0.50105696  0.00000017  0.12605711
   0.99999985  0.00000017  0.12500000
   0.49999985  0.50000017  0.12500000
   0.99999985  0.50000017  0.12500000
   0.49999985  0.00000017  0.62500000
   0.99999985  0.00000017  0.62500000
   0.49999985  0.50000017  0.62500000
   0.99999985  0.50000017  0.62500000
   0.00000017  0.49999985  0.37500000
   0.50000017  0.49999985  0.37500000
   0.00000017  0.99999985  0.37500000
   0.50000017  0.99999985  0.37500000
   0.00000017  0.49999985  0.87500000
   0.50000017  0.49999985  0.87500000
   0.00000017  0.99999985  0.87500000
   0.50000017  0.99999985  0.87500000
   0.16664946  0.33335053  0.12500000
   0.66664946  0.33335053  0.12500000
   0.16664946  0.83335053  0.12500000
   0.66664946  0.83335053  0.12500000
   0.16664946  0.33335053  0.62500000
   0.66664946  0.33335053  0.62500000
   0.16664946  0.83335053  0.62500000
   0.66664946  0.83335053  0.62500000
   0.33335053  0.16664946  0.37500000
   0.83335053  0.16664946  0.37500000
   0.33335053  0.66664946  0.37500000
   0.83335053  0.66664946  0.37500000
   0.33335053  0.16664946  0.87500000
   0.83335053  0.16664946  0.87500000
   0.33335053  0.66664946  0.87500000
   0.83335053  0.66664946  0.87500000
 
 position of ions in cartesian coordinates  (Angst):
   2.47237038 -0.00011069  1.01739318
   4.93430971 -0.00022165  1.00886135
   1.23348024  2.13645323  1.00886135
   3.70063568  2.13634203  1.00886135
   2.46715426 -0.00011045  5.04430673
   4.93430971 -0.00022165  5.04430673
   1.23348024  2.13645323  5.04430673
   3.70063568  2.13634203  5.04430673
  -1.23367279  2.13656304  3.02658404
   1.23348265  2.13645184  3.02658404
  -2.46734681  4.27312673  3.02658404
  -0.00019137  4.27301553  3.02658404
  -1.23367279  2.13656304  7.06202943
   1.23348265  2.13645184  7.06202943
  -2.46734681  4.27312673  7.06202943
  -0.00019137  4.27301553  7.06202943
  -0.00019150  1.42441220  1.00886135
   2.46696394  1.42430100  1.00886135
  -1.23386552  3.56097589  1.00886135
   1.23328992  3.56086469  1.00886135
  -0.00019150  1.42441220  5.04430673
   2.46696394  1.42430100  5.04430673
  -1.23386552  3.56097589  5.04430673
   1.23328992  3.56086469  5.04430673
   1.23367290  0.71204025  3.02658404
   3.70082834  0.71192905  3.02658404
  -0.00000112  2.84860394  3.02658404
   2.46715432  2.84849274  3.02658404
   1.23367290  0.71204025  7.06202943
   3.70082834  0.71192905  7.06202943
  -0.00000112  2.84860394  7.06202943
   2.46715432  2.84849274  7.06202943
 


--------------------------------------------------------------------------------------------------------


 k-point  1 :   0.0000 0.0000 0.0000  plane waves:    5637
 k-point  2 :   0.1111-0.0000 0.0000  plane waves:    5667
 k-point  3 :   0.2222-0.0000 0.0000  plane waves:    5663
 k-point  4 :   0.3333 0.0000 0.0000  plane waves:    5693
 k-point  5 :   0.4444-0.0000 0.0000  plane waves:    5693
 k-point  6 :   0.0000 0.1111 0.0000  plane waves:    5667
 k-point  7 :   0.1111 0.1111 0.0000  plane waves:    5658
 k-point  8 :   0.2222 0.1111 0.0000  plane waves:    5666
 k-point  9 :   0.3333 0.1111 0.0000  plane waves:    5670
 k-point 10 :   0.4444 0.1111 0.0000  plane waves:    5694
 k-point 11 :  -0.4444 0.1111 0.0000  plane waves:    5668
 k-point 12 :  -0.3333 0.1111 0.0000  plane waves:    5666
 k-point 13 :  -0.2222 0.1111 0.0000  plane waves:    5658
 k-point 14 :  -0.1111 0.1111 0.0000  plane waves:    5667
 k-point 15 :  -0.0000 0.2222 0.0000  plane waves:    5663
 k-point 16 :   0.1111 0.2222 0.0000  plane waves:    5666
 k-point 17 :   0.2222 0.2222 0.0000  plane waves:    5688
 k-point 18 :   0.3333 0.2222 0.0000  plane waves:    5682
 k-point 19 :   0.4444 0.2222 0.0000  plane waves:    5682
 k-point 20 :  -0.4444 0.2222 0.0000  plane waves:    5688
 k-point 21 :  -0.3333 0.2222 0.0000  plane waves:    5666
 k-point 22 :  -0.2222 0.2222 0.0000  plane waves:    5663
 k-point 23 :  -0.1111 0.2222 0.0000  plane waves:    5658
 k-point 24 :   0.0000 0.3333 0.0000  plane waves:    5693
 k-point 25 :   0.1111 0.3333 0.0000  plane waves:    5670
 k-point 26 :   0.2222 0.3333 0.0000  plane waves:    5682
 k-point 27 :   0.3333 0.3333 0.0000  plane waves:    5712
 k-point 28 :   0.4444 0.3333 0.0000  plane waves:    5682
 k-point 29 :  -0.4444 0.3333 0.0000  plane waves:    5668
 k-point 30 :  -0.3333 0.3333 0.0000  plane waves:    5693
 k-point 31 :  -0.2222 0.3333 0.0000  plane waves:    5666
 k-point 32 :  -0.1111 0.3333 0.0000  plane waves:    5666
 k-point 33 :  -0.0000 0.4444 0.0000  plane waves:    5693
 k-point 34 :   0.1111 0.4444 0.0000  plane waves:    5694
 k-point 35 :   0.2222 0.4444 0.0000  plane waves:    5682
 k-point 36 :   0.3333 0.4444 0.0000  plane waves:    5682
 k-point 37 :   0.4444 0.4444 0.0000  plane waves:    5694
 k-point 38 :  -0.4444 0.4444 0.0000  plane waves:    5693
 k-point 39 :  -0.3333 0.4444 0.0000  plane waves:    5668
 k-point 40 :  -0.2222 0.4444 0.0000  plane waves:    5688
 k-point 41 :  -0.1111 0.4444 0.0000  plane waves:    5668
 k-point 42 :   0.0000 0.0000 0.2500  plane waves:    5630
 k-point 43 :   0.1111-0.0000 0.2500  plane waves:    5668
 k-point 44 :   0.2222-0.0000 0.2500  plane waves:    5677
 k-point 45 :   0.3333 0.0000 0.2500  plane waves:    5682
 k-point 46 :   0.4444-0.0000 0.2500  plane waves:    5688
 k-point 47 :  -0.4444 0.0000 0.2500  plane waves:    5688
 k-point 48 :  -0.3333-0.0000 0.2500  plane waves:    5682
 k-point 49 :  -0.2222 0.0000 0.2500  plane waves:    5677
 k-point 50 :  -0.1111 0.0000 0.2500  plane waves:    5668
 k-point 51 :   0.0000 0.1111 0.2500  plane waves:    5668
 k-point 52 :   0.1111 0.1111 0.2500  plane waves:    5663
 k-point 53 :   0.2222 0.1111 0.2500  plane waves:    5677
 k-point 54 :   0.3333 0.1111 0.2500  plane waves:    5683
 k-point 55 :   0.4444 0.1111 0.2500  plane waves:    5697
 k-point 56 :  -0.4444 0.1111 0.2500  plane waves:    5683
 k-point 57 :  -0.3333 0.1111 0.2500  plane waves:    5677
 k-point 58 :  -0.2222 0.1111 0.2500  plane waves:    5663
 k-point 59 :  -0.1111 0.1111 0.2500  plane waves:    5668
 k-point 60 :  -0.0000 0.2222 0.2500  plane waves:    5677
 k-point 61 :   0.1111 0.2222 0.2500  plane waves:    5677
 k-point 62 :   0.2222 0.2222 0.2500  plane waves:    5671
 k-point 63 :   0.3333 0.2222 0.2500  plane waves:    5688
 k-point 64 :   0.4444 0.2222 0.2500  plane waves:    5688
 k-point 65 :  -0.4444 0.2222 0.2500  plane waves:    5671
 k-point 66 :  -0.3333 0.2222 0.2500  plane waves:    5677
 k-point 67 :  -0.2222 0.2222 0.2500  plane waves:    5677
 k-point 68 :  -0.1111 0.2222 0.2500  plane waves:    5663
 k-point 69 :   0.0000 0.3333 0.2500  plane waves:    5682
 k-point 70 :   0.1111 0.3333 0.2500  plane waves:    5683
 k-point 71 :   0.2222 0.3333 0.2500  plane waves:    5688
 k-point 72 :   0.3333 0.3333 0.2500  plane waves:    5673
 k-point 73 :   0.4444 0.3333 0.2500  plane waves:    5691
 k-point 74 :  -0.4444 0.3333 0.2500  plane waves:    5683
 k-point 75 :  -0.3333 0.3333 0.2500  plane waves:    5682
 k-point 76 :  -0.2222 0.3333 0.2500  plane waves:    5677
 k-point 77 :  -0.1111 0.3333 0.2500  plane waves:    5677
 k-point 78 :  -0.0000 0.4444 0.2500  plane waves:    5688
 k-point 79 :   0.1111 0.4444 0.2500  plane waves:    5697
 k-point 80 :   0.2222 0.4444 0.2500  plane waves:    5688
 k-point 81 :   0.3333 0.4444 0.2500  plane waves:    5691
 k-point 82 :   0.4444 0.4444 0.2500  plane waves:    5697
 k-point 83 :  -0.4444 0.4444 0.2500  plane waves:    5688
 k-point 84 :  -0.3333 0.4444 0.2500  plane waves:    5683
 k-point 85 :  -0.2222 0.4444 0.2500  plane waves:    5671
 k-point 86 :  -0.1111 0.4444 0.2500  plane waves:    5683
 k-point 87 :   0.0000-0.4444 0.2500  plane waves:    5688
 k-point 88 :   0.1111-0.4444 0.2500  plane waves:    5683
 k-point 89 :   0.2222-0.4444 0.2500  plane waves:    5671
 k-point 90 :   0.3333-0.4444 0.2500  plane waves:    5683
 k-point 91 :   0.4444-0.4444 0.2500  plane waves:    5688
 k-point 92 :  -0.4444-0.4444 0.2500  plane waves:    5697
 k-point 93 :  -0.3333-0.4444 0.2500  plane waves:    5691
 k-point 94 :  -0.2222-0.4444 0.2500  plane waves:    5688
 k-point 95 :  -0.1111-0.4444 0.2500  plane waves:    5697
 k-point 96 :   0.0000-0.3333 0.2500  plane waves:    5682
 k-point 97 :   0.1111-0.3333 0.2500  plane waves:    5677
 k-point 98 :   0.2222-0.3333 0.2500  plane waves:    5677
 k-point 99 :   0.3333-0.3333 0.2500  plane waves:    5682
 k-point ** :   0.4444-0.3333 0.2500  plane waves:    5683
 k-point ** :  -0.4444-0.3333 0.2500  plane waves:    5691
 k-point ** :  -0.3333-0.3333 0.2500  plane waves:    5673
 k-point ** :  -0.2222-0.3333 0.2500  plane waves:    5688
 k-point ** :  -0.1111-0.3333 0.2500  plane waves:    5683
 k-point ** :   0.0000-0.2222 0.2500  plane waves:    5677
 k-point ** :   0.1111-0.2222 0.2500  plane waves:    5663
 k-point ** :   0.2222-0.2222 0.2500  plane waves:    5677
 k-point ** :   0.3333-0.2222 0.2500  plane waves:    5677
 k-point ** :   0.4444-0.2222 0.2500  plane waves:    5671
 k-point ** :  -0.4444-0.2222 0.2500  plane waves:    5688
 k-point ** :  -0.3333-0.2222 0.2500  plane waves:    5688
 k-point ** :  -0.2222-0.2222 0.2500  plane waves:    5671
 k-point ** :  -0.1111-0.2222 0.2500  plane waves:    5677
 k-point ** :   0.0000-0.1111 0.2500  plane waves:    5668
 k-point ** :   0.1111-0.1111 0.2500  plane waves:    5668
 k-point ** :   0.2222-0.1111 0.2500  plane waves:    5663
 k-point ** :   0.3333-0.1111 0.2500  plane waves:    5677
 k-point ** :   0.4444-0.1111 0.2500  plane waves:    5683
 k-point ** :  -0.4444-0.1111 0.2500  plane waves:    5697
 k-point ** :  -0.3333-0.1111 0.2500  plane waves:    5683
 k-point ** :  -0.2222-0.1111 0.2500  plane waves:    5677
 k-point ** :  -0.1111-0.1111 0.2500  plane waves:    5663
 k-point ** :   0.0000 0.0000 0.5000  plane waves:    5660
 k-point ** :   0.1111-0.0000 0.5000  plane waves:    5658
 k-point ** :   0.2222-0.0000 0.5000  plane waves:    5690
 k-point ** :   0.3333 0.0000 0.5000  plane waves:    5696
 k-point ** :   0.4444-0.0000 0.5000  plane waves:    5672
 k-point ** :   0.0000 0.1111 0.5000  plane waves:    5658
 k-point ** :   0.1111 0.1111 0.5000  plane waves:    5676
 k-point ** :   0.2222 0.1111 0.5000  plane waves:    5688
 k-point ** :   0.3333 0.1111 0.5000  plane waves:    5694
 k-point ** :   0.4444 0.1111 0.5000  plane waves:    5684
 k-point ** :  -0.4444 0.1111 0.5000  plane waves:    5694
 k-point ** :  -0.3333 0.1111 0.5000  plane waves:    5688
 k-point ** :  -0.2222 0.1111 0.5000  plane waves:    5682
 k-point ** :  -0.1111 0.1111 0.5000  plane waves:    5658
 k-point ** :  -0.0000 0.2222 0.5000  plane waves:    5690
 k-point ** :   0.1111 0.2222 0.5000  plane waves:    5688
 k-point ** :   0.2222 0.2222 0.5000  plane waves:    5680
 k-point ** :   0.3333 0.2222 0.5000  plane waves:    5678
 k-point ** :   0.4444 0.2222 0.5000  plane waves:    5678
 k-point ** :  -0.4444 0.2222 0.5000  plane waves:    5680
 k-point ** :  -0.3333 0.2222 0.5000  plane waves:    5688
 k-point ** :  -0.2222 0.2222 0.5000  plane waves:    5690
 k-point ** :  -0.1111 0.2222 0.5000  plane waves:    5682
 k-point ** :   0.0000 0.3333 0.5000  plane waves:    5696
 k-point ** :   0.1111 0.3333 0.5000  plane waves:    5694
 k-point ** :   0.2222 0.3333 0.5000  plane waves:    5678
 k-point ** :   0.3333 0.3333 0.5000  plane waves:    5682
 k-point ** :   0.4444 0.3333 0.5000  plane waves:    5678
 k-point ** :  -0.4444 0.3333 0.5000  plane waves:    5694
 k-point ** :  -0.3333 0.3333 0.5000  plane waves:    5696
 k-point ** :  -0.2222 0.3333 0.5000  plane waves:    5688
 k-point ** :  -0.1111 0.3333 0.5000  plane waves:    5688
 k-point ** :  -0.0000 0.4444 0.5000  plane waves:    5672
 k-point ** :   0.1111 0.4444 0.5000  plane waves:    5684
 k-point ** :   0.2222 0.4444 0.5000  plane waves:    5678
 k-point ** :   0.3333 0.4444 0.5000  plane waves:    5678
 k-point ** :   0.4444 0.4444 0.5000  plane waves:    5684
 k-point ** :  -0.4444 0.4444 0.5000  plane waves:    5672
 k-point ** :  -0.3333 0.4444 0.5000  plane waves:    5694
 k-point ** :  -0.2222 0.4444 0.5000  plane waves:    5680
 k-point ** :  -0.1111 0.4444 0.5000  plane waves:    5694

 maximum and minimum number of plane-waves per node :      5712     5630

 maximum number of plane-waves:      5712
 maximum index in each direction: 
   IXMAX=   10   IYMAX=   10   IZMAX=   16
   IXMIN=  -10   IYMIN=  -10   IZMIN=  -16

 WARNING: aliasing errors must be expected set NGX to  42 to avoid them
 WARNING: aliasing errors must be expected set NGY to  42 to avoid them
 WARNING: aliasing errors must be expected set NGZ to  66 to avoid them
 aliasing errors are usually negligible using standard VASP settings
 and one can safely disregard these warnings

 serial   3D FFT for wavefunctions
 parallel 3D FFT for charge:
    minimum data exchange during FFTs selected (reduces bandwidth)


 total amount of memory used by VASP on root node   326902. kBytes
========================================================================

   base      :      30000. kBytes
   nonl-proj :      62512. kBytes
   fftplans  :       5242. kBytes
   grid      :      11074. kBytes
   one-center:         98. kBytes
   wavefun   :     217976. kBytes
 
     INWAV:  cpu time    0.00: real time    0.00
 Broyden mixing: mesh for mixing (old mesh)
   NGX = 19   NGY = 19   NGZ = 33
  (NGX  = 80   NGY  = 80   NGZ  =128)
  gives a total of  11913 points

 initial charge density was supplied:
 charge density of overlapping atoms calculated
 number of electron     128.0000000 magnetization 
 keeping initial charge density in first step


--------------------------------------------------------------------------------------------------------


 Maximum index for augmentation-charges         1393 (set IRDMAX)


--------------------------------------------------------------------------------------------------------


 First call to EWALD:  gamma=   0.320
 Maximum number of real-space cells 3x 3x 2
 Maximum number of reciprocal cells 2x 2x 4

 FEWALD executed in parallel
    FEWALD:  cpu time    0.00: real time    0.00


----------------------------------------- Iteration    1(   1)  ---------------------------------------


    POTLOK:  cpu time    0.12: real time    0.12
    SETDIJ:  cpu time    0.01: real time    0.01
     EDDAV:  cpu time   97.15: real time   97.22
 BZINTS: Fermi energy: 22.262378;128.000000 electrons
         Band energy: 751.026049;  BLOECHL correction: -0.121656
       DOS:  cpu time    0.18: real time    0.18
    --------------------------------------------
      LOOP:  cpu time   97.47: real time   97.56

 eigenvalue-minimisations  : 27384
 total energy-change (2. order) : 0.4621484E+03  (-0.7701948E+04)
 number of electron     128.0000000 magnetization 
 augmentation part      128.0000000 magnetization 

 Free energy of the ion-electron system (eV)
  ---------------------------------------------------
  alpha Z        PSCENC =       490.30840325
  Ewald energy   TEWEN  =     -5655.84027598
  -Hartree energ DENC   =      -259.81866678
  -exchange      EXHF   =         0.00000000
  -V(xc)+E(xc)   XCENC  =       464.47900400
  PAW double counting   =      1210.60617908    -1247.42152856
  entropy T*S    EENTRO =         0.00000000
  eigenvalues    EBANDS =       751.02604877
  atomic energy  EATOM  =      4708.80920826
  ---------------------------------------------------
  free energy    TOTEN  =       462.14837205 eV

  energy without entropy =      462.14837205  energy(sigma->0) =      462.14837205


--------------------------------------------------------------------------------------------------------




----------------------------------------- Iteration    1(   2)  ---------------------------------------


     EDDAV:  cpu time  114.81: real time  114.87
 BZINTS: Fermi energy: 11.534336;128.000000 electrons
         Band energy:  52.998301;  BLOECHL correction: -0.076450
       DOS:  cpu time    0.21: real time    0.21
    --------------------------------------------
      LOOP:  cpu time  115.03: real time  115.09

 eigenvalue-minimisations  : 34524
 total energy-change (2. order) :-0.6980277E+03  (-0.6681586E+03)
 number of electron     128.0000000 magnetization 
 augmentation part      128.0000000 magnetization 

 Free energy of the ion-electron system (eV)
  ---------------------------------------------------
  alpha Z        PSCENC =       490.30840325
  Ewald energy   TEWEN  =     -5655.84027598
  -Hartree energ DENC   =      -259.81866678
  -exchange      EXHF   =         0.00000000
  -V(xc)+E(xc)   XCENC  =       464.47900400
  PAW double counting   =      1210.60617908    -1247.42152856
  entropy T*S    EENTRO =         0.00000000
  eigenvalues    EBANDS =        52.99830112
  atomic energy  EATOM  =      4708.80920826
  ---------------------------------------------------
  free energy    TOTEN  =      -235.87937560 eV

  energy without entropy =     -235.87937560  energy(sigma->0) =     -235.87937560


--------------------------------------------------------------------------------------------------------




----------------------------------------- Iteration    1(   3)  ---------------------------------------


     EDDAV:  cpu time  112.84: real time  112.90
 BZINTS: Fermi energy: 10.798847;128.000000 electrons
         Band energy:  17.357089;  BLOECHL correction: -0.095134
       DOS:  cpu time    0.21: real time    0.21
    --------------------------------------------
      LOOP:  cpu time  113.06: real time  113.12

 eigenvalue-minimisations  : 33540
 total energy-change (2. order) :-0.3564121E+02  (-0.3500510E+02)
 number of electron     128.0000000 magnetization 
 augmentation part      128.0000000 magnetization 

 Free energy of the ion-electron system (eV)
  ---------------------------------------------------
  alpha Z        PSCENC =       490.30840325
  Ewald energy   TEWEN  =     -5655.84027598
  -Hartree energ DENC   =      -259.81866678
  -exchange      EXHF   =         0.00000000
  -V(xc)+E(xc)   XCENC  =       464.47900400
  PAW double counting   =      1210.60617908    -1247.42152856
  entropy T*S    EENTRO =         0.00000000
  eigenvalues    EBANDS =        17.35708876
  atomic energy  EATOM  =      4708.80920826
  ---------------------------------------------------
  free energy    TOTEN  =      -271.52058796 eV

  energy without entropy =     -271.52058796  energy(sigma->0) =     -271.52058796


--------------------------------------------------------------------------------------------------------




----------------------------------------- Iteration    1(   4)  ---------------------------------------


     EDDAV:  cpu time  111.30: real time  111.36
 BZINTS: Fermi energy: 10.780985;128.000000 electrons
         Band energy:  16.794676;  BLOECHL correction: -0.094473
       DOS:  cpu time    0.19: real time    0.20
    --------------------------------------------
      LOOP:  cpu time  111.50: real time  111.56

 eigenvalue-minimisations  : 33132
 total energy-change (2. order) :-0.5624130E+00  (-0.5605816E+00)
 number of electron     128.0000000 magnetization 
 augmentation part      128.0000000 magnetization 

 Free energy of the ion-electron system (eV)
  ---------------------------------------------------
  alpha Z        PSCENC =       490.30840325
  Ewald energy   TEWEN  =     -5655.84027598
  -Hartree energ DENC   =      -259.81866678
  -exchange      EXHF   =         0.00000000
  -V(xc)+E(xc)   XCENC  =       464.47900400
  PAW double counting   =      1210.60617908    -1247.42152856
  entropy T*S    EENTRO =         0.00000000
  eigenvalues    EBANDS =        16.79467575
  atomic energy  EATOM  =      4708.80920826
  ---------------------------------------------------
  free energy    TOTEN  =      -272.08300097 eV

  energy without entropy =     -272.08300097  energy(sigma->0) =     -272.08300097


--------------------------------------------------------------------------------------------------------




----------------------------------------- Iteration    1(   5)  ---------------------------------------


     EDDAV:  cpu time  111.97: real time  112.03
 BZINTS: Fermi energy: 10.780685;128.000000 electrons
         Band energy:  16.782301;  BLOECHL correction: -0.094422
       DOS:  cpu time    0.21: real time    0.21
    CHARGE:  cpu time    3.79: real time    3.79
    MIXING:  cpu time    0.00: real time    0.01
    --------------------------------------------
      LOOP:  cpu time  115.97: real time  116.04

 eigenvalue-minimisations  : 33588
 total energy-change (2. order) :-0.1237476E-01  (-0.1239242E-01)
 number of electron     128.0000011 magnetization 
 augmentation part        3.3935684 magnetization 

 Broyden mixing:
  rms(total) = 0.21868E+01    rms(broyden)= 0.21866E+01
  rms(prec ) = 0.29632E+01
  weight for this iteration     100.00

 Free energy of the ion-electron system (eV)
  ---------------------------------------------------
  alpha Z        PSCENC =       490.30840325
  Ewald energy   TEWEN  =     -5655.84027598
  -Hartree energ DENC   =      -259.81866678
  -exchange      EXHF   =         0.00000000
  -V(xc)+E(xc)   XCENC  =       464.47900400
  PAW double counting   =      1210.60617908    -1247.42152856
  entropy T*S    EENTRO =         0.00000000
  eigenvalues    EBANDS =        16.78230098
  atomic energy  EATOM  =      4708.80920826
  ---------------------------------------------------
  free energy    TOTEN  =      -272.09537574 eV

  energy without entropy =     -272.09537574  energy(sigma->0) =     -272.09537574


--------------------------------------------------------------------------------------------------------




----------------------------------------- Iteration    1(   6)  ---------------------------------------


    POTLOK:  cpu time    0.13: real time    0.13
    SETDIJ:  cpu time    0.01: real time    0.01
     EDDAV:  cpu time  107.85: real time  107.90
 BZINTS: Fermi energy: 11.244971;128.000000 electrons
         Band energy:  88.842064;  BLOECHL correction: -0.101002
       DOS:  cpu time    0.19: real time    0.19
    CHARGE:  cpu time    3.86: real time    3.87
    MIXING:  cpu time    0.00: real time    0.01
    --------------------------------------------
      LOOP:  cpu time  112.05: real time  112.11

 eigenvalue-minimisations  : 31080
 total energy-change (2. order) : 0.1056386E+02  (-0.8380794E+00)
 number of electron     128.0000011 magnetization 
 augmentation part        3.2699243 magnetization 

 Broyden mixing:
  rms(total) = 0.11580E+01    rms(broyden)= 0.11580E+01
  rms(prec ) = 0.15538E+01
  weight for this iteration     100.00

 eigenvalues of (default mixing * dielectric matrix)
  average eigenvalue GAMMA=   2.0738
  2.0738

 Free energy of the ion-electron system (eV)
  ---------------------------------------------------
  alpha Z        PSCENC =       490.30840325
  Ewald energy   TEWEN  =     -5655.84027598
  -Hartree energ DENC   =      -324.42542731
  -exchange      EXHF   =         0.00000000
  -V(xc)+E(xc)   XCENC  =       470.55861564
  PAW double counting   =      1650.24556387    -1690.02966937
  entropy T*S    EENTRO =         0.00000000
  eigenvalues    EBANDS =        88.84206434
  atomic energy  EATOM  =      4708.80920826
  ---------------------------------------------------
  free energy    TOTEN  =      -261.53151730 eV

  energy without entropy =     -261.53151730  energy(sigma->0) =     -261.53151730


--------------------------------------------------------------------------------------------------------




----------------------------------------- Iteration    1(   7)  ---------------------------------------


    POTLOK:  cpu time    0.12: real time    0.12
    SETDIJ:  cpu time    0.01: real time    0.01
     EDDAV:  cpu time  103.53: real time  103.58
 BZINTS: Fermi energy: 11.696582;128.000000 electrons
         Band energy: 164.937830;  BLOECHL correction: -0.116535
       DOS:  cpu time    0.23: real time    0.23
    CHARGE:  cpu time    4.26: real time    4.26
    MIXING:  cpu time    0.01: real time    0.01
    --------------------------------------------
      LOOP:  cpu time  108.16: real time  108.22

 eigenvalue-minimisations  : 29436
 total energy-change (2. order) : 0.3435605E+01  (-0.8523950E+00)
 number of electron     128.0000010 magnetization 
 augmentation part        3.1407125 magnetization 

 Broyden mixing:
  rms(total) = 0.14810E+00    rms(broyden)= 0.14803E+00
  rms(prec ) = 0.17491E+00
  weight for this iteration     100.00

 eigenvalues of (default mixing * dielectric matrix)
  average eigenvalue GAMMA=   1.8954
  1.6359  2.1550

 Free energy of the ion-electron system (eV)
  ---------------------------------------------------
  alpha Z        PSCENC =       490.30840325
  Ewald energy   TEWEN  =     -5655.84027598
  -Hartree energ DENC   =      -401.72893317
  -exchange      EXHF   =         0.00000000
  -V(xc)+E(xc)   XCENC  =       477.87624819
  PAW double counting   =      2232.63420942    -2275.09260233
  entropy T*S    EENTRO =         0.00000000
  eigenvalues    EBANDS =       164.93782963
  atomic energy  EATOM  =      4708.80920826
  ---------------------------------------------------
  free energy    TOTEN  =      -258.09591274 eV

  energy without entropy =     -258.09591274  energy(sigma->0) =     -258.09591274


--------------------------------------------------------------------------------------------------------




----------------------------------------- Iteration    1(   8)  ---------------------------------------


    POTLOK:  cpu time    0.13: real time    0.13
    SETDIJ:  cpu time    0.02: real time    0.02
     EDDAV:  cpu time  109.20: real time  109.26
 BZINTS: Fermi energy: 11.685928;128.000000 electrons
         Band energy: 165.104754;  BLOECHL correction: -0.117164
       DOS:  cpu time    0.22: real time    0.22
    CHARGE:  cpu time    3.98: real time    3.99
    MIXING:  cpu time    0.00: real time    0.00
    --------------------------------------------
      LOOP:  cpu time  113.56: real time  113.62

 eigenvalue-minimisations  : 32784
 total energy-change (2. order) :-0.2396174E-01  (-0.2212614E-01)
 number of electron     128.0000010 magnetization 
 augmentation part        3.1366029 magnetization 

 Broyden mixing:
  rms(total) = 0.53897E-01    rms(broyden)= 0.53884E-01
  rms(prec ) = 0.65189E-01
  weight for this iteration     100.00

 eigenvalues of (default mixing * dielectric matrix)
  average eigenvalue GAMMA=   1.8377
  1.1163  1.9717  2.4250

 Free energy of the ion-electron system (eV)
  ---------------------------------------------------
  alpha Z        PSCENC =       490.30840325
  Ewald energy   TEWEN  =     -5655.84027598
  -Hartree energ DENC   =      -402.34720146
  -exchange      EXHF   =         0.00000000
  -V(xc)+E(xc)   XCENC  =       477.95846170
  PAW double counting   =      2280.99760677    -2323.11083085
  entropy T*S    EENTRO =         0.00000000
  eigenvalues    EBANDS =       165.10475383
  atomic energy  EATOM  =      4708.80920826
  ---------------------------------------------------
  free energy    TOTEN  =      -258.11987448 eV

  energy without entropy =     -258.11987448  energy(sigma->0) =     -258.11987448


--------------------------------------------------------------------------------------------------------




----------------------------------------- Iteration    1(   9)  ---------------------------------------


    POTLOK:  cpu time    0.13: real time    0.13
    SETDIJ:  cpu time    0.01: real time    0.01
     EDDAV:  cpu time  108.91: real time  108.97
 BZINTS: Fermi energy: 11.684194;128.000000 electrons
         Band energy: 164.968823;  BLOECHL correction: -0.116452
       DOS:  cpu time    0.22: real time    0.22
    CHARGE:  cpu time    4.00: real time    4.01
    MIXING:  cpu time    0.01: real time    0.01
    --------------------------------------------
      LOOP:  cpu time  113.28: real time  113.34

 eigenvalue-minimisations  : 32352
 total energy-change (2. order) :-0.1545111E-02  (-0.1303428E-02)
 number of electron     128.0000010 magnetization 
 augmentation part        3.1368098 magnetization 

 Broyden mixing:
  rms(total) = 0.18007E-01    rms(broyden)= 0.18004E-01
  rms(prec ) = 0.28313E-01
  weight for this iteration     100.00

 eigenvalues of (default mixing * dielectric matrix)
  average eigenvalue GAMMA=   1.6023
  2.5356  2.0212  1.2216  0.6307

 Free energy of the ion-electron system (eV)
  ---------------------------------------------------
  alpha Z        PSCENC =       490.30840325
  Ewald energy   TEWEN  =     -5655.84027598
  -Hartree energ DENC   =      -402.40634704
  -exchange      EXHF   =         0.00000000
  -V(xc)+E(xc)   XCENC  =       477.97937884
  PAW double counting   =      2301.05080988    -2342.99141990
  entropy T*S    EENTRO =         0.00000000
  eigenvalues    EBANDS =       164.96882309
  atomic energy  EATOM  =      4708.80920826
  ---------------------------------------------------
  free energy    TOTEN  =      -258.12141959 eV

  energy without entropy =     -258.12141959  energy(sigma->0) =     -258.12141959


--------------------------------------------------------------------------------------------------------




----------------------------------------- Iteration    1(  10)  ---------------------------------------


    POTLOK:  cpu time    0.12: real time    0.12
    SETDIJ:  cpu time    0.01: real time    0.02
     EDDAV:  cpu time  111.28: real time  111.34
 BZINTS: Fermi energy: 11.684004;128.000000 electrons
         Band energy: 164.877670;  BLOECHL correction: -0.116436
       DOS:  cpu time    0.22: real time    0.23
    CHARGE:  cpu time    4.00: real time    4.00
    MIXING:  cpu time    0.01: real time    0.01
    --------------------------------------------
      LOOP:  cpu time  115.65: real time  115.72

 eigenvalue-minimisations  : 33036
 total energy-change (2. order) : 0.1945627E-03  (-0.4025874E-03)
 number of electron     128.0000010 magnetization 
 augmentation part        3.1369316 magnetization 

 Broyden mixing:
[...]
     80      17.5503      0.00000
     81      18.1753      0.00000
     82      18.1844      0.00000
     83      19.1741      0.00000
     84      19.1875      0.00000

 k-point   162 :      -0.2222    0.4444    0.5000
  band No.  band energies     occupation 
      1     -10.3876      2.00000
      2     -10.3779      2.00000
      3      -8.3335      2.00000
      4      -8.3280      2.00000
      5      -8.3229      2.00000
      6      -8.3181      2.00000
      7      -7.0407      2.00000
      8      -7.0397      2.00000
      9      -5.1450      2.00000
     10      -5.1420      2.00000
     11      -5.1404      2.00000
     12      -5.1371      2.00000
     13      -4.8639      2.00000
     14      -4.8538      2.00000
     15      -3.8756      2.00000
     16      -3.8671      2.00000
     17      -1.7619      2.00000
     18      -1.7607      2.00000
     19      -1.5565      2.00000
     20      -1.5519      2.00000
     21      -0.5107      2.00000
     22      -0.5037      2.00000
     23      -0.4996      2.00000
     24      -0.4947      2.00000
     25       0.1289      2.00000
     26       0.1351      2.00000
     27       1.5621      2.00000
     28       1.5706      2.00000
     29       1.6158      2.00000
     30       1.6195      2.00000
     31       1.6202      2.00000
     32       1.6262      2.00000
     33       2.0098      2.00000
     34       2.0133      2.00000
     35       2.9223      2.00000
     36       2.9281      2.00000
     37       2.9307      2.00000
     38       2.9364      2.00000
     39       3.8127      2.00000
     40       3.8223      2.00000
     41       3.8234      2.00000
     42       3.8314      2.00000
     43       3.8815      2.00000
     44       3.8905      2.00000
     45       4.5610      2.00000
     46       4.5644      2.00000
     47       4.5669      2.00000
     48       4.5700      2.00000
     49       4.5732      2.00000
     50       4.5795      2.00000
     51       5.7788      2.00000
     52       5.7823      2.00000
     53       6.2270      2.00000
     54       6.2340      2.00000
     55       6.8229      2.00000
     56       6.8390      2.00000
     57       9.4291      2.00000
     58       9.4321      2.00000
     59      10.0815      2.00000
     60      10.0853      2.00000
     61      10.9315      2.00000
     62      10.9343      2.00000
     63      10.9352      2.00000
     64      10.9424      2.05623
     65      11.9806      0.06059
     66      11.9871      0.07463
     67      13.2614      0.00000
     68      13.2720      0.00000
     69      13.2746      0.00000
     70      13.2850      0.00000
     71      15.4359      0.00000
     72      15.4534      0.00000
     73      16.2970      0.00000
     74      16.3088      0.00000
     75      16.3105      0.00000
     76      16.3198      0.00000
     77      16.4162      0.00000
     78      16.4260      0.00000
     79      17.9761      0.00000
     80      17.9851      0.00000
     81      18.2861      0.00000
     82      18.2941      0.00000
     83      18.2974      0.00000
     84      18.3038      0.00000

 k-point   163 :      -0.1111    0.4444    0.5000
  band No.  band energies     occupation 
      1     -10.3104      2.00000
      2     -10.3007      2.00000
      3      -8.9335      2.00000
      4      -8.9238      2.00000
      5      -7.5861      2.00000
      6      -7.5765      2.00000
      7      -6.9688      2.00000
      8      -6.9679      2.00000
      9      -5.6946      2.00000
     10      -5.6938      2.00000
     11      -5.6623      2.00000
     12      -5.6527      2.00000
     13      -4.4656      2.00000
     14      -4.4654      2.00000
     15      -3.1381      2.00000
     16      -3.1316      2.00000
     17      -2.4825      2.00000
     18      -2.4766      2.00000
     19      -1.0970      2.00000
     20      -1.0877      2.00000
     21      -0.8408      2.00000
     22      -0.8359      2.00000
     23       0.1866      2.00000
     24       0.1954      2.00000
     25       0.4498      2.00000
     26       0.4540      2.00000
     27       0.7851      2.00000
     28       0.7902      2.00000
     29       1.6369      2.00000
     30       1.6453      2.00000
     31       1.9954      2.00000
     32       2.0001      2.00000
     33       2.0932      2.00000
     34       2.0965      2.00000
     35       2.2784      2.00000
     36       2.2803      2.00000
     37       3.2919      2.00000
     38       3.3005      2.00000
     39       3.4193      2.00000
     40       3.4276      2.00000
     41       3.4840      2.00000
     42       3.4880      2.00000
     43       3.8111      2.00000
     44       3.8191      2.00000
     45       4.5834      2.00000
     46       4.5941      2.00000
     47       4.7742      2.00000
     48       4.7823      2.00000
     49       5.3686      2.00000
     50       5.3718      2.00000
     51       5.3814      2.00000
     52       5.3894      2.00000
     53       6.3354      2.00000
     54       6.3492      2.00000
     55       6.3937      2.00000
     56       6.3973      2.00000
     57       9.9720      2.00000
     58       9.9776      2.00000
     59      10.1305      2.00000
     60      10.1341      2.00000
     61      10.7917      2.00000
     62      10.7954      2.00000
     63      11.0114      2.00000
     64      11.0183      2.05141
     65      11.9361      0.00305
     66      11.9430      0.03053
     67      12.6280      0.00000
     68      12.6394      0.00000
     69      13.7859      0.00000
     70      13.7977      0.00000
     71      15.5103      0.00000
     72      15.5270      0.00000
     73      16.0372      0.00000
     74      16.0469      0.00000
     75      16.0675      0.00000
     76      16.0797      0.00000
     77      16.2464      0.00000
     78      16.2563      0.00000
     79      17.5370      0.00000
     80      17.5465      0.00000
     81      18.1739      0.00000
     82      18.1829      0.00000
     83      19.1792      0.00000
     84      19.1857      0.00000


--------------------------------------------------------------------------------------------------------


 soft charge-density along one line, spin component           1
         0         1         2         3         4         5         6         7         8         9
 total charge-density along one line
 
 pseudopotential strength for first ion, spin component:           1
  9.427  -0.005  -0.000   0.000   0.000   0.000  -0.000  -0.000
 -0.005  -0.002  -0.000  -0.000   0.000   0.000  -0.000  -0.000
 -0.000  -0.000  -3.637   0.000   0.000  -0.014   0.000   0.000
  0.000  -0.000   0.000  -3.634   0.000   0.000  -0.011   0.000
  0.000   0.000   0.000   0.000  -3.637   0.000   0.000  -0.014
  0.000   0.000  -0.014   0.000   0.000  -0.756   0.000   0.000
 -0.000  -0.000   0.000  -0.011   0.000   0.000  -0.757   0.000
 -0.000  -0.000   0.000   0.000  -0.014   0.000   0.000  -0.756
 total augmentation occupancy for first ion, spin component:           1
  1.508  -1.083  -0.000  -0.001   0.004  -0.000  -0.001   0.001
 -1.083   1.138   0.000   0.004  -0.004   0.000   0.001  -0.001
 -0.000   0.000   1.224  -0.000  -0.004   0.224  -0.000  -0.001
 -0.001   0.004  -0.000   0.938  -0.000  -0.000   0.110  -0.000
  0.004  -0.004  -0.004  -0.000   1.224  -0.001  -0.000   0.224
 -0.000   0.000   0.224  -0.000  -0.001   0.048  -0.000  -0.000
 -0.001   0.001  -0.000   0.110  -0.000  -0.000   0.020  -0.000
  0.001  -0.001  -0.001  -0.000   0.224  -0.000  -0.000   0.048


------------------------ aborting loop because EDIFF is reached ----------------------------------------


    CHARGE:  cpu time    3.96: real time    3.96
    FORLOC:  cpu time    0.03: real time    0.03
    FORNL :  cpu time   32.59: real time   32.61
    STRESS:  cpu time   61.41: real time   61.44
    FORHAR:  cpu time    0.05: real time    0.05
    MIXING:  cpu time    0.01: real time    0.01
    OFIELD:  cpu time    0.00: real time    0.00

 ---------------------------------------------------------------------------------------------

         DFTD3 V3.0 Rev 1        
 IVDW         = 11
 DF pbe       
 parameters
 VDW_S6       =    1.0000
 VDW_S8       =    0.7220
 VDW_SR       =    1.2170
 rs18     =    1.0000
 alpha6   =   14.0000
 alpha8   =   16.0000
 k1-k3    =   16.0000    1.3333   -4.0000
 VDW_RADIUS   =   50.2022 A
 VDW_CNRADIUS =   21.1671 A
 Edisp (eV)   -3.76278

 E6    (eV) :    -2.3155
 E8    (eV) :    -1.4473
 % E8        : 38.46
    FORVDW:  cpu time    0.81: real time    0.81

  FORCE on cell =-STRESS in cart. coord.  units (eV):
  Direction    XX          YY          ZZ          XY          YZ          ZX
  --------------------------------------------------------------------------------------
  Alpha Z   490.30840   490.30840   490.30840
  Ewald   -1318.75257 -1319.15382 -3017.95708    -1.42404     0.00009    -0.01288
  Hartree   231.91039   231.86290   -61.32279    -0.17550     0.00023    -0.00334
  E(xc)    -483.48906  -483.49077  -489.23086    -0.00512     0.00016    -0.00034
  Local    -762.21386  -761.84579  1036.43459     1.32231     0.00439     0.00420
  n-local  -106.54037  -106.55755  -124.66648    -0.02266     0.00297    -0.00671
  augment   -12.85428   -12.85358   -11.72441     0.00234    -0.00007     0.00021
  Kinetic  1971.26109  1971.35222  2378.17048     0.28112    -0.03522     0.07663
  Fock        0.00000     0.00000     0.00000     0.00000     0.00000     0.00000
  vdW        -3.26777    -3.26765    -3.07057     0.00016     0.00000     0.00000
  -------------------------------------------------------------------------------------
  Total       6.36196     6.35436   196.94129    -0.02138    -0.02745     0.05778
  in kB      59.89896    59.82736  1854.23528    -0.20134    -0.25844     0.54398
  external pressure =      657.99 kB  Pullay stress =        0.00 kB


 VOLUME and BASIS-vectors are now :
 -----------------------------------------------------------------------------
  energy-cutoff  :      600.00
  volume of cell :      170.17
      direct lattice vectors                 reciprocal lattice vectors
     4.934310885 -0.000222400  0.000000000     0.202667819  0.117022500  0.000000000
    -2.467348046  4.273127376  0.000000000     0.000010548  0.234026730  0.000000000
     0.000000000  0.000000000  8.070890774     0.000000000  0.000000000  0.123902061

  length of vectors
     4.934310890  4.934310890  8.070890774     0.234026730  0.234026730  0.123902061


 FORCES acting on ions
    electron-ion (+dipol)            ewald-force                    non-local-force                 convergence-correction
 -----------------------------------------------------------------------------------------------
   0.114E+01 -.722E-02 0.250E+00   -.128E+01 0.101E-01 -.326E+00   -.139E+00 0.250E-02 -.125E-01   -.278E-02 0.411E-03 -.197E-02
   -.336E+00 0.906E-04 0.279E+00   0.326E+00 0.173E-02 -.276E+00   0.294E-01 0.121E-02 -.925E-02   0.307E-02 0.385E-03 -.214E-02
   -.513E-01 0.168E+00 0.278E+00   0.254E-01 -.172E+00 -.276E+00   0.382E-02 -.132E-01 -.920E-02   -.140E-03 -.217E-02 -.163E-02
   -.496E-01 -.163E+00 0.279E+00   0.254E-01 0.176E+00 -.276E+00   0.389E-02 0.161E-01 -.898E-02   -.156E-03 0.131E-02 -.182E-02
   0.459E-02 0.466E-03 -.175E+00   -.117E-01 0.175E-02 0.173E+00   -.293E-02 0.105E-02 0.357E-02   -.199E-02 0.265E-03 0.200E-02
   -.151E-01 -.222E-02 -.135E+00   0.521E-02 0.175E-02 0.136E+00   -.137E-02 0.209E-02 0.191E-02   0.176E-02 0.447E-03 0.217E-02
   0.286E-02 0.103E-01 -.134E+00   -.297E-02 -.298E-02 0.136E+00   -.120E-02 0.138E-02 0.187E-02   -.749E-04 -.140E-02 0.164E-02
   -.256E-02 -.605E-02 -.134E+00   -.298E-02 0.647E-02 0.136E+00   -.979E-03 0.127E-02 0.218E-02   0.152E-03 0.767E-03 0.185E-02
   0.759E-02 -.504E-01 -.574E-01   0.628E-02 0.370E-01 0.619E-01   -.467E-04 -.226E-02 0.103E-02   -.433E-03 0.174E-02 0.354E-03
   -.150E-01 0.295E-01 -.598E-01   0.630E-02 -.405E-01 0.619E-01   0.460E-02 0.262E-02 -.869E-02   0.253E-03 -.836E-03 0.682E-03
   -.723E-01 0.145E-01 -.591E-01   0.734E-01 -.178E-02 0.621E-01   -.240E-02 -.424E-02 -.398E-02   0.217E-02 -.476E-03 0.549E-03
   0.110E+00 0.255E-03 -.470E+00   -.109E+00 -.177E-02 0.509E+00   0.168E-02 -.217E-02 -.551E-01   -.206E-02 -.212E-03 0.405E-03
   -.154E-01 -.297E-01 -.597E-01   0.618E-02 0.362E-01 0.628E-01   0.475E-02 -.558E-02 -.942E-02   0.173E-03 0.698E-03 -.386E-03
   0.116E-01 0.488E-01 -.572E-01   0.620E-02 -.397E-01 0.628E-01   -.474E-03 -.735E-03 0.830E-03   -.171E-03 -.187E-02 -.700E-03
   -.704E-01 -.184E-01 -.579E-01   0.719E-01 -.178E-02 0.625E-01   -.160E-02 0.146E-02 -.388E-02   0.226E-02 0.529E-03 -.579E-03
   0.103E+00 -.191E-02 -.466E+00   -.106E+00 -.177E-02 0.504E+00   0.728E-03 -.939E-03 -.525E-01   -.231E-02 0.432E-03 -.505E-03
   -.112E+00 -.980E-03 0.214E+00   0.121E+00 -.233E-02 -.234E+00   0.417E-02 -.123E-02 0.352E-01   0.629E-03 0.163E-03 -.213E-02
   0.370E+00 0.643E-02 0.683E+00   -.346E+00 -.114E-01 -.739E+00   0.408E-01 -.808E-03 0.572E-01   -.300E-03 0.111E-03 -.183E-02
   -.506E+00 -.502E+00 0.677E+00   0.590E+00 0.535E+00 -.732E+00   0.309E-01 -.710E-02 0.576E-01   -.844E-04 0.102E-03 -.184E-02
   -.500E+00 0.504E+00 0.688E+00   0.582E+00 -.541E+00 -.745E+00   0.332E-01 0.277E-02 0.576E-01   -.167E-03 -.318E-03 -.166E-02
   0.135E-02 -.543E-03 -.133E+00   0.902E-02 -.286E-02 0.132E+00   0.239E-02 -.128E-02 -.930E-03   0.513E-03 0.259E-04 0.213E-02
   -.418E-02 0.457E-03 -.144E+00   0.778E-03 -.279E-02 0.149E+00   0.353E-02 -.154E-02 -.131E-01   -.572E-03 0.280E-03 0.189E-02
   0.222E-02 0.555E-02 -.143E+00   0.509E-02 -.397E-03 0.149E+00   0.207E-02 -.251E-02 -.138E-01   -.620E-04 0.116E-03 0.190E-02
   0.495E-02 -.211E-02 -.144E+00   0.521E-02 -.545E-02 0.150E+00   0.140E-02 -.288E-03 -.123E-01   0.302E-03 -.503E-03 0.174E-02
   0.101E+00 -.334E-01 -.751E-01   -.120E+00 0.447E-01 0.805E-01   -.463E-02 0.145E-02 0.120E-01   -.486E-04 0.161E-03 0.380E-03
   -.125E+00 -.986E-01 -.228E+00   0.139E+00 0.111E+00 0.240E+00   0.530E-02 0.738E-02 0.147E-01   -.105E-03 0.548E-03 0.624E-03
   0.460E-01 0.131E+00 -.151E+00   -.476E-01 -.147E+00 0.160E+00   -.469E-02 -.419E-02 0.135E-01   -.395E-03 -.353E-03 0.511E-03
   -.301E-01 0.207E-05 -.343E-01   0.251E-01 0.280E-02 0.471E-01   -.330E-02 0.132E-02 -.168E-01   0.536E-03 -.519E-03 0.489E-03
   -.122E+00 0.910E-01 -.225E+00   0.137E+00 -.103E+00 0.238E+00   0.573E-02 -.391E-02 0.148E-01   -.514E-03 -.394E-03 -.419E-03
   0.103E+00 0.333E-01 -.756E-01   -.119E+00 -.389E-01 0.823E-01   -.468E-02 0.127E-02 0.112E-01   0.541E-03 0.781E-03 -.689E-03
   0.394E-01 -.129E+00 -.151E+00   -.466E-01 0.151E+00 0.160E+00   -.393E-02 0.694E-02 0.131E-01   -.972E-03 -.466E-03 -.570E-03
   -.288E-01 0.649E-03 -.347E-01   0.246E-01 0.278E-02 0.479E-01   -.447E-02 0.113E-02 -.151E-01   0.939E-03 0.243E-03 -.540E-03
 -----------------------------------------------------------------------------------------------
   -.277E-02 0.960E-04 -.530E-01   0.364E-14 -.133E-13 0.411E-13   0.279E-02 -.105E-03 0.528E-01   -.421E-04 0.637E-05 -.942E-04
 
 
 POSITION                                       TOTAL-FORCE (eV/Angst)
 -----------------------------------------------------------------------------------
      2.47237     -0.00011      1.01739        -0.276268      0.005778     -0.091198
      4.93431     -0.00022      1.00886         0.022751      0.003419     -0.008123
      1.23348      2.13645      1.00886        -0.022217     -0.019119     -0.008472
      3.70064      2.13634      1.00886        -0.020464      0.030125     -0.008343
      2.46715     -0.00011      5.04431        -0.011953      0.003528      0.003227
      4.93431     -0.00022      5.04431        -0.009522      0.002069      0.005361
      1.23348      2.13645      5.04431        -0.001389      0.007357      0.005766
      3.70064      2.13634      5.04431        -0.006362      0.002442      0.005975
     -1.23367      2.13656      3.02658         0.013400     -0.013895      0.005992
      1.23348      2.13645      3.02658        -0.003843     -0.009231     -0.005826
     -2.46735      4.27313      3.02658         0.000966      0.008012     -0.000317
     -0.00019      4.27302      3.02658         0.000545     -0.003893     -0.016188
     -1.23367      2.13656      7.06203        -0.004259      0.001597     -0.006609
      1.23348      2.13645      7.06203         0.017167      0.006485      0.005812
     -2.46735      4.27313      7.06203         0.002242     -0.018198      0.000259
     -0.00019      4.27302      7.06203        -0.003730     -0.004180     -0.014568
     -0.00019      1.42441      1.00886         0.013571     -0.004381      0.013785
      2.46696      1.42430      1.00886         0.063840     -0.005644     -0.000144
     -1.23387      3.56098      1.00886         0.115023      0.026563      0.000802
      1.23329      3.56086      1.00886         0.114987     -0.034524     -0.000952
     -0.00019      1.42441      5.04431         0.013250     -0.004660     -0.000178
      2.46696      1.42430      5.04431        -0.000406     -0.003591     -0.005451
     -1.23387      3.56098      5.04431         0.009319      0.002737     -0.005729
      1.23329      3.56086      5.04431         0.011869     -0.008332     -0.004624
      1.23367      0.71204      3.02658        -0.023581      0.012927      0.017802
      3.70083      0.71193      3.02658         0.019317      0.020097      0.027850
     -0.00000      2.84860      3.02658        -0.006690     -0.019997      0.022853
      2.46715      2.84849      3.02658        -0.007713      0.003601     -0.003420
      1.23367      0.71204      7.06203         0.020725     -0.016309      0.027222
      3.70083      0.71193      7.06203        -0.020667     -0.003534      0.017282
     -0.00000      2.84860      7.06203        -0.012145      0.027949      0.022500
      2.46715      2.84849      7.06203        -0.007763      0.004801     -0.002347
 -----------------------------------------------------------------------------------
    total drift:                               -0.000026     -0.000003     -0.000341


--------------------------------------------------------------------------------------------------------



  FREE ENERGIE OF THE ION-ELECTRON SYSTEM (eV)
  ---------------------------------------------------
  free  energy   TOTEN  =      -261.88410175 eV

  energy  without entropy=     -261.88410175  energy(sigma->0) =     -261.88410175
 


--------------------------------------------------------------------------------------------------------


    POTLOK:  cpu time    0.17: real time    0.17


--------------------------------------------------------------------------------------------------------


     LOOP+:  cpu time 1636.26: real time 1637.19
    4ORBIT:  cpu time    0.00: real time    0.00
 BZINTS: Fermi energy: 11.684691;128.000000 electrons
         Band energy: 164.959472;  BLOECHL correction: -0.116425

 total amount of memory used by VASP on root node   326902. kBytes
========================================================================

   base      :      30000. kBytes
   nonl-proj :      62512. kBytes
   fftplans  :       5242. kBytes
   grid      :      11074. kBytes
   one-center:         98. kBytes
   wavefun   :     217976. kBytes
 
  
  
 General timing and accounting informations for this job:
 ========================================================
  
                  Total CPU time used (sec):     1663.453
                            User time (sec):     1362.810
                          System time (sec):      300.643
                         Elapsed time (sec):     1664.621
  
                   Maximum memory used (kb):      456804.
                   Average memory used (kb):           0.
  
                          Minor page faults:     23832026
                          Major page faults:            0
                 Voluntary context switches:          928
