   4   4   0   0
  0.8419860E+01  0.2467155E-09  0.2467155E-09  0.6389455E-09  0.5000000E-15
  1.000000000000000E-004
  CAR 
 graphite                                
     19.13200971    -16.57032815  301      5.09305073      1.00000000
    -16.570  0.0000E+00  0.0000E+00
    -16.451  0.0000E+00  0.0000E+00
    -16.332  0.0000E+00  0.0000E+00
    -16.213  0.0000E+00  0.0000E+00
    -16.094  0.0000E+00  0.0000E+00
    -15.975  0.0000E+00  0.0000E+00
    -15.856  0.0000E+00  0.0000E+00
    -15.737  0.0000E+00  0.0000E+00
    -15.618  0.0000E+00  0.0000E+00
    -15.499  0.0000E+00  0.0000E+00
    -15.380  0.0000E+00  0.0000E+00
    -15.261  0.0000E+00  0.0000E+00
    -15.142  0.0000E+00  0.0000E+00
    -15.023  0.0000E+00  0.0000E+00
    -14.904  0.0000E+00  0.0000E+00
    -14.785  0.0000E+00  0.0000E+00
    -14.666  0.0000E+00  0.0000E+00
    -14.547  0.1383E-03  0.1126E-05
    -14.428  0.1085E-02  0.8907E-04
    -14.309  0.1725E-02  0.2578E-03
    -14.190  0.2267E-02  0.4919E-03
    -14.071  0.3121E-02  0.8238E-03
    -13.952  0.3111E-02  0.1190E-02
    -13.833  0.3047E-02  0.1555E-02
    -13.714  0.3128E-02  0.1923E-02
    -13.595  0.3080E-02  0.2294E-02
    -13.476  0.3085E-02  0.2660E-02
    -13.357  0.3112E-02  0.3029E-02
    -13.238  0.3105E-02  0.3399E-02
    -13.119  0.3116E-02  0.3770E-02
    -13.000  0.3116E-02  0.4141E-02
    -12.881  0.3129E-02  0.4512E-02
    -12.762  0.3117E-02  0.4884E-02
    -12.643  0.3132E-02  0.5256E-02
    -12.524  0.3151E-02  0.5630E-02
    -12.405  0.3155E-02  0.6006E-02
    -12.286  0.3157E-02  0.6381E-02
    -12.167  0.3146E-02  0.6756E-02
    -12.048  0.3159E-02  0.7131E-02
    -11.929  0.3183E-02  0.7509E-02
    -11.810  0.3197E-02  0.7889E-02
    -11.691  0.3200E-02  0.8269E-02
    -11.572  0.3203E-02  0.8650E-02
    -11.453  0.3197E-02  0.9031E-02
    -11.334  0.3210E-02  0.9412E-02
    -11.215  0.3232E-02  0.9795E-02
    -11.096  0.3257E-02  0.1018E-01
    -10.977  0.3266E-02  0.1057E-01
    -10.858  0.3275E-02  0.1096E-01
    -10.739  0.3278E-02  0.1135E-01
    -10.620  0.3291E-02  0.1174E-01
    -10.501  0.3313E-02  0.1213E-01
    -10.382  0.3343E-02  0.1253E-01
    -10.263  0.3378E-02  0.1293E-01
    -10.144  0.3412E-02  0.1333E-01
    -10.025  0.3448E-02  0.1374E-01
     -9.906  0.3500E-02  0.1415E-01
     -9.787  0.3574E-02  0.1457E-01
     -9.668  0.3715E-02  0.1501E-01
     -9.549  0.3897E-02  0.1546E-01
     -9.430  0.4628E-02  0.1595E-01
     -9.311  0.4892E-02  0.1652E-01
     -9.192  0.4901E-02  0.1711E-01
     -9.073  0.4247E-02  0.1760E-01
     -8.954  0.3357E-02  0.1806E-01
     -8.835  0.2918E-02  0.1845E-01
     -8.716  0.2081E-02  0.1872E-01
     -8.597  0.1821E-02  0.1895E-01
     -8.478  0.1561E-02  0.1915E-01
     -8.359  0.1854E-02  0.1934E-01
     -8.240  0.1523E-02  0.1955E-01
     -8.121  0.1107E-02  0.1971E-01
     -8.002  0.1142E-02  0.1983E-01
     -7.883  0.2415E-02  0.2001E-01
     -7.764  0.3298E-02  0.2039E-01
     -7.645  0.3286E-02  0.2079E-01
     -7.526  0.2846E-02  0.2113E-01
     -7.407  0.3891E-02  0.2156E-01
     -7.288  0.4642E-02  0.2209E-01
     -7.169  0.4683E-02  0.2261E-01
     -7.050  0.5471E-02  0.2321E-01
     -6.931  0.4685E-02  0.2382E-01
     -6.812  0.3829E-02  0.2431E-01
     -6.693  0.3669E-02  0.2476E-01
     -6.574  0.3526E-02  0.2518E-01
     -6.455  0.3383E-02  0.2559E-01
     -6.336  0.3240E-02  0.2599E-01
     -6.217  0.3096E-02  0.2637E-01
     -6.098  0.2995E-02  0.2673E-01
     -5.979  0.2956E-02  0.2708E-01
     -5.860  0.2919E-02  0.2743E-01
     -5.741  0.2882E-02  0.2778E-01
     -5.622  0.2845E-02  0.2812E-01
     -5.503  0.2685E-02  0.2845E-01
     -5.384  0.2572E-02  0.2876E-01
     -5.265  0.3006E-02  0.2909E-01
     -5.146  0.3452E-02  0.2947E-01
     -5.027  0.3894E-02  0.2991E-01
     -4.908  0.3806E-02  0.3037E-01
     -4.789  0.3707E-02  0.3082E-01
     -4.670  0.3650E-02  0.3125E-01
     -4.551  0.3594E-02  0.3169E-01
     -4.432  0.3642E-02  0.3211E-01
     -4.313  0.3743E-02  0.3255E-01
     -4.194  0.3838E-02  0.3300E-01
     -4.075  0.3913E-02  0.3347E-01
     -3.956  0.3948E-02  0.3393E-01
     -3.836  0.3958E-02  0.3441E-01
     -3.717  0.3901E-02  0.3487E-01
     -3.598  0.3955E-02  0.3534E-01
     -3.479  0.4404E-02  0.3584E-01
     -3.360  0.4590E-02  0.3637E-01
     -3.241  0.4782E-02  0.3693E-01
     -3.122  0.4919E-02  0.3751E-01
     -3.003  0.5148E-02  0.3811E-01
     -2.884  0.5386E-02  0.3873E-01
     -2.765  0.5569E-02  0.3939E-01
     -2.646  0.5749E-02  0.4006E-01
     -2.527  0.5951E-02  0.4076E-01
     -2.408  0.6169E-02  0.4147E-01
     -2.289  0.6801E-02  0.4226E-01
     -2.170  0.6609E-02  0.4306E-01
     -2.051  0.6705E-02  0.4384E-01
     -1.932  0.6883E-02  0.4466E-01
     -1.813  0.6869E-02  0.4547E-01
     -1.694  0.6730E-02  0.4629E-01
     -1.575  0.7831E-02  0.4716E-01
     -1.456  0.9540E-02  0.4816E-01
     -1.337  0.1149E-01  0.4942E-01
     -1.218  0.1141E-01  0.5084E-01
     -1.099  0.9722E-02  0.5207E-01
     -0.980  0.8803E-02  0.5318E-01
     -0.861  0.8562E-02  0.5420E-01
     -0.742  0.7907E-02  0.5518E-01
     -0.623  0.6799E-02  0.5608E-01
     -0.504  0.6110E-02  0.5684E-01
     -0.385  0.6560E-02  0.5760E-01
     -0.266  0.7168E-02  0.5842E-01
     -0.147  0.7445E-02  0.5931E-01
     -0.028  0.6678E-02  0.6015E-01
      0.091  0.5902E-02  0.6089E-01
      0.210  0.5835E-02  0.6159E-01
      0.329  0.6123E-02  0.6229E-01
      0.448  0.7504E-02  0.6309E-01
      0.567  0.6377E-02  0.6397E-01
      0.686  0.6113E-02  0.6471E-01
      0.805  0.5940E-02  0.6543E-01
      0.924  0.5814E-02  0.6613E-01
      1.043  0.5751E-02  0.6681E-01
      1.162  0.5909E-02  0.6751E-01
      1.281  0.5816E-02  0.6820E-01
      1.400  0.5693E-02  0.6889E-01
      1.519  0.5565E-02  0.6956E-01
      1.638  0.5747E-02  0.7023E-01
      1.757  0.5679E-02  0.7091E-01
      1.876  0.5934E-02  0.7160E-01
      1.995  0.6147E-02  0.7228E-01
      2.114  0.4493E-02  0.7291E-01
      2.233  0.4084E-02  0.7341E-01
      2.352  0.4001E-02  0.7389E-01
      2.471  0.3965E-02  0.7436E-01
      2.590  0.4156E-02  0.7484E-01
      2.709  0.4072E-02  0.7533E-01
      2.828  0.4085E-02  0.7582E-01
      2.947  0.4296E-02  0.7631E-01
      3.066  0.4760E-02  0.7684E-01
      3.185  0.3657E-02  0.7734E-01
      3.304  0.3066E-02  0.7775E-01
      3.423  0.2639E-02  0.7808E-01
      3.542  0.2392E-02  0.7838E-01
      3.661  0.2072E-02  0.7865E-01
      3.780  0.1868E-02  0.7888E-01
      3.899  0.1679E-02  0.7909E-01
      4.018  0.1433E-02  0.7928E-01
      4.137  0.1181E-02  0.7943E-01
      4.256  0.1009E-02  0.7956E-01
      4.375  0.8467E-03  0.7967E-01
      4.494  0.7099E-03  0.7977E-01
      4.613  0.6007E-03  0.7984E-01
      4.732  0.5051E-03  0.7991E-01
      4.851  0.3313E-03  0.7996E-01
      4.970  0.1621E-03  0.7999E-01
      5.089  0.1223E-04  0.8000E-01
      5.208  0.8496E-04  0.8000E-01
      5.327  0.1805E-03  0.8002E-01
      5.446  0.2824E-03  0.8005E-01
      5.565  0.3931E-03  0.8009E-01
      5.684  0.5146E-03  0.8014E-01
      5.803  0.6361E-03  0.8021E-01
      5.922  0.8202E-03  0.8030E-01
      6.041  0.1060E-02  0.8041E-01
      6.160  0.1350E-02  0.8055E-01
      6.279  0.1580E-02  0.8073E-01
      6.398  0.2076E-02  0.8094E-01
      6.517  0.3145E-02  0.8127E-01
      6.636  0.3920E-02  0.8170E-01
      6.755  0.5030E-02  0.8237E-01
      6.874  0.4484E-02  0.8294E-01
      6.993  0.4155E-02  0.8345E-01
      7.112  0.4081E-02  0.8394E-01
      7.231  0.3857E-02  0.8443E-01
      7.350  0.3818E-02  0.8489E-01
      7.469  0.3859E-02  0.8534E-01
      7.588  0.3408E-02  0.8579E-01
      7.707  0.3195E-02  0.8618E-01
      7.826  0.3016E-02  0.8655E-01
      7.945  0.2878E-02  0.8690E-01
      8.064  0.2764E-02  0.8723E-01
      8.183  0.2669E-02  0.8756E-01
      8.302  0.2581E-02  0.8787E-01
      8.421  0.2516E-02  0.8817E-01
      8.540  0.2452E-02  0.8847E-01
      8.659  0.2385E-02  0.8876E-01
      8.778  0.2326E-02  0.8904E-01
      8.897  0.2272E-02  0.8931E-01
      9.016  0.2222E-02  0.8958E-01
      9.135  0.2174E-02  0.8984E-01
      9.254  0.2129E-02  0.9009E-01
      9.373  0.2083E-02  0.9034E-01
      9.492  0.2049E-02  0.9059E-01
      9.611  0.2017E-02  0.9083E-01
      9.730  0.1984E-02  0.9107E-01
      9.849  0.1944E-02  0.9130E-01
      9.968  0.2011E-02  0.9154E-01
     10.087  0.2135E-02  0.9178E-01
     10.206  0.2205E-02  0.9204E-01
     10.325  0.2234E-02  0.9231E-01
     10.444  0.2264E-02  0.9257E-01
     10.563  0.2305E-02  0.9285E-01
     10.682  0.2341E-02  0.9312E-01
     10.801  0.2379E-02  0.9340E-01
     10.920  0.2418E-02  0.9369E-01
     11.039  0.2487E-02  0.9398E-01
     11.158  0.2570E-02  0.9428E-01
     11.277  0.2702E-02  0.9459E-01
     11.397  0.2811E-02  0.9492E-01
     11.516  0.2847E-02  0.9526E-01
     11.635  0.2727E-02  0.9559E-01
     11.754  0.2474E-02  0.9590E-01
     11.873  0.2374E-02  0.9619E-01
     11.992  0.2222E-02  0.9647E-01
     12.111  0.2050E-02  0.9672E-01
     12.230  0.2014E-02  0.9696E-01
     12.349  0.3051E-02  0.9725E-01
     12.468  0.4487E-02  0.9770E-01
     12.587  0.6373E-02  0.9834E-01
     12.706  0.6813E-02  0.9914E-01
     12.825  0.7585E-02  0.9999E-01
     12.944  0.9387E-02  0.1010E+00
     13.063  0.9312E-02  0.1021E+00
     13.182  0.8670E-02  0.1032E+00
     13.301  0.8378E-02  0.1042E+00
     13.420  0.9283E-02  0.1052E+00
     13.539  0.1283E-01  0.1067E+00
     13.658  0.1130E-01  0.1084E+00
     13.777  0.8904E-02  0.1095E+00
     13.896  0.6500E-02  0.1105E+00
     14.015  0.5696E-02  0.1112E+00
     14.134  0.5434E-02  0.1118E+00
     14.253  0.4738E-02  0.1125E+00
     14.372  0.4558E-02  0.1130E+00
     14.491  0.4637E-02  0.1136E+00
     14.610  0.4735E-02  0.1141E+00
     14.729  0.3402E-02  0.1146E+00
     14.848  0.2833E-02  0.1150E+00
     14.967  0.2810E-02  0.1153E+00
     15.086  0.3120E-02  0.1157E+00
     15.205  0.3039E-02  0.1161E+00
     15.324  0.2969E-02  0.1164E+00
     15.443  0.3733E-02  0.1168E+00
     15.562  0.4175E-02  0.1173E+00
     15.681  0.5032E-02  0.1178E+00
     15.800  0.3578E-02  0.1183E+00
     15.919  0.2862E-02  0.1187E+00
     16.038  0.2380E-02  0.1190E+00
     16.157  0.2127E-02  0.1193E+00
     16.276  0.2444E-02  0.1196E+00
     16.395  0.1144E-02  0.1197E+00
     16.514  0.8520E-03  0.1198E+00
     16.633  0.5151E-03  0.1199E+00
     16.752  0.2506E-03  0.1200E+00
     16.871  0.1007E-03  0.1200E+00
     16.990  0.2107E-04  0.1200E+00
     17.109  0.3273E-06  0.1200E+00
     17.228  0.0000E+00  0.1200E+00
     17.347  0.0000E+00  0.1200E+00
     17.466  0.0000E+00  0.1200E+00
     17.585  0.0000E+00  0.1200E+00
     17.704  0.0000E+00  0.1200E+00
     17.823  0.0000E+00  0.1200E+00
     17.942  0.0000E+00  0.1200E+00
     18.061  0.0000E+00  0.1200E+00
     18.180  0.0000E+00  0.1200E+00
     18.299  0.0000E+00  0.1200E+00
     18.418  0.0000E+00  0.1200E+00
     18.537  0.0000E+00  0.1200E+00
     18.656  0.0000E+00  0.1200E+00
     18.775  0.0000E+00  0.1200E+00
     18.894  0.0000E+00  0.1200E+00
     19.013  0.0000E+00  0.1200E+00
     19.132  0.0000E+00  0.1200E+00
