    4    4  200    1
  0.8774381E+01  0.2467155E-09  0.2467155E-09  0.6658485E-09  0.5000000E-15
  1.000000000000000E-004
  CAR 
 graphite                                
     16    455     12
 
  0.0000000E+00  0.0000000E+00  0.0000000E+00  0.3858025E-03
    1      -14.891776
    2      -14.573156
    3       -3.787659
    4       -1.743179
    5        1.735676
    6        1.740362
    7        1.755744
    8        1.760413
    9        9.111445
   10       13.059845
   11       13.063504
   12       13.114840
 
  0.5555556E-01 -0.3469447E-17  0.0000000E+00  0.1543210E-02
    1      -14.818122
    2      -14.500905
    3       -3.698289
    4       -1.659780
    5        1.437028
    6        1.465229
    7        1.577849
    8        1.603610
    9        9.199748
   10       13.089776
   11       13.159610
   12       13.416118
 
  0.1111111E+00 -0.6938894E-17  0.0000000E+00  0.1543210E-02
    1      -14.597603
    2      -14.284503
    3       -3.431017
    4       -1.410988
    5        0.609350
    6        0.656037
    7        1.157975
    8        1.193511
    9        9.465362
   10       13.105006
   11       13.222930
   12       14.268473
 
  0.1666667E+00  0.2775558E-16  0.0000000E+00  0.1543210E-02
    1      -14.231189
    2      -13.925044
    3       -2.988396
    4       -1.000513
    5       -0.577081
    6       -0.507589
    7        0.595472
    8        0.639237
    9        9.908526
   10       13.001968
   11       13.195107
   12       13.889478
 
  0.2222222E+00 -0.4163336E-16  0.0000000E+00  0.1543210E-02
    1      -13.720964
    2      -13.424410
    3       -2.375500
    4       -1.963873
    5       -1.870067
    6       -0.436912
    7       -0.001117
    8        0.048810
    9       10.526451
   10       12.442475
   11       12.790656
   12       13.060682
 
  0.2777778E+00  0.0000000E+00  0.0000000E+00  0.1543210E-02
    1      -13.069947
    2      -12.785563
    3       -3.436508
    4       -3.317814
    5       -1.601683
    6       -0.555827
    7       -0.501948
    8        0.264447
    9       10.846508
   10       11.308532
   11       11.609153
   12       12.539249
 
  0.3333333E+00  0.5551115E-16  0.0000000E+00  0.1543210E-02
    1      -12.283326
    2      -12.013708
    3       -4.917284
    4       -4.774152
    5       -1.021432
    6       -0.964915
    7       -0.684550
    8        1.071428
    9        9.222580
   10       10.160137
   11       12.132936
   12       12.362745
 
  0.3888889E+00  0.0000000E+00  0.0000000E+00  0.1543210E-02
    1      -11.370747
    2      -11.119339
    3       -6.350482
    4       -6.185255
    5       -1.370032
    6       -1.311592
    7        0.337968
    8        1.905407
    9        7.720427
   10        8.757915
   11       12.078783
   12       12.451295
 
  0.4444444E+00 -0.8326673E-16  0.0000000E+00  0.1543210E-02
    1      -10.360098
    2      -10.135556
    3       -7.674411
    4       -7.496766
    5       -1.584906
    6       -1.525217
    7        1.361734
    8        2.545339
    9        6.605818
   10        7.547538
   11       11.961655
   12       12.370375
 
  0.5000000E+00 -0.5551115E-16  0.0000000E+00  0.7716049E-03
    1       -9.562767
    2       -9.443455
    3       -8.483130
    4       -8.393496
    5       -1.657273
    6       -1.597165
    7        1.958711
    8        2.673341
    9        6.256927
   10        6.945631
   11       11.920650
   12       12.338522
 
  0.5555556E-01  0.5555556E-01  0.0000000E+00  0.7716049E-03
    1      -14.671014
    2      -14.356563
    3       -3.519950
    4       -1.493664
    5        0.906318
    6        0.934162
    7        1.266315
    8        1.288839
    9        9.376904
   10       13.191846
   11       13.281173
   12       13.896322
 
  0.1111111E+00  0.5555556E-01  0.0000000E+00  0.1543210E-02
    1      -14.377551
    2      -14.068628
    3       -3.164970
    4       -1.163936
    5       -0.047939
    6       -0.000407
    7        0.720321
    8        0.754489
    9        9.732226
   10       13.279061
   11       13.422342
   12       14.349374
 
  0.1666667E+00  0.5555556E-01  0.0000000E+00  0.1543210E-02
    1      -13.939228
    2      -13.638571
    3       -2.636882
    4       -1.294920
    5       -1.219391
    6       -0.676420
    7        0.094801
    8        0.141655
    9       10.264754
   10       13.077535
   11       13.187068
   12       13.413633
 
  0.2222222E+00  0.5555556E-01  0.0000000E+00  0.1543210E-02
    1      -13.358568
    2      -13.068817
    3       -2.699585
    4       -2.596978
    5       -1.942839
    6       -0.509545
    7       -0.454243
    8       -0.042293
    9       10.969780
   10       11.583373
   11       12.214047
   12       12.975418
 
  0.2777778E+00  0.5555556E-01  0.0000000E+00  0.1543210E-02
    1      -12.639581
    2      -12.363329
    3       -4.161779
    4       -4.033258
    5       -1.095309
    6       -1.036198
    7       -0.975760
    8        0.716728
    9        9.987807
   10       10.804449
   11       11.830481
   12       12.737744
 
  0.3333333E+00  0.5555556E-01  0.0000000E+00  0.1543210E-02
    1      -11.789263
    2      -11.529528
    3       -5.611324
    4       -5.458708
    5       -1.452394
    6       -1.388543
    7       -0.119200
    8        1.552347
    9        8.423209
   10        9.389627
   11       12.465210
   12       12.738725
 
  0.3888889E+00  0.5555556E-01  0.0000000E+00  0.1543210E-02
    1      -10.822770
    2      -10.583582
    3       -6.992279
    4       -6.819756
    5       -1.738598
    6       -1.672785
    7        0.925567
    8        2.335015
    9        7.078460
   10        8.073024
   11       12.335054
   12       12.737155
 
  0.4444444E+00  0.5555556E-01  0.0000000E+00  0.1543210E-02
    1       -9.812966
    2       -9.622058
    3       -8.184239
    4       -8.024231
    5       -1.884059
    6       -1.817335
    7        1.840746
    8        2.731200
    9        6.326935
   10        7.079835
   11       12.254480
   12       12.678628
 
  0.5000000E+00  0.5555556E-01  0.0000000E+00  0.1543210E-02
    1       -9.813143
    2       -9.622218
    3       -8.184070
    4       -8.024050
    5       -1.884204
    6       -1.817371
    7        1.840686
    8        2.731210
    9        6.326934
   10        7.079830
   11       12.254562
   12       12.678719
 
 -0.4444444E+00  0.5555556E-01  0.0000000E+00  0.1543210E-02
    1      -10.822965
    2      -10.583775
    3       -6.992044
    4       -6.819522
    5       -1.738695
    6       -1.672884
    7        0.925473
    8        2.334989
    9        7.078458
   10        8.072982
   11       12.335308
   12       12.737433
 
 -0.3888889E+00  0.5555556E-01  0.0000000E+00  0.1543210E-02
    1      -11.789438
    2      -11.529702
    3       -5.611100
    4       -5.458491
    5       -1.452526
    6       -1.388680
    7       -0.119297
    8        1.552298
    9        8.423164
   10        9.389523
   11       12.465641
   12       12.739176
 
 -0.3333333E+00  0.5555556E-01  0.0000000E+00  0.1543210E-02
    1      -12.639731
    2      -12.363479
    3       -4.161621
    4       -4.033115
    5       -1.095400
    6       -1.036301
    7       -0.975877
    8        0.716672
    9        9.987684
   10       10.804268
   11       11.830379
   12       12.738359
 
 -0.2777778E+00  0.5555556E-01  0.0000000E+00  0.1543210E-02
    1      -13.358691
    2      -13.068940
    3       -2.699595
    4       -2.597024
    5       -1.942919
    6       -0.509487
    7       -0.454219
    8       -0.042346
    9       10.969663
   10       11.583146
   11       12.213790
   12       12.976325
 
 -0.2222222E+00  0.5555556E-01  0.0000000E+00  0.1543210E-02
    1      -13.939325
    2      -13.638667
    3       -2.636947
    4       -1.295330
    5       -1.219882
    6       -0.676466
    7        0.095304
    8        0.142077
    9       10.264657
   10       13.077261
   11       13.188568
   12       13.415199
 
 -0.1666667E+00  0.5555556E-01  0.0000000E+00  0.1543210E-02
    1      -14.377620
    2      -14.068696
    3       -3.165018
    4       -1.163971
    5       -0.049253
    6       -0.001871
    7        0.721826
    8        0.755836
    9        9.732154
   10       13.281191
   11       13.424611
   12       14.358504
 
 -0.1111111E+00  0.5555556E-01  0.0000000E+00  0.1543210E-02
    1      -14.671055
    2      -14.356605
    3       -3.519980
    4       -1.493685
    5        0.903275
    6        0.931129
    7        1.269417
    8        1.291933
    9        9.376859
   10       13.194962
   11       13.284309
   12       13.887741
 
 -0.5555556E-01  0.5555556E-01  0.0000000E+00  0.7716049E-03
    1      -14.818136
    2      -14.500919
    3       -3.698299
    4       -1.659788
    5        1.433620
    6        1.461838
    7        1.581283
    8        1.607042
    9        9.199732
   10       13.091997
   11       13.162230
   12       13.374833
 
  0.1111111E+00  0.1111111E+00  0.0000000E+00  0.7716049E-03
    1      -14.012108
    2      -13.710077
    3       -2.724312
    4       -0.946326
    5       -0.903232
    6       -0.756742
    7        0.018259
    8        0.048778
    9       10.178374
   10       13.325696
   11       13.692901
   12       13.831494
 
  0.1666667E+00  0.1111111E+00  0.0000000E+00  0.1543210E-02
    1      -13.503455
    2      -13.210935
    3       -2.114436
    4       -2.095885
    5       -2.027211
    6       -0.730131
    7       -0.683481
    8       -0.197171
    9       10.801082
   10       12.048975
   11       12.528847
   12       13.849621
 
  0.2222222E+00  0.1111111E+00  0.0000000E+00  0.1543210E-02
    1      -12.854761
    2      -12.574439
    3       -3.425531
    4       -3.322365
    5       -1.379582
    6       -1.344309
    7       -1.315339
    8        0.499710
    9       10.598891
   10       11.224976
   11       11.594225
   12       13.713777
 
  0.2777778E+00  0.1111111E+00  0.0000000E+00  0.1543210E-02
    1      -12.071534
    2      -11.806216
    3       -4.824447
    4       -4.691571
    5       -1.893882
    6       -1.819514
    7       -0.430995
    8        1.303738
    9        9.083422
   10        9.876579
   11       12.542303
   12       13.507529
 
  0.3333333E+00  0.1111111E+00  0.0000000E+00  0.1543210E-02
    1      -11.164043
    2      -10.916673
    3       -6.209900
    4       -6.052004
    5       -2.265926
    6       -2.186203
    7        0.589282
    8        2.141601
    9        7.647628
   10        8.554795
   11       13.273906
   12       13.575368
 
  0.3888889E+00  0.1111111E+00  0.0000000E+00  0.1543210E-02
    1      -10.161202
    2       -9.940629
    3       -7.505097
    4       -7.333110
    5       -2.491378
    6       -2.408819
    7        1.616871
    8        2.798662
    9        6.561504
   10        7.383678
   11       13.174700
   12       13.624895
 
  0.4444444E+00  0.1111111E+00  0.0000000E+00  0.1543210E-02
    1       -9.373898
    2       -9.256636
    3       -8.299293
    4       -8.213676
    5       -2.567072
    6       -2.483579
    7        2.225112
    8        2.933495
    9        6.241195
   10        6.764317
   11       13.133579
   12       13.597252
 
  0.5000000E+00  0.1111111E+00  0.0000000E+00  0.1543210E-02
    1      -10.161595
    2       -9.941011
    3       -7.504663
    4       -7.332670
    5       -2.491478
    6       -2.408924
    7        1.616711
    8        2.798653
    9        6.561485
   10        7.383625
   11       13.175008
   12       13.625252
 
 -0.4444444E+00  0.1111111E+00  0.0000000E+00  0.1543210E-02
    1      -11.164414
    2      -10.917041
    3       -6.209460
    4       -6.051574
    5       -2.266084
    6       -2.186372
    7        0.589095
    8        2.141528
    9        7.647544
   10        8.554632
   11       13.274551
   12       13.575845
 
 -0.3888889E+00  0.1111111E+00  0.0000000E+00  0.1543210E-02
    1      -12.071859
    2      -11.806540
    3       -4.824120
    4       -4.691273
    5       -1.893987
    6       -1.819647
    7       -0.431179
    8        1.303637
    9        9.083193
   10        9.876278
   11       12.542021
   12       13.508550
 
 -0.3333333E+00  0.1111111E+00  0.0000000E+00  0.1543210E-02
    1      -12.855034
    2      -12.574711
    3       -3.425531
    4       -3.322432
    5       -1.379379
    6       -1.344477
    7       -1.315204
    8        0.499605
    9       10.598454
   10       11.224537
   11       11.593942
   12       13.715429
 
 -0.2777778E+00  0.1111111E+00  0.0000000E+00  0.1543210E-02
    1      -13.503679
    2      -13.211169
    3       -2.114581
    4       -2.096673
    5       -2.028116
    6       -0.729183
    7       -0.682591
    8       -0.197268
    9       10.800848
   10       12.048302
   11       12.528308
   12       13.852682
 
 -0.2222222E+00  0.1111111E+00  0.0000000E+00  0.1543210E-02
    1      -14.012272
    2      -13.710242
    3       -2.724424
    4       -0.948492
    5       -0.905383
    6       -0.756821
    7        0.020552
    8        0.051073
    9       10.178197
   10       13.324847
   11       13.696948
   12       13.820542
 
 -0.1666667E+00  0.1111111E+00  0.0000000E+00  0.1543210E-02
    1      -14.377661
    2      -14.068737
    3       -3.165046
    4       -1.163992
    5       -0.051163
    6       -0.003599
    7        0.723690
    8        0.757875
    9        9.732105
   10       13.283310
   11       13.426574
   12       14.347109
 
 -0.1111111E+00  0.1111111E+00  0.0000000E+00  0.7716049E-03
    1      -14.597658
    2      -14.284558
    3       -3.431056
    4       -1.411016
    5        0.606133
    6        0.652835
    7        1.161323
    8        1.196858
    9        9.465299
   10       13.108117
   11       13.225998
   12       14.298196
 
  0.1666667E+00  0.1666667E+00  0.0000000E+00  0.7716049E-03
    1      -12.926679
    2      -12.645004
    3       -3.011091
    4       -2.952393
    5       -1.647357
    6       -1.604493
    7       -1.427741
    8        0.426703
    9       10.853065
   10       11.358882
   11       11.511878
   12       14.644924
 
  0.2222222E+00  0.1666667E+00  0.0000000E+00  0.1543210E-02
    1      -12.213545
    2      -11.945411
    3       -4.137982
    4       -4.047426
    5       -2.421399
    6       -2.356399
    7       -0.588803
    8        1.175748
    9        9.528312
   10       10.120481
   11       12.388379
   12       14.823933
 
  0.2777778E+00  0.1666667E+00  0.0000000E+00  0.1543210E-02
    1      -11.371952
    2      -11.120163
    3       -5.410384
    4       -5.280662
    5       -2.965128
    6       -2.878196
    7        0.379333
    8        2.008670
    9        8.156164
   10        8.875297
   11       13.415412
   12       14.669675
 
  0.3333333E+00  0.1666667E+00  0.0000000E+00  0.1543210E-02
    1      -10.418437
    2      -10.187480
    3       -6.697538
    4       -6.540298
    5       -3.307218
    6       -3.209915
    7        1.423163
    8        2.812885
    9        6.910286
   10        7.683596
   11       14.435391
   12       14.631808
 
  0.3888889E+00  0.1666667E+00  0.0000000E+00  0.1543210E-02
    1       -9.427416
    2       -9.243746
    3       -7.838304
    4       -7.689488
    5       -3.473832
    6       -3.372214
    7        2.359322
    8        3.248385
    9        6.209943
   10        6.702630
   11       14.405844
   12       14.964405
 
  0.4444444E+00  0.1666667E+00  0.0000000E+00  0.1543210E-02
    1       -9.427931
    2       -9.244206
    3       -7.837820
    4       -7.688949
    5       -3.473871
    6       -3.372259
    7        2.359165
    8        3.248430
    9        6.209881
   10        6.702594
   11       14.406050
   12       14.964689
 
  0.5000000E+00  0.1666667E+00  0.0000000E+00  0.1543210E-02
    1      -10.419014
    2      -10.188050
    3       -6.696928
    4       -6.539701
    5       -3.307291
    6       -3.210009
    7        1.422914
    8        2.812837
    9        6.910122
   10        7.683409
   11       14.435953
   12       14.631754
 
 -0.4444444E+00  0.1666667E+00  0.0000000E+00  0.1543210E-02
    1      -11.372473
    2      -11.120682
    3       -5.409962
    4       -5.280289
    5       -2.965054
    6       -2.878177
    7        0.379067
    8        2.008555
    9        8.155788
   10        8.874932
   11       13.414839
   12       14.670825
 
 -0.3888889E+00  0.1666667E+00  0.0000000E+00  0.1543210E-02
    1      -12.213992
    2      -11.945857
    3       -4.138148
    4       -4.047683
    5       -2.420762
    6       -2.355865
    7       -0.589057
    8        1.175607
    9        9.527621
   10       10.119947
   11       12.387871
   12       14.826407
 
 -0.3333333E+00  0.1666667E+00  0.0000000E+00  0.1543210E-02
    1      -12.927048
    2      -12.645372
    3       -3.012431
    4       -2.953708
    5       -1.645700
    6       -1.602826
    7       -1.427966
    8        0.426562
    9       10.852030
   10       11.358214
   11       11.511465
   12       14.650316
 
 -0.2777778E+00  0.1666667E+00  0.0000000E+00  0.1543210E-02
    1      -13.503743
    2      -13.211222
    3       -2.114622
    4       -2.098219
    5       -2.029488
    6       -0.727511
    7       -0.680817
    8       -0.197295
    9       10.800765
   10       12.047711
   11       12.528078
   12       13.855080
 
 -0.2222222E+00  0.1666667E+00  0.0000000E+00  0.1543210E-02
    1      -13.939434
    2      -13.638777
    3       -2.637019
    4       -1.297737
    5       -1.222204
    6       -0.676516
    7        0.097978
    8        0.144824
    9       10.264526
   10       13.076269
   11       13.191654
   12       13.422340
 
 -0.1666667E+00  0.1666667E+00  0.0000000E+00  0.7716049E-03
    1      -14.231312
    2      -13.925167
    3       -2.988481
    4       -1.000573
    5       -0.580017
    6       -0.510511
    7        0.598718
    8        0.642484
    9        9.908385
   10       13.005532
   11       13.198597
   12       13.881126
 
  0.2222222E+00  0.2222222E+00  0.0000000E+00  0.7716049E-03
    1      -11.441536
    2      -11.188503
    3       -4.930756
    4       -4.856435
    5       -3.382895
    6       -3.327295
    7        0.308150
    8        1.961679
    9        8.378449
   10        8.973677
   11       13.337097
   12       15.959735
 
  0.2777778E+00  0.2222222E+00  0.0000000E+00  0.1543210E-02
    1      -10.551053
    2      -10.316106
    3       -5.948243
    4       -5.837011
    5       -4.055090
    6       -3.971893
    7        1.316009
    8        2.804153
    9        7.191723
   10        7.847622
   11       14.416702
   12       15.981013
 
  0.3333333E+00  0.2222222E+00  0.0000000E+00  0.1543210E-02
    1       -9.573107
    2       -9.364912
    3       -7.074604
    4       -6.929871
    5       -4.408281
    6       -4.301898
    7        2.354613
    8        3.529899
    9        6.185131
   10        6.799544
   11       15.556039
   12       15.863738
 
  0.3888889E+00  0.2222222E+00  0.0000000E+00  0.1543210E-02
    1       -8.808454
    2       -8.697304
    3       -7.810495
    4       -7.747497
    5       -4.516135
    6       -4.403665
    7        3.013829
    8        3.699184
    9        6.023289
   10        6.033355
   11       15.768618
   12       16.549608
 
  0.4444444E+00  0.2222222E+00  0.0000000E+00  0.1543210E-02
    1       -9.573868
    2       -9.365652
    3       -7.073927
    4       -6.929206
    5       -4.408183
    6       -4.301837
    7        2.354362
    8        3.529950
    9        6.184827
   10        6.799382
   11       15.555300
   12       15.863510
 
  0.5000000E+00  0.2222222E+00  0.0000000E+00  0.1543210E-02
    1      -10.551781
    2      -10.316829
    3       -5.947914
    4       -5.836751
    5       -4.054605
    6       -3.971498
    7        1.315703
    8        2.804084
    9        7.191132
   10        7.847247
   11       14.415774
   12       15.982058
 
 -0.4444444E+00  0.2222222E+00  0.0000000E+00  0.1543210E-02
    1      -11.442179
    2      -11.189143
    3       -4.931401
    4       -4.857045
    5       -3.381597
    6       -3.325985
    7        0.307834
    8        1.961542
    9        8.377465
   10        8.973112
   11       13.336313
   12       15.941449
 
 -0.3888889E+00  0.2222222E+00  0.0000000E+00  0.1543210E-02
    1      -12.214087
    2      -11.945952
    3       -4.139533
    4       -4.048906
    5       -2.419278
    6       -2.354224
    7       -0.589101
    8        1.175585
    9        9.526960
   10       10.119714
   11       12.387749
   12       14.829986
 
 -0.3333333E+00  0.2222222E+00  0.0000000E+00  0.1543210E-02
    1      -12.855198
    2      -12.574874
    3       -3.427585
    4       -3.324398
    5       -1.376925
    6       -1.344567
    7       -1.312674
    8        0.499552
    9       10.597309
   10       11.224019
   11       11.593742
   12       13.719096
 
 -0.2777778E+00  0.2222222E+00  0.0000000E+00  0.1543210E-02
    1      -13.358897
    2      -13.069144
    3       -2.701989
    4       -2.599377
    5       -1.943043
    6       -0.506525
    7       -0.451229
    8       -0.042426
    9       10.969425
   10       11.581736
   11       12.213027
   12       12.979998
 
 -0.2222222E+00  0.2222222E+00  0.0000000E+00  0.7716049E-03
    1      -13.721183
    2      -13.424629
    3       -2.375642
    4       -1.966498
    5       -1.872678
    6       -0.437008
    7        0.002056
    8        0.051983
    9       10.526205
   10       12.441013
   11       12.794534
   12       13.052237
 
  0.2777778E+00  0.2777778E+00  0.0000000E+00  0.7716049E-03
    1       -9.629266
    2       -9.416535
    3       -6.567984
    4       -6.479240
    5       -4.919509
    6       -4.857764
    7        2.341505
    8        3.634428
    9        6.186183
   10        6.853404
   11       15.497081
   12       16.410768
 
  0.3333333E+00  0.2777778E+00  0.0000000E+00  0.1543210E-02
    1       -8.677644
    2       -8.507041
    3       -7.386713
    4       -7.280700
    5       -5.361477
    6       -5.277152
    7        3.334376
    8        4.238499
    9        5.402148
   10        5.977595
   11       16.106734
   12       16.165374
 
  0.3888889E+00  0.2777778E+00  0.0000000E+00  0.1543210E-02
    1       -8.678452
    2       -8.507769
    3       -7.386213
    4       -7.280154
    5       -5.361185
    6       -5.276905
    7        3.334239
    8        4.238725
    9        5.401722
   10        5.977458
   11       16.108588
   12       16.180633
 
  0.4444444E+00  0.2777778E+00  0.0000000E+00  0.1543210E-02
    1       -9.630187
    2       -9.417442
    3       -6.568069
    4       -6.479281
    5       -4.918464
    6       -4.856698
    7        2.341253
    8        3.634521
    9        6.185342
   10        6.853006
   11       15.495741
   12       16.621263
 
  0.5000000E+00  0.2777778E+00  0.0000000E+00  0.1543210E-02
    1      -10.551901
    2      -10.316949
    3       -5.949138
    4       -5.837826
    5       -4.053279
    6       -3.970019
    7        1.315694
    8        2.804101
    9        7.190478
   10        7.846991
   11       14.415606
   12       15.986556
 
 -0.4444444E+00  0.2777778E+00  0.0000000E+00  0.1543210E-02
    1      -11.372689
    2      -11.120897
    3       -5.411747
    4       -5.281996
    5       -2.962828
    6       -2.875879
    7        0.379001
    8        2.008540
    9        8.154592
   10        8.874392
   11       13.414560
   12       14.675154
 
 -0.3888889E+00  0.2777778E+00  0.0000000E+00  0.1543210E-02
    1      -12.072144
    2      -11.806824
    3       -4.826168
    4       -4.693280
    5       -1.891229
    6       -1.816860
    7       -0.431306
    8        1.303579
    9        9.081640
   10        9.875432
   11       12.541709
   12       13.512633
 
 -0.3333333E+00  0.2777778E+00  0.0000000E+00  0.1543210E-02
    1      -12.640058
    2      -12.363805
    3       -4.163820
    4       -4.035291
    5       -1.095574
    6       -1.033245
    7       -0.972810
    8        0.716574
    9        9.985941
   10       10.803196
   11       11.830078
   12       12.742304
 
 -0.2777778E+00  0.2777778E+00  0.0000000E+00  0.7716049E-03
    1      -13.070289
    2      -12.785904
    3       -3.438815
    4       -3.320108
    5       -1.601884
    6       -0.552695
    7       -0.498817
    8        0.264322
    9       10.844730
   10       11.308196
   11       11.608013
   12       12.543335
 
  0.3333333E+00  0.3333333E+00  0.0000000E+00  0.7716049E-03
    1       -7.918087
    2       -7.814337
    3       -7.814192
    4       -7.714627
    5       -5.759337
    6       -5.759224
    7        4.075166
    8        4.714394
    9        4.715037
   10        5.487228
   11       15.912503
   12       15.913175
 
  0.3888889E+00  0.3333333E+00  0.0000000E+00  0.1543210E-02
    1       -8.678607
    2       -8.507956
    3       -7.387130
    4       -7.280996
    5       -5.360129
    6       -5.275696
    7        3.334455
    8        4.238722
    9        5.401237
   10        5.976992
   11       16.147744
   12       16.220235
 
  0.4444444E+00  0.3333333E+00  0.0000000E+00  0.1543210E-02
    1       -9.574129
    2       -9.365920
    3       -7.075428
    4       -6.930644
    5       -4.406263
    6       -4.299853
    7        2.354468
    8        3.530019
    9        6.183664
   10        6.798750
   11       15.555123
   12       15.868116
 
  0.5000000E+00  0.3333333E+00  0.0000000E+00  0.1543210E-02
    1      -10.419372
    2      -10.188410
    3       -6.698666
    4       -6.541404
    5       -3.304834
    6       -3.207525
    7        1.422901
    8        2.812876
    9        6.908527
   10        7.682502
   11       14.438764
   12       14.637574
 
 -0.4444444E+00  0.3333333E+00  0.0000000E+00  0.1543210E-02
    1      -11.164844
    2      -10.917471
    3       -6.211325
    4       -6.053417
    5       -2.263244
    6       -2.183520
    7        0.588980
    8        2.141509
    9        7.645697
   10        8.553450
   11       13.278224
   12       13.577709
 
 -0.3888889E+00  0.3333333E+00  0.0000000E+00  0.1543210E-02
    1      -11.789911
    2      -11.530175
    3       -5.613045
    4       -5.460419
    5       -1.449450
    6       -1.385601
    7       -0.119490
    8        1.552218
    9        8.421194
   10        9.388165
   11       12.469138
   12       12.741729
 
 -0.3333333E+00  0.3333333E+00  0.0000000E+00  0.7716049E-03
    1      -12.283815
    2      -12.014196
    3       -4.919282
    4       -4.776139
    5       -1.018320
    6       -0.961805
    7       -0.684793
    8        1.071302
    9        9.220599
   10       10.158747
   11       12.134248
   12       12.366005
 
  0.3888889E+00  0.3888889E+00  0.0000000E+00  0.7716049E-03
    1       -8.809105
    2       -8.698013
    3       -7.811653
    4       -7.748631
    5       -4.514078
    6       -4.401579
    7        3.014219
    8        3.699018
    9        6.022270
   10        6.032063
   11       15.773186
   12       16.552676
 
  0.4444444E+00  0.3888889E+00  0.0000000E+00  0.1543210E-02
    1       -9.428453
    2       -9.244760
    3       -7.839351
    4       -7.690479
    5       -3.471382
    6       -3.369759
    7        2.359416
    8        3.248362
    9        6.208153
   10        6.701233
   11       14.410674
   12       14.969304
 
  0.5000000E+00  0.3888889E+00  0.0000000E+00  0.1543210E-02
    1      -10.162185
    2       -9.941606
    3       -7.506300
    4       -7.334292
    5       -2.488643
    6       -2.406085
    7        1.616745
    8        2.798665
    9        6.559460
   10        7.382064
   11       13.179406
   12       13.629627
 
 -0.4444444E+00  0.3888889E+00  0.0000000E+00  0.1543210E-02
    1      -10.823604
    2      -10.584415
    3       -6.993728
    4       -6.821192
    5       -1.735632
    6       -1.669821
    7        0.925349
    8        2.334975
    9        7.076319
   10        8.071328
   11       12.339513
   12       12.741602
 
 -0.3888889E+00  0.3888889E+00  0.0000000E+00  0.7716049E-03
    1      -11.371405
    2      -11.119997
    3       -6.352192
    4       -6.186953
    5       -1.366927
    6       -1.308489
    7        0.337738
    8        1.905332
    9        7.718299
   10        8.756289
   11       12.082964
   12       12.455395
 
  0.4444444E+00  0.4444444E+00  0.0000000E+00  0.7716049E-03
    1       -9.374729
    2       -9.257529
    3       -8.300607
    4       -8.214991
    5       -2.564280
    6       -2.480786
    7        2.225431
    8        2.933267
    9        6.239325
   10        6.762358
   11       13.138159
   12       13.601861
 
  0.5000000E+00  0.4444444E+00  0.0000000E+00  0.1543210E-02
    1       -9.813939
    2       -9.623031
    3       -8.185523
    4       -8.025484
    5       -1.881059
    6       -1.814338
    7        1.840853
    8        2.731089
    9        6.324842
   10        7.077769
   11       12.258910
   12       12.683070
 
 -0.4444444E+00  0.4444444E+00  0.0000000E+00  0.7716049E-03
    1      -10.360932
    2      -10.136391
    3       -7.675873
    4       -7.498213
    5       -1.581804
    6       -1.522117
    7        1.361670
    8        2.545315
    9        6.603608
   10        7.545603
   11       11.965947
   12       12.374666
 
  0.5000000E+00  0.5000000E+00  0.0000000E+00  0.3858025E-03
    1       -9.563658
    2       -9.444409
    3       -8.484470
    4       -8.394838
    5       -1.654170
    6       -1.594066
    7        1.959001
    8        2.673084
    9        6.254888
   10        6.943351
   11       11.924966
   12       12.342843
 