    4    4  200    1
  0.8419860E+01  0.2467155E-09  0.2467155E-09  0.6389455E-09  0.5000000E-15
  1.000000000000000E-004
  CAR 
 graphite                                
     16    455     12
 
  0.0000000E+00  0.0000000E+00  0.0000000E+00  0.3858025E-03
    1      -14.570328
    2      -14.136453
    3       -3.605907
    4       -1.102931
    5        2.113533
    6        2.118195
    7        2.144135
    8        2.148774
    9        9.879917
   10       13.426672
   11       13.430151
   12       13.508541
 
  0.5555556E-01 -0.1040834E-16  0.0000000E+00  0.1543210E-02
    1      -14.496468
    2      -14.064337
    3       -3.516022
    4       -1.020358
    5        1.813021
    6        1.855205
    7        1.954394
    8        1.993204
    9        9.966218
   10       13.457329
   11       13.554247
   12       13.748442
 
  0.1111111E+00 -0.2081668E-16  0.0000000E+00  0.1543210E-02
    1      -14.275207
    2      -13.848555
    3       -3.247842
    4       -0.773907
    5        0.981166
    6        1.049449
    7        1.532195
    8        1.585410
    9       10.226014
   10       13.466147
   11       13.625146
   12       14.637014
 
  0.1666667E+00 -0.4163336E-16  0.0000000E+00  0.1543210E-02
    1      -13.907832
    2      -13.490117
    3       -2.803567
    4       -0.367936
    5       -0.210244
    6       -0.109936
    7        0.967597
    8        1.032613
    9       10.659514
   10       13.351716
   11       13.610122
   12       14.190914
 
  0.2222222E+00 -0.1387779E-16  0.0000000E+00  0.1543210E-02
    1      -13.395996
    2      -12.990831
    3       -2.188294
    4       -1.602511
    5       -1.467938
    6        0.189059
    7        0.369567
    8        0.443421
    9       11.262706
   10       12.735424
   11       13.129343
   12       13.489467
 
  0.2777778E+00  0.0000000E+00  0.0000000E+00  0.1543210E-02
    1      -12.743032
    2      -12.353785
    3       -3.080277
    4       -2.911554
    5       -1.410768
    6       -0.186091
    7       -0.106510
    8        0.880304
    9       11.123645
   10       12.016792
   11       12.087576
   12       12.873456
 
  0.3333333E+00 -0.2775558E-16  0.0000000E+00  0.1543210E-02
    1      -11.953989
    2      -11.584085
    3       -4.565616
    4       -4.363670
    5       -0.652460
    6       -0.568852
    7       -0.487708
    8        1.670713
    9        9.490927
   10       10.660172
   11       12.553066
   12       12.869966
 
  0.3888889E+00 -0.8326673E-16  0.0000000E+00  0.1543210E-02
    1      -11.038544
    2      -10.692287
    3       -6.002957
    4       -5.771551
    5       -1.001338
    6       -0.915140
    7        0.544938
    8        2.472101
    9        7.998222
   10        9.274209
   11       12.391695
   12       12.899915
 
  0.4444444E+00 -0.2775558E-16  0.0000000E+00  0.1543210E-02
    1      -10.023566
    2       -9.713232
    3       -7.328513
    4       -7.081360
    5       -1.216424
    6       -1.128431
    7        1.587778
    8        3.036646
    9        6.940486
   10        8.065791
   11       12.270098
   12       12.818758
 
  0.5000000E+00 -0.5551115E-16  0.0000000E+00  0.7716049E-03
    1       -9.212839
    2       -9.048349
    3       -8.111739
    4       -7.989573
    5       -1.288655
    6       -1.200411
    7        2.206829
    8        3.083805
    9        6.666760
   10        7.448640
   11       12.228004
   12       12.787846
 
  0.5555556E-01  0.5555556E-01  0.0000000E+00  0.7716049E-03
    1      -14.348902
    2      -13.920444
    3       -3.337148
    4       -0.855821
    5        1.281700
    6        1.322886
    7        1.644262
    8        1.678013
    9       10.139518
   10       13.558290
   11       13.677119
   12       14.262715
 
  0.1111111E+00  0.5555556E-01  0.0000000E+00  0.1543210E-02
    1      -14.054575
    2      -13.633301
    3       -2.980811
    4       -0.529481
    5        0.323153
    6        0.392386
    7        1.095232
    8        1.145901
    9       10.487432
   10       13.637648
   11       13.826825
   12       14.663318
 
  0.1666667E+00  0.5555556E-01  0.0000000E+00  0.1543210E-02
    1      -13.614930
    2      -13.204412
    3       -2.450782
    4       -0.929420
    5       -0.821053
    6       -0.047415
    7        0.466489
    8        0.535756
    9       11.008688
   10       13.380112
   11       13.532588
   12       13.833391
 
  0.2222222E+00  0.5555556E-01  0.0000000E+00  0.1543210E-02
    1      -13.032511
    2      -12.636223
    3       -2.340048
    4       -2.193625
    5       -1.753676
    6       -0.139933
    7       -0.058683
    8        0.578510
    9       11.696534
   10       11.870076
   11       12.674692
   12       13.310276
 
  0.2777778E+00  0.5555556E-01  0.0000000E+00  0.1543210E-02
    1      -12.311352
    2      -11.932712
    3       -3.807382
    4       -3.625522
    5       -0.901417
    6       -0.667855
    7       -0.579071
    8        1.324698
    9       10.261336
   10       11.287067
   11       12.517496
   12       13.074985
 
  0.3333333E+00  0.5555556E-01  0.0000000E+00  0.1543210E-02
    1      -11.458406
    2      -11.101279
    3       -5.261555
    4       -5.046782
    5       -1.084680
    6       -0.991277
    7        0.082262
    8        2.138009
    9        8.694246
   10        9.892431
   11       12.795339
   12       13.234052
 
  0.3888889E+00  0.5555556E-01  0.0000000E+00  0.1543210E-02
    1      -10.488535
    2      -10.158550
    3       -6.645886
    4       -6.405097
    5       -1.371397
    6       -1.275063
    7        1.140660
    8        2.871622
    9        7.376710
   10        8.587149
   11       12.645730
   12       13.185029
 
  0.4444444E+00  0.5555556E-01  0.0000000E+00  0.1543210E-02
    1       -9.471691
    2       -9.207572
    3       -7.832631
    4       -7.611143
    5       -1.517247
    6       -1.419485
    7        2.080598
    8        3.168649
    9        6.711705
   10        7.583829
   11       12.562595
   12       13.127565
 
  0.5000000E+00  0.5555556E-01  0.0000000E+00  0.1543210E-02
    1       -9.471870
    2       -9.207725
    3       -7.832463
    4       -7.610947
    5       -1.517282
    6       -1.419521
    7        2.080535
    8        3.168668
    9        6.711700
   10        7.583824
   11       12.562677
   12       13.127656
 
 -0.4444444E+00  0.5555556E-01  0.0000000E+00  0.1543210E-02
    1      -10.488730
    2      -10.158743
    3       -6.645649
    4       -6.404861
    5       -1.371495
    6       -1.275163
    7        1.140563
    8        2.871605
    9        7.376703
   10        8.587104
   11       12.645981
   12       13.185309
 
 -0.3888889E+00  0.5555556E-01  0.0000000E+00  0.1543210E-02
    1      -11.458581
    2      -11.101454
    3       -5.261329
    4       -5.046564
    5       -1.084813
    6       -0.991417
    7        0.082162
    8        2.137967
    9        8.694201
   10        9.892323
   11       12.795774
   12       13.234462
 
 -0.3333333E+00  0.5555556E-01  0.0000000E+00  0.1543210E-02
    1      -12.311503
    2      -11.932861
    3       -3.807217
    4       -3.625378
    5       -0.901510
    6       -0.667959
    7       -0.579194
    8        1.324647
    9       10.261213
   10       11.286882
   11       12.517466
   12       13.075555
 
 -0.2777778E+00  0.5555556E-01  0.0000000E+00  0.1543210E-02
    1      -13.032635
    2      -12.636346
    3       -2.340047
    4       -2.193672
    5       -1.753758
    6       -0.139872
    7       -0.058671
    8        0.578460
    9       11.696429
   10       11.869847
   11       12.674434
   12       13.311176
 
 -0.2222222E+00  0.5555556E-01  0.0000000E+00  0.1543210E-02
    1      -13.615026
    2      -13.204508
    3       -2.450849
    4       -0.929806
    5       -0.821553
    6       -0.047458
    7        0.467003
    8        0.536152
    9       11.008596
   10       13.379765
   11       13.533917
   12       13.834740
 
 -0.1666667E+00  0.5555556E-01  0.0000000E+00  0.1543210E-02
    1      -14.054644
    2      -13.633369
    3       -2.980859
    4       -0.529515
    5        0.321884
    6        0.390900
    7        1.096762
    8        1.147200
    9       10.487362
   10       13.639742
   11       13.829122
   12       14.663010
 
 -0.1111111E+00  0.5555556E-01  0.0000000E+00  0.1543210E-02
    1      -14.348943
    2      -13.920485
    3       -3.337177
    4       -0.855842
    5        1.278687
    6        1.319888
    7        1.647334
    8        1.681073
    9       10.139474
   10       13.561385
   11       13.680271
   12       14.270277
 
 -0.5555556E-01  0.5555556E-01  0.0000000E+00  0.7716049E-03
    1      -14.496482
    2      -14.064351
    3       -3.516032
    4       -1.020365
    5        1.809629
    6        1.851837
    7        1.957808
    8        1.996615
    9        9.966203
   10       13.460063
   11       13.556930
   12       13.741891
 
  0.1111111E+00  0.1111111E+00  0.0000000E+00  0.7716049E-03
    1      -13.688014
    2      -13.275768
    3       -2.538665
    4       -0.574788
    5       -0.512260
    6       -0.126655
    7        0.394500
    8        0.439258
    9       10.925107
   10       13.633795
   11       14.050966
   12       14.251051
 
  0.1666667E+00  0.1111111E+00  0.0000000E+00  0.1543210E-02
    1      -13.177738
    2      -12.777943
    3       -1.926111
    4       -1.729632
    5       -1.631229
    6       -0.357841
    7       -0.289861
    8        0.426042
    9       11.535663
   10       12.346753
   11       12.967842
   12       14.194149
 
  0.2222222E+00  0.1111111E+00  0.0000000E+00  0.1543210E-02
    1      -12.527130
    2      -12.143192
    3       -3.066144
    4       -2.919558
    5       -1.152092
    6       -1.011412
    7       -0.918392
    8        1.112610
    9       10.883905
   10       11.679748
   11       12.311044
   12       14.045056
 
  0.2777778E+00  0.1111111E+00  0.0000000E+00  0.1543210E-02
    1      -11.741480
    2      -11.377150
    3       -4.471054
    4       -4.283199
    5       -1.528202
    6       -1.420572
    7       -0.232829
    8        1.900433
    9        9.358844
   10       10.351752
   11       13.224066
   12       13.838275
 
  0.3333333E+00  0.1111111E+00  0.0000000E+00  0.1543210E-02
    1      -10.831082
    2      -10.490366
    3       -5.861042
    4       -5.639646
    5       -1.901664
    6       -1.786329
    7        0.797295
    8        2.707188
    9        7.929050
   10        9.047913
   11       13.599577
   12       14.085494
 
  0.3888889E+00  0.1111111E+00  0.0000000E+00  0.1543210E-02
    1       -9.823954
    2       -9.519018
    3       -7.158050
    4       -6.918630
    5       -2.127746
    6       -2.008440
    7        1.843206
    8        3.290484
    9        6.897521
   10        7.880374
   11       13.484448
   12       14.074218
 
  0.4444444E+00  0.1111111E+00  0.0000000E+00  0.1543210E-02
    1       -9.023442
    2       -8.861638
    3       -7.927456
    4       -7.810730
    5       -2.203596
    6       -2.083037
    7        2.472708
    8        3.341542
    9        6.662332
   10        7.239599
   11       13.441985
   12       14.047035
 
  0.5000000E+00  0.1111111E+00  0.0000000E+00  0.1543210E-02
    1       -9.824349
    2       -9.519399
    3       -7.157614
    4       -6.918186
    5       -2.127847
    6       -2.008547
    7        1.843037
    8        3.290498
    9        6.897489
   10        7.880321
   11       13.484753
   12       14.074577
 
 -0.4444444E+00  0.1111111E+00  0.0000000E+00  0.1543210E-02
    1      -10.831454
    2      -10.490735
    3       -5.860596
    4       -5.639214
    5       -1.901825
    6       -1.786505
    7        0.797101
    8        2.707132
    9        7.928960
   10        9.047748
   11       13.600225
   12       14.086085
 
 -0.3888889E+00  0.1111111E+00  0.0000000E+00  0.1543210E-02
    1      -11.741805
    2      -11.377474
    3       -4.470715
    4       -4.282900
    5       -1.528308
    6       -1.420718
    7       -0.233019
    8        1.900343
    9        9.358612
   10       10.351452
   11       13.223880
   12       13.839195
 
 -0.3333333E+00  0.1111111E+00  0.0000000E+00  0.1543210E-02
    1      -12.527404
    2      -12.143464
    3       -3.066120
    4       -2.919628
    5       -1.152264
    6       -1.011205
    7       -0.918282
    8        1.112512
    9       10.883460
   10       11.679319
   11       12.310779
   12       14.046675
 
 -0.2777778E+00  0.1111111E+00  0.0000000E+00  0.1543210E-02
    1      -13.177958
    2      -12.778162
    3       -1.926257
    4       -1.730372
    5       -1.632129
    6       -0.356822
    7       -0.289012
    8        0.425951
    9       11.535438
   10       12.346062
   11       12.967330
   12       14.196952
 
 -0.2222222E+00  0.1111111E+00  0.0000000E+00  0.1543210E-02
    1      -13.688179
    2      -13.275932
    3       -2.538778
    4       -0.576928
    5       -0.514381
    6       -0.126730
    7        0.396767
    8        0.441523
    9       10.924935
   10       13.632896
   11       14.055120
   12       14.180471
 
 -0.1666667E+00  0.1111111E+00  0.0000000E+00  0.1543210E-02
    1      -14.054685
    2      -13.633410
    3       -2.980888
    4       -0.529535
    5        0.319949
    6        0.389228
    7        1.098571
    8        1.149263
    9       10.487313
   10       13.641884
   11       13.831029
   12       14.666869
 
 -0.1111111E+00  0.1111111E+00  0.0000000E+00  0.7716049E-03
    1      -14.275262
    2      -13.848610
    3       -3.247881
    4       -0.773935
    5        0.977965
    6        1.046269
    7        1.535524
    8        1.588739
    9       10.225951
   10       13.469245
   11       13.628175
   12       14.661591
 
  0.1666667E+00  0.1666667E+00  0.0000000E+00  0.7716049E-03
    1      -12.599213
    2      -12.213587
    3       -2.643765
    4       -2.559445
    5       -1.273428
    6       -1.236106
    7       -1.211963
    8        1.041207
    9       11.145713
   10       11.797419
   11       12.233421
   12       14.991160
 
  0.2222222E+00  0.1666667E+00  0.0000000E+00  0.1543210E-02
    1      -11.883932
    2      -11.515909
    3       -3.776831
    4       -3.648086
    5       -2.052671
    6       -1.959788
    7       -0.392228
    8        1.777457
    9        9.813264
   10       10.567406
   11       13.091155
   12       15.151808
 
  0.2777778E+00  0.1666667E+00  0.0000000E+00  0.1543210E-02
    1      -11.039720
    2      -10.693135
    3       -5.056509
    4       -4.873541
    5       -2.601701
    6       -2.477567
    7        0.583426
    8        2.589496
    9        8.436215
   10        9.338059
   11       14.088464
   12       14.990703
 
  0.3333333E+00  0.1666667E+00  0.0000000E+00  0.1543210E-02
    1      -10.082708
    2       -9.763789
    3       -6.348511
    4       -6.128406
    5       -2.946359
    6       -2.807168
    7        1.639917
    8        3.349623
    9        7.209017
   10        8.159916
   11       14.787004
   12       15.206740
 
  0.3888889E+00  0.1666667E+00  0.0000000E+00  0.1543210E-02
    1       -9.084734
    2       -8.830353
    3       -7.485034
    4       -7.278492
    5       -3.113936
    6       -2.968935
    7        2.598337
    8        3.683650
    9        6.601636
   10        7.166371
   11       14.714300
   12       15.418043
 
  0.4444444E+00  0.1666667E+00  0.0000000E+00  0.1543210E-02
    1       -9.085259
    2       -8.830799
    3       -7.484564
    4       -7.277941
    5       -3.113977
    6       -2.968983
    7        2.598167
    8        3.683722
    9        6.601548
   10        7.166348
   11       14.714501
   12       15.418323
 
  0.5000000E+00  0.1666667E+00  0.0000000E+00  0.1543210E-02
    1      -10.083288
    2       -9.764359
    3       -6.347893
    4       -6.127806
    5       -2.946433
    6       -2.807272
    7        1.639655
    8        3.349605
    9        7.208833
   10        8.159739
   11       14.787677
   12       15.207732
 
 -0.4444444E+00  0.1666667E+00  0.0000000E+00  0.1543210E-02
    1      -11.040242
    2      -10.693654
    3       -5.056067
    4       -4.873167
    5       -2.601626
    6       -2.477570
    7        0.583152
    8        2.589400
    9        8.435823
   10        9.337711
   11       14.087945
   12       14.991783
 
 -0.3888889E+00  0.1666667E+00  0.0000000E+00  0.1543210E-02
    1      -11.884381
    2      -11.516356
    3       -3.776960
    4       -3.648346
    5       -2.052029
    6       -1.959294
    7       -0.392489
    8        1.777329
    9        9.812550
   10       10.566909
   11       13.090660
   12       15.154206
 
 -0.3333333E+00  0.1666667E+00  0.0000000E+00  0.1543210E-02
    1      -12.599583
    2      -12.213955
    3       -2.645080
    4       -2.560728
    5       -1.271799
    6       -1.236336
    7       -1.210325
    8        1.041075
    9       11.144641
   10       11.796810
   11       12.233016
   12       14.996588
 
 -0.2777778E+00  0.1666667E+00  0.0000000E+00  0.1543210E-02
    1      -13.178027
    2      -12.778230
    3       -1.926300
    4       -1.731950
    5       -1.633467
    6       -0.355257
    7       -0.287216
    8        0.425924
    9       11.535353
   10       12.345440
   11       12.967144
   12       14.199651
 
 -0.2222222E+00  0.1666667E+00  0.0000000E+00  0.1543210E-02
    1      -13.615136
    2      -13.204617
    3       -2.450922
    4       -0.932218
    5       -0.823843
    6       -0.047506
    7        0.469647
    8        0.538902
    9       11.008465
   10       13.378778
   11       13.537070
   12       13.837642
 
 -0.1666667E+00  0.1666667E+00  0.0000000E+00  0.7716049E-03
    1      -13.907956
    2      -13.490241
    3       -2.803653
    4       -0.367993
    5       -0.213168
    6       -0.112839
    7        0.970826
    8        1.035843
    9       10.659374
   10       13.355278
   11       13.613576
   12       14.189439
 
  0.2222222E+00  0.2222222E+00  0.0000000E+00  0.7716049E-03
    1      -11.109506
    2      -10.761243
    3       -4.567319
    4       -4.461774
    5       -3.011122
    6       -2.932546
    7        0.510910
    8        2.547240
    9        8.661162
   10        9.420069
   11       14.018209
   12       16.262789
 
  0.2777778E+00  0.2222222E+00  0.0000000E+00  0.1543210E-02
    1      -10.216060
    2       -9.891681
    3       -5.591465
    4       -5.434648
    5       -3.689785
    6       -3.572202
    7        1.528196
    8        3.363193
    9        7.474105
   10        8.303730
   11       15.064341
   12       16.296907
 
  0.3333333E+00  0.2222222E+00  0.0000000E+00  0.1543210E-02
    1       -9.233764
    2       -8.945139
    3       -6.723116
    4       -6.520729
    5       -4.048504
    6       -3.898014
    7        2.581885
    8        4.024642
    9        6.503610
   10        7.265522
   11       16.064773
   12       16.265984
 
  0.3888889E+00  0.2222222E+00  0.0000000E+00  0.1543210E-02
    1       -8.456582
    2       -8.302716
    3       -7.434811
    4       -7.349569
    5       -4.158081
    6       -3.998592
    7        3.257567
    8        4.095568
    9        6.421847
   10        6.500397
   11       16.079301
   12       17.017599
 
  0.4444444E+00  0.2222222E+00  0.0000000E+00  0.1543210E-02
    1       -9.234532
    2       -8.945877
    3       -6.722428
    4       -6.520057
    5       -4.048405
    6       -3.897968
    7        2.581616
    8        4.024741
    9        6.503260
   10        7.265388
   11       16.065038
   12       16.264680
 
  0.5000000E+00  0.2222222E+00  0.0000000E+00  0.1543210E-02
    1      -10.216792
    2       -9.892405
    3       -5.591104
    4       -5.434386
    5       -3.689295
    6       -3.571842
    7        1.527876
    8        3.363156
    9        7.473477
   10        8.303399
   11       15.063431
   12       16.297904
 
 -0.4444444E+00  0.2222222E+00  0.0000000E+00  0.1543210E-02
    1      -11.110150
    2      -10.761885
    3       -4.567941
    4       -4.462350
    5       -3.009851
    6       -2.931265
    7        0.510582
    8        2.547124
    9        8.660136
   10        9.419573
   11       14.017430
   12       16.268758
 
 -0.3888889E+00  0.2222222E+00  0.0000000E+00  0.1543210E-02
    1      -11.884476
    2      -11.516451
    3       -3.778367
    4       -3.649524
    5       -2.050590
    6       -1.957631
    7       -0.392534
    8        1.777309
    9        9.811860
   10       10.566728
   11       13.090534
   12       15.157826
 
 -0.3333333E+00  0.2222222E+00  0.0000000E+00  0.1543210E-02
    1      -12.527568
    2      -12.143628
    3       -3.068180
    4       -2.921566
    5       -1.152356
    6       -1.008778
    7       -0.915747
    8        1.112462
    9       10.882265
   10       11.678885
   11       12.310579
   12       14.050357
 
 -0.2777778E+00  0.2222222E+00  0.0000000E+00  0.1543210E-02
    1      -13.032840
    2      -12.636551
    3       -2.342436
    4       -2.196005
    5       -1.753885
    6       -0.136929
    7       -0.055687
    8        0.578384
    9       11.696198
   10       11.868379
   11       12.673762
   12       13.314844
 
 -0.2222222E+00  0.2222222E+00  0.0000000E+00  0.7716049E-03
    1      -13.396215
    2      -12.991049
    3       -2.188438
    4       -1.605123
    5       -1.470532
    6        0.188968
    7        0.372726
    8        0.446580
    9       11.262467
   10       12.733904
   11       13.133225
   12       13.495260
 
  0.2777778E+00  0.2777778E+00  0.0000000E+00  0.7716049E-03
    1       -9.290625
    2       -8.995814
    3       -6.207912
    4       -6.082929
    5       -4.548418
    6       -4.462045
    7        2.564352
    8        4.160354
    9        6.467777
   10        7.318914
   11       16.098594
   12       17.132010
 
  0.3333333E+00  0.2777778E+00  0.0000000E+00  0.1543210E-02
    1       -8.332417
    2       -8.095386
    3       -7.027364
    4       -6.879530
    5       -4.995962
    6       -4.877467
    7        3.568446
    8        4.667622
    9        5.732875
   10        6.472533
   11       16.663452
   12       16.744865
 
  0.3888889E+00  0.2777778E+00  0.0000000E+00  0.1543210E-02
    1       -8.333243
    2       -8.096099
    3       -7.026868
    4       -6.878965
    5       -4.995666
    6       -4.877237
    7        3.568292
    8        4.667892
    9        5.732412
   10        6.472419
   11       16.662355
   12       16.745591
 
  0.4444444E+00  0.2777778E+00  0.0000000E+00  0.1543210E-02
    1       -9.291553
    2       -8.996724
    3       -6.207976
    4       -6.082936
    5       -4.547397
    6       -4.461003
    7        2.564079
    8        4.160497
    9        6.466884
   10        7.318575
   11       16.097259
   12       17.122767
 
  0.5000000E+00  0.2777778E+00  0.0000000E+00  0.1543210E-02
    1      -10.216912
    2       -9.892527
    3       -5.592344
    4       -5.435418
    5       -3.688012
    6       -3.570344
    7        1.527864
    8        3.363171
    9        7.472806
   10        8.303190
   11       15.063253
   12       16.302397
 
 -0.4444444E+00  0.2777778E+00  0.0000000E+00  0.1543210E-02
    1      -11.040459
    2      -10.693871
    3       -5.057856
    4       -4.874846
    5       -2.599426
    6       -2.475269
    7        0.583082
    8        2.589388
    9        8.434585
   10        9.337260
   11       14.087668
   12       14.996103
 
 -0.3888889E+00  0.2777778E+00  0.0000000E+00  0.1543210E-02
    1      -11.742091
    2      -11.377759
    3       -4.472759
    4       -4.284887
    5       -1.525567
    6       -1.417935
    7       -0.233150
    8        1.900289
    9        9.357006
   10       10.350708
   11       13.223649
   12       13.843234
 
 -0.3333333E+00  0.2777778E+00  0.0000000E+00  0.1543210E-02
    1      -12.311830
    2      -11.933188
    3       -3.809408
    4       -3.627537
    5       -0.901688
    6       -0.664916
    7       -0.576137
    8        1.324556
    9       10.259413
   10       11.285910
   11       12.517324
   12       13.079434
 
 -0.2777778E+00  0.2777778E+00  0.0000000E+00  0.7716049E-03
    1      -12.743374
    2      -12.354126
    3       -3.082572
    4       -2.913833
    5       -1.410973
    6       -0.182972
    7       -0.103393
    8        0.880187
    9       11.121808
   10       12.016531
   11       12.086530
   12       12.877522
 
  0.3333333E+00  0.3333333E+00  0.0000000E+00  0.7716049E-03
    1       -7.580203
    2       -7.435695
    3       -7.435500
    4       -7.295084
    5       -5.375654
    6       -5.375503
    7        4.275967
    8        5.067983
    9        5.068775
   10        6.061411
   11       16.479796
   12       16.480640
 
  0.3888889E+00  0.3333333E+00  0.0000000E+00  0.1543210E-02
    1       -8.333403
    2       -8.096306
    3       -7.027767
    4       -6.879771
    5       -4.994654
    6       -4.876013
    7        3.568504
    8        4.667765
    9        5.732043
   10        6.471989
   11       16.662091
   12       16.746317
 
  0.4444444E+00  0.3333333E+00  0.0000000E+00  0.1543210E-02
    1       -9.234797
    2       -8.946153
    3       -6.723922
    4       -6.521465
    5       -4.046511
    6       -3.895984
    7        2.581720
    8        4.024761
    9        6.502120
   10        7.264831
   11       16.066995
   12       16.267128
 
  0.5000000E+00  0.3333333E+00  0.0000000E+00  0.1543210E-02
    1      -10.083649
    2       -9.764724
    3       -6.349622
    4       -6.129487
    5       -2.943994
    6       -2.804795
    7        1.639637
    8        3.349629
    9        7.207211
   10        8.158938
   11       14.791667
   12       15.208724
 
 -0.4444444E+00  0.3333333E+00  0.0000000E+00  0.1543210E-02
    1      -10.831885
    2      -10.491167
    3       -5.862452
    4       -5.641039
    5       -1.898997
    6       -1.783662
    7        0.796979
    8        2.707113
    9        7.927071
   10        9.046672
   11       13.604229
   12       14.089146
 
 -0.3888889E+00  0.3333333E+00  0.0000000E+00  0.1543210E-02
    1      -11.459056
    2      -11.101928
    3       -5.263263
    4       -5.048477
    5       -1.081749
    6       -0.988349
    7        0.081962
    8        2.137895
    9        8.692183
   10        9.891064
   11       12.799620
   12       13.237668
 
 -0.3333333E+00  0.3333333E+00  0.0000000E+00  0.7716049E-03
    1      -11.954479
    2      -11.584574
    3       -4.567603
    4       -4.365640
    5       -0.649361
    6       -0.565754
    7       -0.487958
    8        1.670597
    9        9.488894
   10       10.658876
   11       12.556503
   12       12.872232
 
  0.3888889E+00  0.3888889E+00  0.0000000E+00  0.7716049E-03
    1       -8.457256
    2       -8.303466
    3       -7.435930
    4       -7.350648
    5       -4.156045
    6       -3.996516
    7        3.257958
    8        4.095231
    9        6.420964
   10        6.499200
   11       16.083902
   12       17.021235
 
  0.4444444E+00  0.3888889E+00  0.0000000E+00  0.1543210E-02
    1       -9.085790
    2       -8.831378
    3       -7.486063
    4       -7.279443
    5       -3.111502
    6       -2.966493
    7        2.598422
    8        3.683526
    9        6.599892
   10        7.165105
   11       14.719122
   12       15.422943
 
  0.5000000E+00  0.3888889E+00  0.0000000E+00  0.1543210E-02
    1       -9.824945
    2       -9.520004
    3       -7.159234
    4       -6.919786
    5       -2.125024
    6       -2.005718
    7        1.843066
    8        3.290455
    9        6.895476
   10        7.878869
   11       13.489143
   12       14.078945
 
 -0.4444444E+00  0.3888889E+00  0.0000000E+00  0.1543210E-02
    1      -10.489373
    2      -10.159387
    3       -6.647320
    4       -6.406513
    5       -1.368443
    6       -1.272112
    7        1.140429
    8        2.871579
    9        7.374543
   10        8.585547
   11       12.650179
   12       13.189472
 
 -0.3888889E+00  0.3888889E+00  0.0000000E+00  0.7716049E-03
    1      -11.039204
    2      -10.692947
    3       -6.004654
    4       -5.773232
    5       -0.998244
    6       -0.912050
    7        0.544698
    8        2.472033
    9        7.996056
   10        9.272674
   11       12.395880
   12       12.904038
 
  0.4444444E+00  0.4444444E+00  0.0000000E+00  0.7716049E-03
    1       -9.024296
    2       -8.862570
    3       -7.928731
    4       -7.811998
    5       -2.200817
    6       -2.080256
    7        2.473038
    8        3.341155
    9        6.660576
   10        7.237734
   11       13.446551
   12       14.051628
 
  0.5000000E+00  0.4444444E+00  0.0000000E+00  0.1543210E-02
    1       -9.472680
    2       -9.208561
    3       -7.833891
    4       -7.612363
    5       -1.514259
    6       -1.416500
    7        2.080703
    8        3.168428
    9        6.709688
   10        7.581851
   11       12.567011
   12       13.131990
 
 -0.4444444E+00  0.4444444E+00  0.0000000E+00  0.7716049E-03
    1      -10.024407
    2       -9.714076
    3       -7.329957
    4       -7.082785
    5       -1.213332
    6       -1.125343
    7        1.587705
    8        3.036574
    9        6.938295
   10        8.063944
   11       12.274376
   12       12.823032
 
  0.5000000E+00  0.5000000E+00  0.0000000E+00  0.3858025E-03
    1       -9.213752
    2       -9.049342
    3       -8.113042
    4       -7.990869
    5       -1.285563
    6       -1.197324
    7        2.207133
    8        3.083392
    9        6.664843
   10        7.446430
   11       12.232306
   12       12.792149
 