# Thermal properties / unit cell (natom)

unit:
  temperature:   K
  free_energy:   kJ/mol
  entropy:       J/K/mol
  heat_capacity: J/K/mol

natom:     4
num_modes: 3888
num_integrated_modes: 3878

zero_point_energy:      66.2587349
high_T_entropy:        229.7022325

thermal_properties:
- temperature:         0.0000000
  free_energy:        66.2587349
  entropy:             0.0000000
  heat_capacity:       0.0000000
  energy:             66.2587349

- temperature:        10.0000000
  free_energy:        66.2581021
  entropy:             0.1137443
  heat_capacity:       0.0845781
  energy:             66.2592396

- temperature:        20.0000000
  free_energy:        66.2565456
  entropy:             0.1968279
  heat_capacity:       0.1622318
  energy:             66.2604822

- temperature:        30.0000000
  free_energy:        66.2541617
  entropy:             0.2820040
  heat_capacity:       0.2800099
  energy:             66.2626218

- temperature:        40.0000000
  free_energy:        66.2508277
  entropy:             0.3901886
  heat_capacity:       0.5019060
  energy:             66.2664352

- temperature:        50.0000000
  free_energy:        66.2462301
  entropy:             0.5365028
  heat_capacity:       0.8423101
  energy:             66.2730552

- temperature:        60.0000000
  free_energy:        66.2399425
  entropy:             0.7292676
  heat_capacity:       1.3079935
  energy:             66.2836986

- temperature:        70.0000000
  free_energy:        66.2314708
  entropy:             0.9741799
  heat_capacity:       1.9080542
  energy:             66.2996634

- temperature:        80.0000000
  free_energy:        66.2202700
  entropy:             1.2757413
  heat_capacity:       2.6487690
  energy:             66.3223293

- temperature:        90.0000000
  free_energy:        66.2057560
  entropy:             1.6372460
  heat_capacity:       3.5300785
  energy:             66.3531081

- temperature:       100.0000000
  free_energy:        66.1873187
  entropy:             2.0606005
  heat_capacity:       4.5456047
  energy:             66.3933788

- temperature:       110.0000000
  free_energy:        66.1643360
  entropy:             2.5463131
  heat_capacity:       5.6840830
  energy:             66.4444304

- temperature:       120.0000000
  free_energy:        66.1361870
  entropy:             3.0936252
  heat_capacity:       6.9309811
  energy:             66.5074220

- temperature:       130.0000000
  free_energy:        66.1022641
  entropy:             3.7007151
  heat_capacity:       8.2699741
  energy:             66.5833571

- temperature:       140.0000000
  free_energy:        66.0619822
  entropy:             4.3649290
  heat_capacity:       9.6842196
  energy:             66.6730723

- temperature:       150.0000000
  free_energy:        66.0147859
  entropy:             5.0830121
  heat_capacity:      11.1573941
  energy:             66.7772378

- temperature:       160.0000000
  free_energy:        65.9601545
  entropy:             5.8513233
  heat_capacity:      12.6744563
  energy:             66.8963663

- temperature:       170.0000000
  free_energy:        65.8976048
  entropy:             6.6660226
  heat_capacity:      14.2221256
  energy:             67.0308287

- temperature:       180.0000000
  free_energy:        65.8266924
  entropy:             7.5232250
  heat_capacity:      15.7891022
  energy:             67.1808729

- temperature:       190.0000000
  free_energy:        65.7470114
  entropy:             8.4191182
  heat_capacity:      17.3660787
  energy:             67.3466439

- temperature:       200.0000000
  free_energy:        65.6581933
  entropy:             9.3500476
  heat_capacity:      18.9456043
  energy:             67.5282028

- temperature:       210.0000000
  free_energy:        65.5599052
  entropy:            10.3125702
  heat_capacity:      20.5218599
  energy:             67.7255449

- temperature:       220.0000000
  free_energy:        65.4518473
  entropy:            11.3034858
  heat_capacity:      22.0903940
  energy:             67.9386141

- temperature:       230.0000000
  free_energy:        65.3337506
  entropy:            12.3198484
  heat_capacity:      23.6478551
  energy:             68.1673158

- temperature:       240.0000000
  free_energy:        65.2053745
  entropy:            13.3589643
  heat_capacity:      25.1917433
  energy:             68.4115259

- temperature:       250.0000000
  free_energy:        65.0665037
  entropy:            14.4183817
  heat_capacity:      26.7201952
  energy:             68.6710991

- temperature:       260.0000000
  free_energy:        64.9169466
  entropy:            15.4958732
  heat_capacity:      28.2318069
  energy:             68.9458737

- temperature:       270.0000000
  free_energy:        64.7565328
  entropy:            16.5894175
  heat_capacity:      29.7254945
  energy:             69.2356755

- temperature:       280.0000000
  free_energy:        64.5851109
  entropy:            17.6971785
  heat_capacity:      31.2003894
  energy:             69.5403209

- temperature:       290.0000000
  free_energy:        64.4025474
  entropy:            18.8174856
  heat_capacity:      32.6557627
  energy:             69.8596182

- temperature:       300.0000000
  free_energy:        64.2087245
  entropy:            19.9488149
  heat_capacity:      34.0909741
  energy:             70.1933689

- temperature:       310.0000000
  free_energy:        64.0035390
  entropy:            21.0897726
  heat_capacity:      35.5054395
  energy:             70.5413685

- temperature:       320.0000000
  free_energy:        63.7869012
  entropy:            22.2390798
  heat_capacity:      36.8986118
  energy:             70.9034067

- temperature:       330.0000000
  free_energy:        63.5587335
  entropy:            23.3955592
  heat_capacity:      38.2699729
  energy:             71.2792681

- temperature:       340.0000000
  free_energy:        63.3189697
  entropy:            24.5581239
  heat_capacity:      39.6190310
  energy:             71.6687319

- temperature:       350.0000000
  free_energy:        63.0675541
  entropy:            25.7257676
  heat_capacity:      40.9453233
  energy:             72.0715728

- temperature:       360.0000000
  free_energy:        62.8044406
  entropy:            26.8975567
  heat_capacity:      42.2484199
  energy:             72.4875610

- temperature:       370.0000000
  free_energy:        62.5295921
  entropy:            28.0726230
  heat_capacity:      43.5279295
  energy:             72.9164626

- temperature:       380.0000000
  free_energy:        62.2429799
  entropy:            29.2501577
  heat_capacity:      44.7835042
  energy:             73.3580398

- temperature:       390.0000000
  free_energy:        61.9445832
  entropy:            30.4294068
  heat_capacity:      46.0148446
  energy:             73.8120519

- temperature:       400.0000000
  free_energy:        61.6343884
  entropy:            31.6096667
  heat_capacity:      47.2217030
  energy:             74.2782551

- temperature:       410.0000000
  free_energy:        61.3123887
  entropy:            32.7902804
  heat_capacity:      48.4038863
  energy:             74.7564037

- temperature:       420.0000000
  free_energy:        60.9785837
  entropy:            33.9706344
  heat_capacity:      49.5612574
  energy:             75.2462501

- temperature:       430.0000000
  free_energy:        60.6329788
  entropy:            35.1501559
  heat_capacity:      50.6937353
  energy:             75.7475458

- temperature:       440.0000000
  free_energy:        60.2755851
  entropy:            36.3283105
  heat_capacity:      51.8012947
  energy:             76.2600417

- temperature:       450.0000000
  free_energy:        59.9064188
  entropy:            37.5045999
  heat_capacity:      52.8839644
  energy:             76.7834887

- temperature:       460.0000000
  free_energy:        59.5255009
  entropy:            38.6785597
  heat_capacity:      53.9418252
  energy:             77.3176383

- temperature:       470.0000000
  free_energy:        59.1328568
  entropy:            39.8497578
  heat_capacity:      54.9750072
  energy:             77.8622430

- temperature:       480.0000000
  free_energy:        58.7285163
  entropy:            41.0177928
  heat_capacity:      55.9836864
  energy:             78.4170568

- temperature:       490.0000000
  free_energy:        58.3125127
  entropy:            42.1822919
  heat_capacity:      56.9680817
  energy:             78.9818358

- temperature:       500.0000000
  free_energy:        57.8848834
  entropy:            43.3429099
  heat_capacity:      57.9284509
  energy:             79.5563383

- temperature:       510.0000000
  free_energy:        57.4456685
  entropy:            44.4993277
  heat_capacity:      58.8650874
  energy:             80.1403257

- temperature:       520.0000000
  free_energy:        56.9949118
  entropy:            45.6512505
  heat_capacity:      59.7783160
  energy:             80.7335620

- temperature:       530.0000000
  free_energy:        56.5326594
  entropy:            46.7984070
  heat_capacity:      60.6684897
  energy:             81.3358151

- temperature:       540.0000000
  free_energy:        56.0589604
  entropy:            47.9405479
  heat_capacity:      61.5359860
  energy:             81.9468562

- temperature:       550.0000000
  free_energy:        55.5738659
  entropy:            49.0774448
  heat_capacity:      62.3812035
  energy:             82.5664606

- temperature:       560.0000000
  free_energy:        55.0774297
  entropy:            50.2088889
  heat_capacity:      63.2045587
  energy:             83.1944074

- temperature:       570.0000000
  free_energy:        54.5697070
  entropy:            51.3346901
  heat_capacity:      64.0064830
  energy:             83.8304803

- temperature:       580.0000000
  free_energy:        54.0507552
  entropy:            52.4546757
  heat_capacity:      64.7874198
  energy:             84.4744671

- temperature:       590.0000000
  free_energy:        53.5206334
  entropy:            53.5686896
  heat_capacity:      65.5478218
  energy:             85.1261603

- temperature:       600.0000000
  free_energy:        52.9794018
  entropy:            54.6765914
  heat_capacity:      66.2881490
  energy:             85.7853567

- temperature:       610.0000000
  free_energy:        52.4271223
  entropy:            55.7782550
  heat_capacity:      67.0088661
  energy:             86.4518579

- temperature:       620.0000000
  free_energy:        51.8638579
  entropy:            56.8735682
  heat_capacity:      67.7104406
  energy:             87.1254702

- temperature:       630.0000000
  free_energy:        51.2896725
  entropy:            57.9624317
  heat_capacity:      68.3933411
  energy:             87.8060044

- temperature:       640.0000000
  free_energy:        50.7046310
  entropy:            59.0447582
  heat_capacity:      69.0580355
  energy:             88.4932763

- temperature:       650.0000000
  free_energy:        50.1087994
  entropy:            60.1204718
  heat_capacity:      69.7049900
  energy:             89.1871060

- temperature:       660.0000000
  free_energy:        49.5022439
  entropy:            61.1895070
  heat_capacity:      70.3346673
  energy:             89.8873185

- temperature:       670.0000000
  free_energy:        48.8850317
  entropy:            62.2518084
  heat_capacity:      70.9475257
  energy:             90.5937433

- temperature:       680.0000000
  free_energy:        48.2572303
  entropy:            63.3073297
  heat_capacity:      71.5440184
  energy:             91.3062145

- temperature:       690.0000000
  free_energy:        47.6189078
  entropy:            64.3560331
  heat_capacity:      72.1245921
  energy:             92.0245706

- temperature:       700.0000000
  free_energy:        46.9701325
  entropy:            65.3978889
  heat_capacity:      72.6896869
  energy:             92.7486547

- temperature:       710.0000000
  free_energy:        46.3109729
  entropy:            66.4328750
  heat_capacity:      73.2397350
  energy:             93.4783142

- temperature:       720.0000000
  free_energy:        45.6414979
  entropy:            67.4609761
  heat_capacity:      73.7751611
  energy:             94.2134007

- temperature:       730.0000000
  free_energy:        44.9617764
  entropy:            68.4821831
  heat_capacity:      74.2963809
  energy:             94.9537701

- temperature:       740.0000000
  free_energy:        44.2718773
  entropy:            69.4964933
  heat_capacity:      74.8038018
  energy:             95.6992823

- temperature:       750.0000000
  free_energy:        43.5718695
  entropy:            70.5039092
  heat_capacity:      75.2978217
  energy:             96.4498014

- temperature:       760.0000000
  free_energy:        42.8618220
  entropy:            71.5044386
  heat_capacity:      75.7788296
  energy:             97.2051954

- temperature:       770.0000000
  free_energy:        42.1418036
  entropy:            72.4980939
  heat_capacity:      76.2472049
  energy:             97.9653359

- temperature:       780.0000000
  free_energy:        41.4118830
  entropy:            73.4848918
  heat_capacity:      76.7033177
  energy:             98.7300986

- temperature:       790.0000000
  free_energy:        40.6721286
  entropy:            74.4648532
  heat_capacity:      77.1475284
  energy:             99.4993626

- temperature:       800.0000000
  free_energy:        39.9226086
  entropy:            75.4380025
  heat_capacity:      77.5801880
  energy:            100.2730107

- temperature:       810.0000000
  free_energy:        39.1633912
  entropy:            76.4043677
  heat_capacity:      78.0016379
  energy:            101.0509290

- temperature:       820.0000000
  free_energy:        38.3945438
  entropy:            77.3639797
  heat_capacity:      78.4122100
  energy:            101.8330072

- temperature:       830.0000000
  free_energy:        37.6161340
  entropy:            78.3168723
  heat_capacity:      78.8122272
  energy:            102.6191380

- temperature:       840.0000000
  free_energy:        36.8282286
  entropy:            79.2630821
  heat_capacity:      79.2020027
  energy:            103.4092176

- temperature:       850.0000000
  free_energy:        36.0308945
  entropy:            80.2026476
  heat_capacity:      79.5818409
  energy:            104.2031449

- temperature:       860.0000000
  free_energy:        35.2241977
  entropy:            81.1356099
  heat_capacity:      79.9520371
  energy:            105.0008222

- temperature:       870.0000000
  free_energy:        34.4082041
  entropy:            82.0620119
  heat_capacity:      80.3128779
  energy:            105.8021545

- temperature:       880.0000000
  free_energy:        33.5829792
  entropy:            82.9818982
  heat_capacity:      80.6646412
  energy:            106.6070495

- temperature:       890.0000000
  free_energy:        32.7485877
  entropy:            83.8953149
  heat_capacity:      81.0075965
  energy:            107.4154180

- temperature:       900.0000000
  free_energy:        31.9050943
  entropy:            84.8023097
  heat_capacity:      81.3420049
  energy:            108.2271730

- temperature:       910.0000000
  free_energy:        31.0525628
  entropy:            85.7029315
  heat_capacity:      81.6681196
  energy:            109.0422304

- temperature:       920.0000000
  free_energy:        30.1910567
  entropy:            86.5972302
  heat_capacity:      81.9861858
  energy:            109.8605086

- temperature:       930.0000000
  free_energy:        29.3206391
  entropy:            87.4852570
  heat_capacity:      82.2964412
  energy:            110.6819281

- temperature:       940.0000000
  free_energy:        28.4413723
  entropy:            88.3670636
  heat_capacity:      82.5991159
  energy:            111.5064121

- temperature:       950.0000000
  free_energy:        27.5533184
  entropy:            89.2427026
  heat_capacity:      82.8944328
  energy:            112.3338859

- temperature:       960.0000000
  free_energy:        26.6565387
  entropy:            90.1122274
  heat_capacity:      83.1826076
  energy:            113.1642770

- temperature:       970.0000000
  free_energy:        25.7510940
  entropy:            90.9756917
  heat_capacity:      83.4638493
  energy:            113.9975149

- temperature:       980.0000000
  free_energy:        24.8370448
  entropy:            91.8331497
  heat_capacity:      83.7383602
  energy:            114.8335315

- temperature:       990.0000000
  free_energy:        23.9144509
  entropy:            92.6846560
  heat_capacity:      84.0063362
  energy:            115.6722604

- temperature:      1000.0000000
  free_energy:        22.9833714
  entropy:            93.5302657
  heat_capacity:      84.2679668
  energy:            116.5136371
