# Thermal properties / unit cell (natom)

unit:
  temperature:   K
  free_energy:   kJ/mol
  entropy:       J/K/mol
  heat_capacity: J/K/mol

natom:     4
num_modes: 3888
num_integrated_modes: 2112

zero_point_energy:      17.6936809
high_T_entropy:        160.3399644

thermal_properties:
- temperature:         0.0000000
  free_energy:        17.6936809
  entropy:             0.0000000
  heat_capacity:       0.0000000
  energy:             17.6936809

- temperature:        10.0000000
  free_energy:        17.6932999
  entropy:             0.1045211
  heat_capacity:       0.1589283
  energy:             17.6943451

- temperature:        20.0000000
  free_energy:        17.6913465
  entropy:             0.2960054
  heat_capacity:       0.4350721
  energy:             17.6972666

- temperature:        30.0000000
  free_energy:        17.6872374
  entropy:             0.5319208
  heat_capacity:       0.7644256
  energy:             17.7031950

- temperature:        40.0000000
  free_energy:        17.6805674
  entropy:             0.8104603
  heat_capacity:       1.2200800
  energy:             17.7129858

- temperature:        50.0000000
  free_energy:        17.6708373
  entropy:             1.1459246
  heat_capacity:       1.8351760
  energy:             17.7281335

- temperature:        60.0000000
  free_energy:        17.6574342
  entropy:             1.5456270
  heat_capacity:       2.5955677
  energy:             17.7501718

- temperature:        70.0000000
  free_energy:        17.6397042
  entropy:             2.0115016
  heat_capacity:       3.4959793
  energy:             17.7805093

- temperature:        80.0000000
  free_energy:        17.6169780
  entropy:             2.5452724
  heat_capacity:       4.5489368
  energy:             17.8205998

- temperature:        90.0000000
  free_energy:        17.5885629
  entropy:             3.1498021
  heat_capacity:       5.7685534
  energy:             17.8720451

- temperature:       100.0000000
  free_energy:        17.5537363
  entropy:             3.8279830
  heat_capacity:       7.1567242
  energy:             17.9365346

- temperature:       110.0000000
  free_energy:        17.5117525
  entropy:             4.5812999
  heat_capacity:       8.6992401
  energy:             18.0156955

- temperature:       120.0000000
  free_energy:        17.4618620
  entropy:             5.4090186
  heat_capacity:      10.3689765
  energy:             18.1109442

- temperature:       130.0000000
  free_energy:        17.4033341
  entropy:             6.3080844
  heat_capacity:      12.1316749
  energy:             18.2233851

- temperature:       140.0000000
  free_energy:        17.3354790
  entropy:             7.2734891
  heat_capacity:      13.9513863
  energy:             18.3537675

- temperature:       150.0000000
  free_energy:        17.2576644
  entropy:             8.2988366
  heat_capacity:      15.7943822
  energy:             18.5024899

- temperature:       160.0000000
  free_energy:        17.1693265
  entropy:             9.3769261
  heat_capacity:      17.6314080
  energy:             18.6696346

- temperature:       170.0000000
  free_energy:        17.0699751
  entropy:            10.5002526
  heat_capacity:      19.4386152
  energy:             18.8550181

- temperature:       180.0000000
  free_energy:        16.9591954
  entropy:            11.6613903
  heat_capacity:      21.1976070
  energy:             19.0582457

- temperature:       190.0000000
  free_energy:        16.8366449
  entropy:            12.8532598
  heat_capacity:      22.8949736
  energy:             19.2787643

- temperature:       200.0000000
  free_energy:        16.7020497
  entropy:            14.0692959
  heat_capacity:      24.5215891
  energy:             19.5159089

- temperature:       210.0000000
  free_energy:        16.5551984
  entropy:            15.3035373
  heat_capacity:      26.0718425
  energy:             19.7689412

- temperature:       220.0000000
  free_energy:        16.3959361
  entropy:            16.5506611
  heat_capacity:      27.5429048
  energy:             20.0370815

- temperature:       230.0000000
  free_energy:        16.2241579
  entropy:            17.8059779
  heat_capacity:      28.9340792
  energy:             20.3195329

- temperature:       240.0000000
  free_energy:        16.0398029
  entropy:            19.0654032
  heat_capacity:      30.2462533
  energy:             20.6154997

- temperature:       250.0000000
  free_energy:        15.8428480
  entropy:            20.3254131
  heat_capacity:      31.4814521
  energy:             20.9242013

- temperature:       260.0000000
  free_energy:        15.6333028
  entropy:            21.5829948
  heat_capacity:      32.6424842
  energy:             21.2448814

- temperature:       270.0000000
  free_energy:        15.4112048
  entropy:            22.8355926
  heat_capacity:      33.7326663
  energy:             21.5768148

- temperature:       280.0000000
  free_energy:        15.1766148
  entropy:            24.0810567
  heat_capacity:      34.7556140
  energy:             21.9193106

- temperature:       290.0000000
  free_energy:        14.9296134
  entropy:            25.3175932
  heat_capacity:      35.7150851
  energy:             22.2717154

- temperature:       300.0000000
  free_energy:        14.6702976
  entropy:            26.5437191
  heat_capacity:      36.6148656
  energy:             22.6334134

- temperature:       310.0000000
  free_energy:        14.3987778
  entropy:            27.7582208
  heat_capacity:      37.4586878
  energy:             23.0038262

- temperature:       320.0000000
  free_energy:        14.1151753
  entropy:            28.9601170
  heat_capacity:      38.2501734
  energy:             23.3824127

- temperature:       330.0000000
  free_energy:        13.8196201
  entropy:            30.1486265
  heat_capacity:      38.9927965
  energy:             23.7686668

- temperature:       340.0000000
  free_energy:        13.5122494
  entropy:            31.3231393
  heat_capacity:      39.6898597
  energy:             24.1621168

- temperature:       350.0000000
  free_energy:        13.1932055
  entropy:            32.4831916
  heat_capacity:      40.3444814
  energy:             24.5623226

- temperature:       360.0000000
  free_energy:        12.8626349
  entropy:            33.6284439
  heat_capacity:      40.9595907
  energy:             24.9688747

- temperature:       370.0000000
  free_energy:        12.5206868
  entropy:            34.7586624
  heat_capacity:      41.5379276
  energy:             25.3813919

- temperature:       380.0000000
  free_energy:        12.1675123
  entropy:            35.8737025
  heat_capacity:      42.0820472
  energy:             25.7995192

- temperature:       390.0000000
  free_energy:        11.8032636
  entropy:            36.9734952
  heat_capacity:      42.5943262
  energy:             26.2229267

- temperature:       400.0000000
  free_energy:        11.4280932
  entropy:            38.0580344
  heat_capacity:      43.0769712
  energy:             26.6513070

- temperature:       410.0000000
  free_energy:        11.0421536
  entropy:            39.1273673
  heat_capacity:      43.5320284
  energy:             27.0843742

- temperature:       420.0000000
  free_energy:        10.6455963
  entropy:            40.1815849
  heat_capacity:      43.9613927
  energy:             27.5218619

- temperature:       430.0000000
  free_energy:        10.2385718
  entropy:            41.2208149
  heat_capacity:      44.3668183
  energy:             27.9635222

- temperature:       440.0000000
  free_energy:         9.8212294
  entropy:            42.2452148
  heat_capacity:      44.7499277
  energy:             28.4091239

- temperature:       450.0000000
  free_energy:         9.3937164
  entropy:            43.2549668
  heat_capacity:      45.1122218
  energy:             28.8584514

- temperature:       460.0000000
  free_energy:         8.9561782
  entropy:            44.2502726
  heat_capacity:      45.4550887
  energy:             29.3113036

- temperature:       470.0000000
  free_energy:         8.5087583
  entropy:            45.2313498
  heat_capacity:      45.7798121
  energy:             29.7674927

- temperature:       480.0000000
  free_energy:         8.0515979
  entropy:            46.1984280
  heat_capacity:      46.0875795
  energy:             30.2268433

- temperature:       490.0000000
  free_energy:         7.5848356
  entropy:            47.1517466
  heat_capacity:      46.3794898
  energy:             30.6891915

- temperature:       500.0000000
  free_energy:         7.1086080
  entropy:            48.0915514
  heat_capacity:      46.6565603
  energy:             31.1543837

- temperature:       510.0000000
  free_energy:         6.6230488
  entropy:            49.0180932
  heat_capacity:      46.9197329
  energy:             31.6222764

- temperature:       520.0000000
  free_energy:         6.1282895
  entropy:            49.9316258
  heat_capacity:      47.1698804
  energy:             32.0927349

- temperature:       530.0000000
  free_energy:         5.6244588
  entropy:            50.8324046
  heat_capacity:      47.4078119
  energy:             32.5656332

- temperature:       540.0000000
  free_energy:         5.1116831
  entropy:            51.7206850
  heat_capacity:      47.6342779
  energy:             33.0408530

- temperature:       550.0000000
  free_energy:         4.5900859
  entropy:            52.5967218
  heat_capacity:      47.8499749
  energy:             33.5182829

- temperature:       560.0000000
  free_energy:         4.0597886
  entropy:            53.4607681
  heat_capacity:      48.0555497
  energy:             33.9978187

- temperature:       570.0000000
  free_energy:         3.5209097
  entropy:            54.3130745
  heat_capacity:      48.2516037
  energy:             34.4793622

- temperature:       580.0000000
  free_energy:         2.9735654
  entropy:            55.1538888
  heat_capacity:      48.4386957
  energy:             34.9628209

- temperature:       590.0000000
  free_energy:         2.4178694
  entropy:            55.9834551
  heat_capacity:      48.6173462
  energy:             35.4481080

- temperature:       600.0000000
  free_energy:         1.8539330
  entropy:            56.8020139
  heat_capacity:      48.7880394
  energy:             35.9351413

- temperature:       610.0000000
  free_energy:         1.2818650
  entropy:            57.6098011
  heat_capacity:      48.9512269
  energy:             36.4238437

- temperature:       620.0000000
  free_energy:         0.7017721
  entropy:            58.4070486
  heat_capacity:      49.1073296
  energy:             36.9141422

- temperature:       630.0000000
  free_energy:         0.1137585
  entropy:            59.1939834
  heat_capacity:      49.2567405
  energy:             37.4059680

- temperature:       640.0000000
  free_energy:        -0.4820739
  entropy:            59.9708280
  heat_capacity:      49.3998263
  energy:             37.8992560

- temperature:       650.0000000
  free_energy:        -1.0856252
  entropy:            60.7377997
  heat_capacity:      49.5369298
  energy:             38.3939446

- temperature:       660.0000000
  free_energy:        -1.6967977
  entropy:            61.4951112
  heat_capacity:      49.6683718
  energy:             38.8899757

- temperature:       670.0000000
  free_energy:        -2.3154959
  entropy:            62.2429703
  heat_capacity:      49.7944520
  energy:             39.3872942

- temperature:       680.0000000
  free_energy:        -2.9416263
  entropy:            62.9815796
  heat_capacity:      49.9154516
  energy:             39.8858478

- temperature:       690.0000000
  free_energy:        -3.5750973
  entropy:            63.7111369
  heat_capacity:      50.0316336
  energy:             40.3855871

- temperature:       700.0000000
  free_energy:        -4.2158195
  entropy:            64.4318354
  heat_capacity:      50.1432448
  energy:             40.8864652

- temperature:       710.0000000
  free_energy:        -4.8637051
  entropy:            65.1438630
  heat_capacity:      50.2505170
  energy:             41.3884376

- temperature:       720.0000000
  free_energy:        -5.5186685
  entropy:            65.8474032
  heat_capacity:      50.3536676
  energy:             41.8914618

- temperature:       730.0000000
  free_energy:        -6.1806255
  entropy:            66.5426348
  heat_capacity:      50.4529007
  energy:             42.3954979

- temperature:       740.0000000
  free_energy:        -6.8494941
  entropy:            67.2297318
  heat_capacity:      50.5484086
  energy:             42.9005074

- temperature:       750.0000000
  free_energy:        -7.5251936
  entropy:            67.9088638
  heat_capacity:      50.6403719
  energy:             43.4064542

- temperature:       760.0000000
  free_energy:        -8.2076453
  entropy:            68.5801960
  heat_capacity:      50.7289607
  energy:             43.9133036

- temperature:       770.0000000
  free_energy:        -8.8967721
  entropy:            69.2438893
  heat_capacity:      50.8143351
  energy:             44.4210227

- temperature:       780.0000000
  free_energy:        -9.5924982
  entropy:            69.9001004
  heat_capacity:      50.8966463
  energy:             44.9295801

- temperature:       790.0000000
  free_energy:       -10.2947496
  entropy:            70.5489817
  heat_capacity:      50.9760365
  energy:             45.4389459

- temperature:       800.0000000
  free_energy:       -11.0034539
  entropy:            71.1906818
  heat_capacity:      51.0526401
  energy:             45.9490916

- temperature:       810.0000000
  free_energy:       -11.7185398
  entropy:            71.8253453
  heat_capacity:      51.1265841
  energy:             46.4599899

- temperature:       820.0000000
  free_energy:       -12.4399378
  entropy:            72.4531129
  heat_capacity:      51.1979881
  energy:             46.9716148

- temperature:       830.0000000
  free_energy:       -13.1675795
  entropy:            73.0741218
  heat_capacity:      51.2669655
  energy:             47.4839415

- temperature:       840.0000000
  free_energy:       -13.9013981
  entropy:            73.6885054
  heat_capacity:      51.3336235
  energy:             47.9969464

- temperature:       850.0000000
  free_energy:       -14.6413280
  entropy:            74.2963937
  heat_capacity:      51.3980634
  energy:             48.5106066

- temperature:       860.0000000
  free_energy:       -15.3873048
  entropy:            74.8979132
  heat_capacity:      51.4603811
  energy:             49.0249006

- temperature:       870.0000000
  free_energy:       -16.1392654
  entropy:            75.4931872
  heat_capacity:      51.5206676
  energy:             49.5398075

- temperature:       880.0000000
  free_energy:       -16.8971481
  entropy:            76.0823358
  heat_capacity:      51.5790091
  energy:             50.0553074

- temperature:       890.0000000
  free_energy:       -17.6608921
  entropy:            76.6654759
  heat_capacity:      51.6354873
  energy:             50.5713814

- temperature:       900.0000000
  free_energy:       -18.4304380
  entropy:            77.2427213
  heat_capacity:      51.6901796
  energy:             51.0880112

- temperature:       910.0000000
  free_energy:       -19.2057273
  entropy:            77.8141831
  heat_capacity:      51.7431597
  energy:             51.6051793

- temperature:       920.0000000
  free_energy:       -19.9867027
  entropy:            78.3799692
  heat_capacity:      51.7944975
  energy:             52.1228689

- temperature:       930.0000000
  free_energy:       -20.7733081
  entropy:            78.9401851
  heat_capacity:      51.8442594
  energy:             52.6410640

- temperature:       940.0000000
  free_energy:       -21.5654882
  entropy:            79.4949333
  heat_capacity:      51.8925084
  energy:             53.1597491

- temperature:       950.0000000
  free_energy:       -22.3631889
  entropy:            80.0443139
  heat_capacity:      51.9393046
  energy:             53.6789093

- temperature:       960.0000000
  free_energy:       -23.1663569
  entropy:            80.5884244
  heat_capacity:      51.9847052
  energy:             54.1985305

- temperature:       970.0000000
  free_energy:       -23.9749401
  entropy:            81.1273599
  heat_capacity:      52.0287644
  energy:             54.7185990

- temperature:       980.0000000
  free_energy:       -24.7888872
  entropy:            81.6612130
  heat_capacity:      52.0715341
  energy:             55.2391015

- temperature:       990.0000000
  free_energy:       -25.6081477
  entropy:            82.1900740
  heat_capacity:      52.1130635
  energy:             55.7600255

- temperature:      1000.0000000
  free_energy:       -26.4326723
  entropy:            82.7140311
  heat_capacity:      52.1533998
  energy:             56.2813588
