graphite                                
           1
     2.467155   -0.000111    0.000000
    -1.233674    2.136564    0.000000
     0.000000    0.000000    6.658485
   C 
   4
Direct configuration=     1
   0.99999970  0.00000035  0.25000000
   0.00000035  0.99999970  0.75000000
   0.33329893  0.66670105  0.25000000
   0.66670105  0.33329893  0.75000000
