  32  32   0   0
  0.8468675E+01  0.4932875E-09  0.4932875E-09  0.1286560E-08  0.5000000E-15
  1.000000000000000E-004
  CAR 
 graphite                                
     16.54651695    -16.62570995  301      5.04335619      1.00000000
    -16.626  0.0000E+00  0.0000E+00
    -16.515  0.0000E+00  0.0000E+00
    -16.405  0.0000E+00  0.0000E+00
    -16.294  0.0000E+00  0.0000E+00
    -16.183  0.0000E+00  0.0000E+00
    -16.073  0.0000E+00  0.0000E+00
    -15.962  0.0000E+00  0.0000E+00
    -15.852  0.0000E+00  0.0000E+00
    -15.741  0.0000E+00  0.0000E+00
    -15.631  0.0000E+00  0.0000E+00
    -15.520  0.0000E+00  0.0000E+00
    -15.409  0.0000E+00  0.0000E+00
    -15.299  0.0000E+00  0.0000E+00
    -15.188  0.0000E+00  0.0000E+00
    -15.078  0.0000E+00  0.0000E+00
    -14.967  0.0000E+00  0.0000E+00
    -14.857  0.0000E+00  0.0000E+00
    -14.746  0.0000E+00  0.0000E+00
    -14.635  0.0000E+00  0.0000E+00
    -14.525  0.1457E+01  0.7971E-01
    -14.414  0.2434E+01  0.2924E+00
    -14.304  0.3253E+01  0.6094E+00
    -14.193  0.4747E+01  0.1036E+01
    -14.083  0.4946E+01  0.1582E+01
    -13.972  0.4886E+01  0.2131E+01
    -13.861  0.4921E+01  0.2669E+01
    -13.751  0.5011E+01  0.3219E+01
    -13.640  0.4922E+01  0.3768E+01
    -13.530  0.4954E+01  0.4313E+01
    -13.419  0.5330E+01  0.4872E+01
    -13.308  0.5604E+01  0.5479E+01
    -13.198  0.6546E+01  0.6130E+01
    -13.087  0.6415E+01  0.6865E+01
    -12.977  0.4165E+01  0.7393E+01
    -12.866  0.2768E+01  0.7731E+01
    -12.756  0.3703E+01  0.8065E+01
    -12.645  0.4076E+01  0.8466E+01
    -12.534  0.6866E+01  0.9130E+01
    -12.424  0.5309E+01  0.9770E+01
    -12.313  0.6082E+01  0.1040E+02
    -12.203  0.4445E+01  0.1100E+02
    -12.092  0.4721E+01  0.1150E+02
    -11.982  0.4927E+01  0.1204E+02
    -11.871  0.4997E+01  0.1259E+02
    -11.760  0.5068E+01  0.1314E+02
    -11.650  0.5316E+01  0.1371E+02
    -11.539  0.5770E+01  0.1434E+02
    -11.429  0.5057E+01  0.1493E+02
    -11.318  0.5026E+01  0.1549E+02
    -11.208  0.5026E+01  0.1605E+02
    -11.097  0.5086E+01  0.1660E+02
    -10.986  0.5167E+01  0.1717E+02
    -10.876  0.5251E+01  0.1774E+02
    -10.765  0.5490E+01  0.1834E+02
    -10.655  0.5647E+01  0.1895E+02
    -10.544  0.5964E+01  0.1959E+02
    -10.434  0.5926E+01  0.2025E+02
    -10.323  0.5968E+01  0.2091E+02
    -10.212  0.5453E+01  0.2155E+02
    -10.102  0.4367E+01  0.2209E+02
     -9.991  0.4383E+01  0.2256E+02
     -9.881  0.5117E+01  0.2310E+02
     -9.770  0.5373E+01  0.2368E+02
     -9.660  0.5559E+01  0.2429E+02
     -9.549  0.5809E+01  0.2491E+02
     -9.438  0.6928E+01  0.2562E+02
     -9.328  0.8643E+01  0.2646E+02
     -9.217  0.8592E+01  0.2750E+02
     -9.107  0.7356E+01  0.2831E+02
     -8.996  0.5342E+01  0.2899E+02
     -8.886  0.3700E+01  0.2956E+02
     -8.775  0.3317E+01  0.2995E+02
     -8.664  0.2933E+01  0.3030E+02
     -8.554  0.2549E+01  0.3060E+02
     -8.443  0.2679E+01  0.3088E+02
     -8.333  0.2605E+01  0.3119E+02
     -8.222  0.2079E+01  0.3145E+02
     -8.112  0.1712E+01  0.3164E+02
     -8.001  0.2605E+01  0.3188E+02
     -7.890  0.7920E+01  0.3240E+02
     -7.780  0.4300E+01  0.3305E+02
     -7.669  0.3950E+01  0.3351E+02
     -7.559  0.4326E+01  0.3396E+02
     -7.448  0.6282E+01  0.3463E+02
     -7.337  0.6344E+01  0.3541E+02
     -7.227  0.7424E+01  0.3617E+02
     -7.116  0.8688E+01  0.3706E+02
     -7.006  0.7768E+01  0.3799E+02
     -6.895  0.6236E+01  0.3875E+02
     -6.785  0.5953E+01  0.3942E+02
     -6.674  0.5691E+01  0.4007E+02
     -6.563  0.5478E+01  0.4068E+02
     -6.453  0.5286E+01  0.4128E+02
     -6.342  0.5101E+01  0.4185E+02
     -6.232  0.4913E+01  0.4241E+02
     -6.121  0.4837E+01  0.4294E+02
     -6.011  0.4811E+01  0.4348E+02
     -5.900  0.4721E+01  0.4401E+02
     -5.789  0.4563E+01  0.4452E+02
     -5.679  0.4430E+01  0.4502E+02
     -5.568  0.3446E+01  0.4546E+02
     -5.458  0.4115E+01  0.4588E+02
     -5.347  0.4696E+01  0.4637E+02
     -5.237  0.5441E+01  0.4693E+02
     -5.126  0.6234E+01  0.4757E+02
     -5.015  0.8700E+01  0.4839E+02
     -4.905  0.9822E+01  0.4945E+02
     -4.794  0.7303E+01  0.5040E+02
     -4.684  0.4784E+01  0.5107E+02
     -4.573  0.2648E+01  0.5146E+02
     -4.463  0.2690E+01  0.5174E+02
     -4.352  0.3810E+01  0.5209E+02
     -4.241  0.5270E+01  0.5260E+02
     -4.131  0.6944E+01  0.5327E+02
     -4.020  0.8069E+01  0.5411E+02
     -3.910  0.7227E+01  0.5498E+02
     -3.799  0.5871E+01  0.5570E+02
     -3.689  0.5787E+01  0.5632E+02
     -3.578  0.7694E+01  0.5712E+02
     -3.467  0.7554E+01  0.5797E+02
     -3.357  0.7317E+01  0.5880E+02
     -3.246  0.7609E+01  0.5961E+02
     -3.136  0.7727E+01  0.6048E+02
     -3.025  0.9191E+01  0.6150E+02
     -2.915  0.8977E+01  0.6249E+02
     -2.804  0.8590E+01  0.6348E+02
     -2.693  0.7363E+01  0.6437E+02
     -2.583  0.7099E+01  0.6514E+02
     -2.472  0.7970E+01  0.6597E+02
     -2.362  0.9527E+01  0.6693E+02
     -2.251  0.1174E+02  0.6811E+02
     -2.141  0.1322E+02  0.6950E+02
     -2.030  0.1092E+02  0.7086E+02
     -1.919  0.1174E+02  0.7205E+02
     -1.809  0.1215E+02  0.7339E+02
     -1.698  0.1526E+02  0.7484E+02
     -1.588  0.1333E+02  0.7644E+02
     -1.477  0.1726E+02  0.7804E+02
     -1.366  0.9413E+01  0.7945E+02
     -1.256  0.2196E+02  0.8096E+02
     -1.145  0.1906E+02  0.8307E+02
     -1.035  0.1628E+02  0.8516E+02
     -0.924  0.1379E+02  0.8682E+02
     -0.814  0.1187E+02  0.8824E+02
     -0.703  0.1091E+02  0.8949E+02
     -0.592  0.7775E+01  0.9050E+02
     -0.482  0.8774E+01  0.9139E+02
     -0.371  0.1361E+02  0.9257E+02
     -0.261  0.1422E+02  0.9417E+02
     -0.150  0.9793E+01  0.9579E+02
     -0.040  0.8744E+01  0.9678E+02
      0.071  0.9233E+01  0.9778E+02
      0.182  0.9909E+01  0.9884E+02
      0.292  0.1101E+02  0.1000E+03
      0.403  0.1148E+02  0.1012E+03
      0.513  0.9744E+01  0.1024E+03
      0.624  0.9519E+01  0.1035E+03
      0.734  0.9397E+01  0.1045E+03
      0.845  0.9574E+01  0.1056E+03
      0.956  0.1009E+02  0.1066E+03
      1.066  0.9290E+01  0.1077E+03
      1.177  0.9195E+01  0.1087E+03
      1.287  0.9258E+01  0.1097E+03
      1.398  0.9445E+01  0.1108E+03
      1.508  0.9764E+01  0.1118E+03
      1.619  0.9277E+01  0.1129E+03
      1.730  0.8574E+01  0.1139E+03
      1.840  0.9504E+01  0.1149E+03
      1.951  0.9690E+01  0.1159E+03
      2.061  0.7361E+01  0.1169E+03
      2.172  0.5965E+01  0.1176E+03
      2.282  0.5852E+01  0.1183E+03
      2.393  0.5492E+01  0.1189E+03
      2.504  0.4477E+01  0.1194E+03
      2.614  0.5813E+01  0.1199E+03
      2.725  0.7902E+01  0.1207E+03
      2.835  0.7978E+01  0.1216E+03
      2.946  0.6400E+01  0.1224E+03
      3.056  0.6016E+01  0.1229E+03
      3.167  0.5995E+01  0.1236E+03
      3.278  0.6335E+01  0.1244E+03
      3.388  0.4806E+01  0.1250E+03
      3.499  0.3986E+01  0.1255E+03
      3.609  0.3348E+01  0.1259E+03
      3.720  0.3012E+01  0.1262E+03
      3.830  0.2714E+01  0.1265E+03
      3.941  0.2356E+01  0.1268E+03
      4.052  0.1952E+01  0.1270E+03
      4.162  0.1703E+01  0.1272E+03
      4.273  0.1449E+01  0.1274E+03
      4.383  0.1229E+01  0.1276E+03
      4.494  0.1040E+01  0.1277E+03
      4.605  0.9378E+00  0.1278E+03
      4.715  0.6902E+00  0.1279E+03
      4.826  0.4444E+00  0.1280E+03
      4.936  0.2060E+00  0.1280E+03
      5.047  0.8130E-05  0.1280E+03
      5.157  0.1225E+00  0.1280E+03
      5.268  0.2692E+00  0.1280E+03
      5.379  0.4251E+00  0.1281E+03
      5.489  0.5931E+00  0.1281E+03
      5.600  0.7764E+00  0.1282E+03
      5.710  0.9813E+00  0.1283E+03
      5.821  0.1220E+01  0.1284E+03
      5.931  0.1543E+01  0.1286E+03
      6.042  0.1896E+01  0.1288E+03
      6.153  0.2285E+01  0.1290E+03
      6.263  0.2879E+01  0.1293E+03
      6.374  0.4225E+01  0.1296E+03
      6.484  0.4605E+01  0.1301E+03
      6.595  0.8251E+01  0.1308E+03
      6.705  0.8468E+01  0.1320E+03
      6.816  0.7775E+01  0.1329E+03
      6.927  0.7378E+01  0.1337E+03
      7.037  0.7285E+01  0.1345E+03
      7.148  0.6768E+01  0.1353E+03
      7.258  0.5758E+01  0.1360E+03
      7.369  0.5157E+01  0.1366E+03
      7.479  0.4818E+01  0.1372E+03
      7.590  0.3796E+01  0.1376E+03
      7.701  0.3465E+01  0.1380E+03
      7.811  0.3580E+01  0.1384E+03
      7.922  0.3998E+01  0.1388E+03
      8.032  0.4347E+01  0.1393E+03
      8.143  0.4698E+01  0.1398E+03
      8.253  0.4937E+01  0.1403E+03
      8.364  0.4701E+01  0.1409E+03
      8.475  0.4452E+01  0.1414E+03
      8.585  0.4210E+01  0.1418E+03
      8.696  0.3985E+01  0.1423E+03
      8.806  0.3874E+01  0.1427E+03
      8.917  0.3700E+01  0.1432E+03
      9.027  0.3609E+01  0.1436E+03
      9.138  0.3523E+01  0.1439E+03
      9.249  0.3399E+01  0.1443E+03
      9.359  0.3252E+01  0.1447E+03
      9.470  0.3188E+01  0.1451E+03
      9.580  0.3170E+01  0.1454E+03
      9.691  0.3208E+01  0.1458E+03
      9.801  0.3277E+01  0.1461E+03
      9.912  0.3370E+01  0.1465E+03
     10.023  0.3497E+01  0.1469E+03
     10.133  0.3551E+01  0.1473E+03
     10.244  0.3598E+01  0.1476E+03
     10.354  0.3702E+01  0.1481E+03
     10.465  0.3782E+01  0.1485E+03
     10.576  0.3775E+01  0.1489E+03
     10.686  0.3721E+01  0.1493E+03
     10.797  0.3688E+01  0.1497E+03
     10.907  0.4116E+01  0.1501E+03
     11.018  0.4396E+01  0.1506E+03
     11.128  0.4554E+01  0.1511E+03
     11.239  0.4507E+01  0.1516E+03
     11.350  0.4362E+01  0.1521E+03
     11.460  0.4881E+01  0.1526E+03
     11.571  0.5552E+01  0.1532E+03
     11.681  0.3365E+01  0.1537E+03
     11.792  0.3084E+01  0.1540E+03
     11.902  0.2496E+01  0.1543E+03
     12.013  0.2892E+01  0.1547E+03
     12.124  0.3390E+01  0.1550E+03
     12.234  0.4211E+01  0.1554E+03
     12.345  0.5666E+01  0.1560E+03
     12.455  0.7224E+01  0.1568E+03
     12.566  0.9154E+01  0.1576E+03
     12.676  0.1180E+02  0.1589E+03
     12.787  0.1256E+02  0.1602E+03
     12.898  0.1234E+02  0.1616E+03
     13.008  0.1150E+02  0.1629E+03
     13.119  0.1051E+02  0.1642E+03
     13.229  0.8960E+01  0.1653E+03
     13.340  0.6981E+01  0.1661E+03
     13.450  0.6452E+01  0.1669E+03
     13.561  0.3670E+01  0.1674E+03
     13.672  0.2143E+01  0.1678E+03
     13.782  0.7681E+00  0.1679E+03
     13.893  0.2280E+00  0.1680E+03
     14.003  0.8021E-01  0.1680E+03
     14.114  0.5088E-01  0.1680E+03
     14.224  0.2819E-01  0.1680E+03
     14.335  0.1216E-01  0.1680E+03
     14.446  0.2768E-02  0.1680E+03
     14.556  0.0000E+00  0.1680E+03
     14.667  0.0000E+00  0.1680E+03
     14.777  0.0000E+00  0.1680E+03
     14.888  0.0000E+00  0.1680E+03
     14.998  0.0000E+00  0.1680E+03
     15.109  0.0000E+00  0.1680E+03
     15.220  0.0000E+00  0.1680E+03
     15.330  0.0000E+00  0.1680E+03
     15.441  0.0000E+00  0.1680E+03
     15.551  0.0000E+00  0.1680E+03
     15.662  0.0000E+00  0.1680E+03
     15.772  0.0000E+00  0.1680E+03
     15.883  0.0000E+00  0.1680E+03
     15.994  0.0000E+00  0.1680E+03
     16.104  0.0000E+00  0.1680E+03
     16.215  0.0000E+00  0.1680E+03
     16.325  0.0000E+00  0.1680E+03
     16.436  0.0000E+00  0.1680E+03
     16.547  0.0000E+00  0.1680E+03
