<?xml version="1.0" encoding="ISO-8859-1"?>
<modeling>
 <generator>
  <i name="program" type="string">vasp </i>
  <i name="version" type="string">5.3.5  </i>
  <i name="subversion" type="string">31Mar14 (build Nov 02 2014 15:17:37) complex                          parallel </i>
  <i name="platform" type="string">ion-Intel-MKL </i>
  <i name="date" type="string">2016 10 18 </i>
  <i name="time" type="string">11:11:05 </i>
 </generator>
 <incar>
  <i type="string" name="SYSTEM">graphite</i>
  <i type="string" name="PREC">accurate</i>
  <i type="int" name="NELM">   200</i>
  <i type="int" name="IBRION">    -1</i>
  <i name="EDIFF">      0.00000001</i>
  <i name="EDIFFG">      0.00100000</i>
  <i type="int" name="NSW">     0</i>
  <i type="int" name="ISIF">     2</i>
  <i name="ENCUT">    800.00000000</i>
  <i type="int" name="ISMEAR">    -5</i>
  <i type="logical" name="LWAVE"> F  </i>
  <i type="logical" name="LCHARG"> F  </i>
  <i type="int" name="NELM">   200</i>
  <i type="string" name="GGA">PE</i>
 </incar>
 <kpoints>
  <generation param="Gamma">
   <v type="int" name="divisions">       6        6        4 </v>
   <v name="usershift">      0.00000000       0.00000000       0.00000000 </v>
   <v name="genvec1">      0.16666667      -0.00000000       0.00000000 </v>
   <v name="genvec2">      0.00000000       0.16666667       0.00000000 </v>
   <v name="genvec3">      0.00000000       0.00000000       0.25000000 </v>
   <v name="shift">      0.00000000       0.00000000       0.00000000 </v>
  </generation>
  <varray name="kpointlist" >
   <v>       0.00000000       0.00000000       0.00000000 </v>
   <v>       0.16666667       0.00000000       0.00000000 </v>
   <v>       0.33333333       0.00000000       0.00000000 </v>
   <v>       0.50000000       0.00000000       0.00000000 </v>
   <v>       0.00000000       0.16666667       0.00000000 </v>
   <v>       0.16666667       0.16666667       0.00000000 </v>
   <v>       0.33333333       0.16666667       0.00000000 </v>
   <v>       0.50000000       0.16666667       0.00000000 </v>
   <v>      -0.33333333       0.16666667       0.00000000 </v>
   <v>      -0.16666667       0.16666667       0.00000000 </v>
   <v>       0.00000000       0.33333333       0.00000000 </v>
   <v>       0.16666667       0.33333333       0.00000000 </v>
   <v>       0.33333333       0.33333333       0.00000000 </v>
   <v>       0.50000000       0.33333333       0.00000000 </v>
   <v>      -0.33333333       0.33333333       0.00000000 </v>
   <v>      -0.16666667       0.33333333       0.00000000 </v>
   <v>       0.00000000       0.50000000       0.00000000 </v>
   <v>       0.16666667       0.50000000       0.00000000 </v>
   <v>       0.33333333       0.50000000       0.00000000 </v>
   <v>       0.50000000       0.50000000       0.00000000 </v>
   <v>       0.00000000       0.00000000       0.25000000 </v>
   <v>       0.16666667       0.00000000       0.25000000 </v>
   <v>       0.33333333       0.00000000       0.25000000 </v>
   <v>       0.50000000       0.00000000       0.25000000 </v>
   <v>      -0.33333333       0.00000000       0.25000000 </v>
   <v>      -0.16666667       0.00000000       0.25000000 </v>
   <v>       0.00000000       0.16666667       0.25000000 </v>
   <v>       0.16666667       0.16666667       0.25000000 </v>
   <v>       0.33333333       0.16666667       0.25000000 </v>
   <v>       0.50000000       0.16666667       0.25000000 </v>
   <v>      -0.33333333       0.16666667       0.25000000 </v>
   <v>      -0.16666667       0.16666667       0.25000000 </v>
   <v>       0.00000000       0.33333333       0.25000000 </v>
   <v>       0.16666667       0.33333333       0.25000000 </v>
   <v>       0.33333333       0.33333333       0.25000000 </v>
   <v>       0.50000000       0.33333333       0.25000000 </v>
   <v>      -0.33333333       0.33333333       0.25000000 </v>
   <v>      -0.16666667       0.33333333       0.25000000 </v>
   <v>       0.00000000       0.50000000       0.25000000 </v>
   <v>       0.16666667       0.50000000       0.25000000 </v>
   <v>       0.33333333       0.50000000       0.25000000 </v>
   <v>       0.50000000       0.50000000       0.25000000 </v>
   <v>      -0.33333333       0.50000000       0.25000000 </v>
   <v>      -0.16666667       0.50000000       0.25000000 </v>
   <v>      -0.00000000      -0.33333333       0.25000000 </v>
   <v>       0.16666667      -0.33333333       0.25000000 </v>
   <v>       0.33333333      -0.33333333       0.25000000 </v>
   <v>       0.50000000      -0.33333333       0.25000000 </v>
   <v>      -0.33333333      -0.33333333       0.25000000 </v>
   <v>      -0.16666667      -0.33333333       0.25000000 </v>
   <v>      -0.00000000      -0.16666667       0.25000000 </v>
   <v>       0.16666667      -0.16666667       0.25000000 </v>
   <v>       0.33333333      -0.16666667       0.25000000 </v>
   <v>       0.50000000      -0.16666667       0.25000000 </v>
   <v>      -0.33333333      -0.16666667       0.25000000 </v>
   <v>      -0.16666667      -0.16666667       0.25000000 </v>
   <v>       0.00000000       0.00000000       0.50000000 </v>
   <v>       0.16666667       0.00000000       0.50000000 </v>
   <v>       0.33333333       0.00000000       0.50000000 </v>
   <v>       0.50000000       0.00000000       0.50000000 </v>
   <v>       0.00000000       0.16666667       0.50000000 </v>
   <v>       0.16666667       0.16666667       0.50000000 </v>
   <v>       0.33333333       0.16666667       0.50000000 </v>
   <v>       0.50000000       0.16666667       0.50000000 </v>
   <v>      -0.33333333       0.16666667       0.50000000 </v>
   <v>      -0.16666667       0.16666667       0.50000000 </v>
   <v>       0.00000000       0.33333333       0.50000000 </v>
   <v>       0.16666667       0.33333333       0.50000000 </v>
   <v>       0.33333333       0.33333333       0.50000000 </v>
   <v>       0.50000000       0.33333333       0.50000000 </v>
   <v>      -0.33333333       0.33333333       0.50000000 </v>
   <v>      -0.16666667       0.33333333       0.50000000 </v>
   <v>       0.00000000       0.50000000       0.50000000 </v>
   <v>       0.16666667       0.50000000       0.50000000 </v>
   <v>       0.33333333       0.50000000       0.50000000 </v>
   <v>       0.50000000       0.50000000       0.50000000 </v>
  </varray>
  <varray name="weights" >
   <v>       0.00694444 </v>
   <v>       0.01388889 </v>
   <v>       0.01388889 </v>
   <v>       0.00694444 </v>
   <v>       0.01388889 </v>
   <v>       0.01388889 </v>
   <v>       0.01388889 </v>
   <v>       0.01388889 </v>
   <v>       0.01388889 </v>
   <v>       0.01388889 </v>
   <v>       0.01388889 </v>
   <v>       0.01388889 </v>
   <v>       0.01388889 </v>
   <v>       0.01388889 </v>
   <v>       0.01388889 </v>
   <v>       0.01388889 </v>
   <v>       0.00694444 </v>
   <v>       0.01388889 </v>
   <v>       0.01388889 </v>
   <v>       0.00694444 </v>
   <v>       0.01388889 </v>
   <v>       0.01388889 </v>
   <v>       0.01388889 </v>
   <v>       0.01388889 </v>
   <v>       0.01388889 </v>
   <v>       0.01388889 </v>
   <v>       0.01388889 </v>
   <v>       0.01388889 </v>
   <v>       0.01388889 </v>
   <v>       0.01388889 </v>
   <v>       0.01388889 </v>
   <v>       0.01388889 </v>
   <v>       0.01388889 </v>
   <v>       0.01388889 </v>
   <v>       0.01388889 </v>
   <v>       0.01388889 </v>
   <v>       0.01388889 </v>
   <v>       0.01388889 </v>
   <v>       0.01388889 </v>
   <v>       0.01388889 </v>
   <v>       0.01388889 </v>
   <v>       0.01388889 </v>
   <v>       0.01388889 </v>
   <v>       0.01388889 </v>
   <v>       0.01388889 </v>
   <v>       0.01388889 </v>
   <v>       0.01388889 </v>
   <v>       0.01388889 </v>
   <v>       0.01388889 </v>
   <v>       0.01388889 </v>
   <v>       0.01388889 </v>
   <v>       0.01388889 </v>
   <v>       0.01388889 </v>
   <v>       0.01388889 </v>
   <v>       0.01388889 </v>
   <v>       0.01388889 </v>
   <v>       0.00694444 </v>
   <v>       0.01388889 </v>
   <v>       0.01388889 </v>
   <v>       0.00694444 </v>
   <v>       0.01388889 </v>
   <v>       0.01388889 </v>
   <v>       0.01388889 </v>
   <v>       0.01388889 </v>
   <v>       0.01388889 </v>
   <v>       0.01388889 </v>
   <v>       0.01388889 </v>
   <v>       0.01388889 </v>
   <v>       0.01388889 </v>
   <v>       0.01388889 </v>
   <v>       0.01388889 </v>
   <v>       0.01388889 </v>
   <v>       0.00694444 </v>
   <v>       0.01388889 </v>
   <v>       0.01388889 </v>
   <v>       0.00694444 </v>
  </varray>
  <varray name="tetrahedronlist"  type="int" >
   <v type="int" >        2        2        5        6       27 </v>
   <v type="int" >        2        1        2        5       27 </v>
   <v type="int" >        2        1        2       21       27 </v>
   <v type="int" >        2        2        6       27       28 </v>
   <v type="int" >        2        2       22       27       28 </v>
   <v type="int" >        2        2       21       22       27 </v>
   <v type="int" >        2        3        6        7       28 </v>
   <v type="int" >        2        2        3        6       28 </v>
   <v type="int" >        2        2        3       22       28 </v>
   <v type="int" >        2        3        7       28       29 </v>
   <v type="int" >        2        3       23       28       29 </v>
   <v type="int" >        2        3       22       23       28 </v>
   <v type="int" >        2        4        7        8       29 </v>
   <v type="int" >        2        3        4        7       29 </v>
   <v type="int" >        2        3        4       23       29 </v>
   <v type="int" >        2        4        8       29       30 </v>
   <v type="int" >        2        4       24       29       30 </v>
   <v type="int" >        2        4       23       24       29 </v>
   <v type="int" >        2        3        8        9       30 </v>
   <v type="int" >        2        3        4        8       30 </v>
   <v type="int" >        2        3        4       24       30 </v>
   <v type="int" >        2        3        9       30       31 </v>
   <v type="int" >        2        3       25       30       31 </v>
   <v type="int" >        2        3       24       25       30 </v>
   <v type="int" >        2        2        9       10       31 </v>
   <v type="int" >        2        2        3        9       31 </v>
   <v type="int" >        2        2        3       25       31 </v>
   <v type="int" >        2        2       10       31       32 </v>
   <v type="int" >        2        2       26       31       32 </v>
   <v type="int" >        2        2       25       26       31 </v>
   <v type="int" >        2        1        5       10       32 </v>
   <v type="int" >        2        1        2       10       32 </v>
   <v type="int" >        2        1        2       26       32 </v>
   <v type="int" >        2        1        5       27       32 </v>
   <v type="int" >        2        1       21       27       32 </v>
   <v type="int" >        2        1       21       26       32 </v>
   <v type="int" >        2        6       11       12       33 </v>
   <v type="int" >        2        5        6       11       33 </v>
   <v type="int" >        2        5        6       27       33 </v>
   <v type="int" >        2        6       12       33       34 </v>
   <v type="int" >        2        6       28       33       34 </v>
   <v type="int" >        2        6       27       28       33 </v>
   <v type="int" >        2        7       12       13       34 </v>
   <v type="int" >        2        6        7       12       34 </v>
   <v type="int" >        2        6        7       28       34 </v>
   <v type="int" >        2        7       13       34       35 </v>
   <v type="int" >        2        7       29       34       35 </v>
   <v type="int" >        2        7       28       29       34 </v>
   <v type="int" >        2        8       13       14       35 </v>
   <v type="int" >        2        7        8       13       35 </v>
   <v type="int" >        2        7        8       29       35 </v>
   <v type="int" >        2        8       14       35       36 </v>
   <v type="int" >        2        8       30       35       36 </v>
   <v type="int" >        2        8       29       30       35 </v>
   <v type="int" >        2        9       14       15       36 </v>
   <v type="int" >        2        8        9       14       36 </v>
   <v type="int" >        2        8        9       30       36 </v>
   <v type="int" >        2        9       15       36       37 </v>
   <v type="int" >        2        9       31       36       37 </v>
   <v type="int" >        2        9       30       31       36 </v>
   <v type="int" >        2       10       15       16       37 </v>
   <v type="int" >        2        9       10       15       37 </v>
   <v type="int" >        2        9       10       31       37 </v>
   <v type="int" >        2       10       16       37       38 </v>
   <v type="int" >        2       10       32       37       38 </v>
   <v type="int" >        2       10       31       32       37 </v>
   <v type="int" >        2        5       11       16       38 </v>
   <v type="int" >        2        5       10       16       38 </v>
   <v type="int" >        2        5       10       32       38 </v>
   <v type="int" >        2        5       11       33       38 </v>
   <v type="int" >        2        5       27       33       38 </v>
   <v type="int" >        2        5       27       32       38 </v>
   <v type="int" >        2       12       17       18       39 </v>
   <v type="int" >        2       11       12       17       39 </v>
   <v type="int" >        2       11       12       33       39 </v>
   <v type="int" >        2       12       18       39       40 </v>
   <v type="int" >        2       12       34       39       40 </v>
   <v type="int" >        2       12       33       34       39 </v>
   <v type="int" >        2       13       18       19       40 </v>
   <v type="int" >        2       12       13       18       40 </v>
   <v type="int" >        2       12       13       34       40 </v>
   <v type="int" >        2       13       19       40       41 </v>
   <v type="int" >        2       13       35       40       41 </v>
   <v type="int" >        2       13       34       35       40 </v>
   <v type="int" >        2       14       19       20       41 </v>
   <v type="int" >        2       13       14       19       41 </v>
   <v type="int" >        2       13       14       35       41 </v>
   <v type="int" >        2       14       20       41       42 </v>
   <v type="int" >        2       14       36       41       42 </v>
   <v type="int" >        2       14       35       36       41 </v>
   <v type="int" >        2       15       19       20       42 </v>
   <v type="int" >        2       14       15       20       42 </v>
   <v type="int" >        2       14       15       36       42 </v>
   <v type="int" >        2       15       19       42       43 </v>
   <v type="int" >        2       15       37       42       43 </v>
   <v type="int" >        2       15       36       37       42 </v>
   <v type="int" >        2       16       18       19       43 </v>
   <v type="int" >        2       15       16       19       43 </v>
   <v type="int" >        2       15       16       37       43 </v>
   <v type="int" >        2       16       18       43       44 </v>
   <v type="int" >        2       16       38       43       44 </v>
   <v type="int" >        2       16       37       38       43 </v>
   <v type="int" >        2       11       17       18       44 </v>
   <v type="int" >        2       11       16       18       44 </v>
   <v type="int" >        2       11       16       38       44 </v>
   <v type="int" >        2       11       17       39       44 </v>
   <v type="int" >        2       11       33       39       44 </v>
   <v type="int" >        2       11       33       38       44 </v>
   <v type="int" >        2       11       16       18       45 </v>
   <v type="int" >        2       11       17       18       45 </v>
   <v type="int" >        2       17       18       39       45 </v>
   <v type="int" >        2       16       18       45       46 </v>
   <v type="int" >        2       18       40       45       46 </v>
   <v type="int" >        2       18       39       40       45 </v>
   <v type="int" >        2       15       16       19       46 </v>
   <v type="int" >        2       16       18       19       46 </v>
   <v type="int" >        2       18       19       40       46 </v>
   <v type="int" >        2       15       19       46       47 </v>
   <v type="int" >        2       19       41       46       47 </v>
   <v type="int" >        2       19       40       41       46 </v>
   <v type="int" >        2       14       15       20       47 </v>
   <v type="int" >        2       15       19       20       47 </v>
   <v type="int" >        2       19       20       41       47 </v>
   <v type="int" >        2       14       20       47       48 </v>
   <v type="int" >        2       20       42       47       48 </v>
   <v type="int" >        2       20       41       42       47 </v>
   <v type="int" >        2       13       14       19       48 </v>
   <v type="int" >        2       14       19       20       48 </v>
   <v type="int" >        2       19       20       42       48 </v>
   <v type="int" >        2       13       19       48       49 </v>
   <v type="int" >        2       19       43       48       49 </v>
   <v type="int" >        2       19       42       43       48 </v>
   <v type="int" >        2       12       13       18       49 </v>
   <v type="int" >        2       13       18       19       49 </v>
   <v type="int" >        2       18       19       43       49 </v>
   <v type="int" >        2       12       18       49       50 </v>
   <v type="int" >        2       18       44       49       50 </v>
   <v type="int" >        2       18       43       44       49 </v>
   <v type="int" >        2       11       12       17       50 </v>
   <v type="int" >        2       12       17       18       50 </v>
   <v type="int" >        2       17       18       44       50 </v>
   <v type="int" >        2       11       17       45       50 </v>
   <v type="int" >        2       17       39       45       50 </v>
   <v type="int" >        2       17       39       44       50 </v>
   <v type="int" >        2        5       10       16       51 </v>
   <v type="int" >        2        5       11       16       51 </v>
   <v type="int" >        2       11       16       45       51 </v>
   <v type="int" >        2       10       16       51       52 </v>
   <v type="int" >        2       16       46       51       52 </v>
   <v type="int" >        2       16       45       46       51 </v>
   <v type="int" >        2        9       10       15       52 </v>
   <v type="int" >        2       10       15       16       52 </v>
   <v type="int" >        2       15       16       46       52 </v>
   <v type="int" >        2        9       15       52       53 </v>
   <v type="int" >        2       15       47       52       53 </v>
   <v type="int" >        2       15       46       47       52 </v>
   <v type="int" >        2        8        9       14       53 </v>
   <v type="int" >        2        9       14       15       53 </v>
   <v type="int" >        2       14       15       47       53 </v>
   <v type="int" >        2        8       14       53       54 </v>
   <v type="int" >        2       14       48       53       54 </v>
   <v type="int" >        2       14       47       48       53 </v>
   <v type="int" >        2        7        8       13       54 </v>
   <v type="int" >        2        8       13       14       54 </v>
   <v type="int" >        2       13       14       48       54 </v>
   <v type="int" >        2        7       13       54       55 </v>
   <v type="int" >        2       13       49       54       55 </v>
   <v type="int" >        2       13       48       49       54 </v>
   <v type="int" >        2        6        7       12       55 </v>
   <v type="int" >        2        7       12       13       55 </v>
   <v type="int" >        2       12       13       49       55 </v>
   <v type="int" >        2        6       12       55       56 </v>
   <v type="int" >        2       12       50       55       56 </v>
   <v type="int" >        2       12       49       50       55 </v>
   <v type="int" >        2        5        6       11       56 </v>
   <v type="int" >        2        6       11       12       56 </v>
   <v type="int" >        2       11       12       50       56 </v>
   <v type="int" >        2        5       11       51       56 </v>
   <v type="int" >        2       11       45       51       56 </v>
   <v type="int" >        2       11       45       50       56 </v>
   <v type="int" >        2        1        2       10       21 </v>
   <v type="int" >        2        1        5       10       21 </v>
   <v type="int" >        2        5       10       21       51 </v>
   <v type="int" >        2        2       10       21       22 </v>
   <v type="int" >        2       10       21       22       52 </v>
   <v type="int" >        2       10       21       51       52 </v>
   <v type="int" >        2        2        3        9       22 </v>
   <v type="int" >        2        2        9       10       22 </v>
   <v type="int" >        2        9       10       22       52 </v>
   <v type="int" >        2        3        9       22       23 </v>
   <v type="int" >        2        9       22       23       53 </v>
   <v type="int" >        2        9       22       52       53 </v>
   <v type="int" >        2        3        4        8       23 </v>
   <v type="int" >        2        3        8        9       23 </v>
   <v type="int" >        2        8        9       23       53 </v>
   <v type="int" >        2        4        8       23       24 </v>
   <v type="int" >        2        8       23       24       54 </v>
   <v type="int" >        2        8       23       53       54 </v>
   <v type="int" >        2        3        4        7       24 </v>
   <v type="int" >        2        4        7        8       24 </v>
   <v type="int" >        2        7        8       24       54 </v>
   <v type="int" >        2        3        7       24       25 </v>
   <v type="int" >        2        7       24       25       55 </v>
   <v type="int" >        2        7       24       54       55 </v>
   <v type="int" >        2        2        3        6       25 </v>
   <v type="int" >        2        3        6        7       25 </v>
   <v type="int" >        2        6        7       25       55 </v>
   <v type="int" >        2        2        6       25       26 </v>
   <v type="int" >        2        6       25       26       56 </v>
   <v type="int" >        2        6       25       55       56 </v>
   <v type="int" >        2        1        2        5       26 </v>
   <v type="int" >        2        2        5        6       26 </v>
   <v type="int" >        2        5        6       26       56 </v>
   <v type="int" >        2        1        5       21       26 </v>
   <v type="int" >        2        5       21       26       51 </v>
   <v type="int" >        2        5       26       51       56 </v>
   <v type="int" >        2       22       27       28       61 </v>
   <v type="int" >        2       21       22       27       61 </v>
   <v type="int" >        2       21       22       57       61 </v>
   <v type="int" >        2       22       28       61       62 </v>
   <v type="int" >        2       22       58       61       62 </v>
   <v type="int" >        2       22       57       58       61 </v>
   <v type="int" >        2       23       28       29       62 </v>
   <v type="int" >        2       22       23       28       62 </v>
   <v type="int" >        2       22       23       58       62 </v>
   <v type="int" >        2       23       29       62       63 </v>
   <v type="int" >        2       23       59       62       63 </v>
   <v type="int" >        2       23       58       59       62 </v>
   <v type="int" >        2       24       29       30       63 </v>
   <v type="int" >        2       23       24       29       63 </v>
   <v type="int" >        2       23       24       59       63 </v>
   <v type="int" >        2       24       30       63       64 </v>
   <v type="int" >        2       24       60       63       64 </v>
   <v type="int" >        2       24       59       60       63 </v>
   <v type="int" >        2       25       30       31       64 </v>
   <v type="int" >        2       24       25       30       64 </v>
   <v type="int" >        2       24       25       60       64 </v>
   <v type="int" >        2       25       31       64       65 </v>
   <v type="int" >        2       25       59       64       65 </v>
   <v type="int" >        2       25       59       60       64 </v>
   <v type="int" >        2       26       31       32       65 </v>
   <v type="int" >        2       25       26       31       65 </v>
   <v type="int" >        2       25       26       59       65 </v>
   <v type="int" >        2       26       32       65       66 </v>
   <v type="int" >        2       26       58       65       66 </v>
   <v type="int" >        2       26       58       59       65 </v>
   <v type="int" >        2       21       27       32       66 </v>
   <v type="int" >        2       21       26       32       66 </v>
   <v type="int" >        2       21       26       58       66 </v>
   <v type="int" >        2       21       27       61       66 </v>
   <v type="int" >        2       21       57       61       66 </v>
   <v type="int" >        2       21       57       58       66 </v>
   <v type="int" >        2       28       33       34       67 </v>
   <v type="int" >        2       27       28       33       67 </v>
   <v type="int" >        2       27       28       61       67 </v>
   <v type="int" >        2       28       34       67       68 </v>
   <v type="int" >        2       28       62       67       68 </v>
   <v type="int" >        2       28       61       62       67 </v>
   <v type="int" >        2       29       34       35       68 </v>
   <v type="int" >        2       28       29       34       68 </v>
   <v type="int" >        2       28       29       62       68 </v>
   <v type="int" >        2       29       35       68       69 </v>
   <v type="int" >        2       29       63       68       69 </v>
   <v type="int" >        2       29       62       63       68 </v>
   <v type="int" >        2       30       35       36       69 </v>
   <v type="int" >        2       29       30       35       69 </v>
   <v type="int" >        2       29       30       63       69 </v>
   <v type="int" >        2       30       36       69       70 </v>
   <v type="int" >        2       30       64       69       70 </v>
   <v type="int" >        2       30       63       64       69 </v>
   <v type="int" >        2       31       36       37       70 </v>
   <v type="int" >        2       30       31       36       70 </v>
   <v type="int" >        2       30       31       64       70 </v>
   <v type="int" >        2       31       37       70       71 </v>
   <v type="int" >        2       31       65       70       71 </v>
   <v type="int" >        2       31       64       65       70 </v>
   <v type="int" >        2       32       37       38       71 </v>
   <v type="int" >        2       31       32       37       71 </v>
   <v type="int" >        2       31       32       65       71 </v>
   <v type="int" >        2       32       38       71       72 </v>
   <v type="int" >        2       32       66       71       72 </v>
   <v type="int" >        2       32       65       66       71 </v>
   <v type="int" >        2       27       33       38       72 </v>
   <v type="int" >        2       27       32       38       72 </v>
   <v type="int" >        2       27       32       66       72 </v>
   <v type="int" >        2       27       33       67       72 </v>
   <v type="int" >        2       27       61       67       72 </v>
   <v type="int" >        2       27       61       66       72 </v>
   <v type="int" >        2       34       39       40       73 </v>
   <v type="int" >        2       33       34       39       73 </v>
   <v type="int" >        2       33       34       67       73 </v>
   <v type="int" >        2       34       40       73       74 </v>
   <v type="int" >        2       34       68       73       74 </v>
   <v type="int" >        2       34       67       68       73 </v>
   <v type="int" >        2       35       40       41       74 </v>
   <v type="int" >        2       34       35       40       74 </v>
   <v type="int" >        2       34       35       68       74 </v>
   <v type="int" >        2       35       41       74       75 </v>
   <v type="int" >        2       35       69       74       75 </v>
   <v type="int" >        2       35       68       69       74 </v>
   <v type="int" >        2       36       41       42       75 </v>
   <v type="int" >        2       35       36       41       75 </v>
   <v type="int" >        2       35       36       69       75 </v>
   <v type="int" >        2       36       42       75       76 </v>
   <v type="int" >        2       36       70       75       76 </v>
   <v type="int" >        2       36       69       70       75 </v>
   <v type="int" >        2       37       42       43       76 </v>
   <v type="int" >        2       36       37       42       76 </v>
   <v type="int" >        2       36       37       70       76 </v>
   <v type="int" >        2       37       43       75       76 </v>
   <v type="int" >        2       37       71       75       76 </v>
   <v type="int" >        2       37       70       71       76 </v>
   <v type="int" >        2       38       43       44       75 </v>
   <v type="int" >        2       37       38       43       75 </v>
   <v type="int" >        2       37       38       71       75 </v>
   <v type="int" >        2       38       44       74       75 </v>
   <v type="int" >        2       38       72       74       75 </v>
   <v type="int" >        2       38       71       72       75 </v>
   <v type="int" >        2       33       39       44       74 </v>
   <v type="int" >        2       33       38       44       74 </v>
   <v type="int" >        2       33       38       72       74 </v>
   <v type="int" >        2       33       39       73       74 </v>
   <v type="int" >        2       33       67       73       74 </v>
   <v type="int" >        2       33       67       72       74 </v>
   <v type="int" >        2       40       45       46       67 </v>
   <v type="int" >        2       39       40       45       67 </v>
   <v type="int" >        2       39       40       67       73 </v>
   <v type="int" >        2       40       46       67       72 </v>
   <v type="int" >        2       40       67       72       74 </v>
   <v type="int" >        2       40       67       73       74 </v>
   <v type="int" >        2       41       46       47       72 </v>
   <v type="int" >        2       40       41       46       72 </v>
   <v type="int" >        2       40       41       72       74 </v>
   <v type="int" >        2       41       47       71       72 </v>
   <v type="int" >        2       41       71       72       75 </v>
   <v type="int" >        2       41       72       74       75 </v>
   <v type="int" >        2       42       47       48       71 </v>
   <v type="int" >        2       41       42       47       71 </v>
   <v type="int" >        2       41       42       71       75 </v>
   <v type="int" >        2       42       48       70       71 </v>
   <v type="int" >        2       42       70       71       76 </v>
   <v type="int" >        2       42       71       75       76 </v>
   <v type="int" >        2       43       48       49       70 </v>
   <v type="int" >        2       42       43       48       70 </v>
   <v type="int" >        2       42       43       70       76 </v>
   <v type="int" >        2       43       49       69       70 </v>
   <v type="int" >        2       43       69       70       75 </v>
   <v type="int" >        2       43       70       75       76 </v>
   <v type="int" >        2       44       49       50       69 </v>
   <v type="int" >        2       43       44       49       69 </v>
   <v type="int" >        2       43       44       69       75 </v>
   <v type="int" >        2       44       50       68       69 </v>
   <v type="int" >        2       44       68       69       74 </v>
   <v type="int" >        2       44       69       74       75 </v>
   <v type="int" >        2       39       45       50       68 </v>
   <v type="int" >        2       39       44       50       68 </v>
   <v type="int" >        2       39       44       68       74 </v>
   <v type="int" >        2       39       45       67       68 </v>
   <v type="int" >        2       39       67       68       73 </v>
   <v type="int" >        2       39       68       73       74 </v>
   <v type="int" >        2       46       51       52       61 </v>
   <v type="int" >        2       45       46       51       61 </v>
   <v type="int" >        2       45       46       61       67 </v>
   <v type="int" >        2       46       52       61       66 </v>
   <v type="int" >        2       46       61       66       72 </v>
   <v type="int" >        2       46       61       67       72 </v>
   <v type="int" >        2       47       52       53       66 </v>
   <v type="int" >        2       46       47       52       66 </v>
   <v type="int" >        2       46       47       66       72 </v>
   <v type="int" >        2       47       53       65       66 </v>
   <v type="int" >        2       47       65       66       71 </v>
   <v type="int" >        2       47       66       71       72 </v>
   <v type="int" >        2       48       53       54       65 </v>
   <v type="int" >        2       47       48       53       65 </v>
   <v type="int" >        2       47       48       65       71 </v>
   <v type="int" >        2       48       54       64       65 </v>
   <v type="int" >        2       48       64       65       70 </v>
   <v type="int" >        2       48       65       70       71 </v>
   <v type="int" >        2       49       54       55       64 </v>
   <v type="int" >        2       48       49       54       64 </v>
   <v type="int" >        2       48       49       64       70 </v>
   <v type="int" >        2       49       55       63       64 </v>
   <v type="int" >        2       49       63       64       69 </v>
   <v type="int" >        2       49       64       69       70 </v>
   <v type="int" >        2       50       55       56       63 </v>
   <v type="int" >        2       49       50       55       63 </v>
   <v type="int" >        2       49       50       63       69 </v>
   <v type="int" >        2       50       56       62       63 </v>
   <v type="int" >        2       50       62       63       68 </v>
   <v type="int" >        2       50       63       68       69 </v>
   <v type="int" >        2       45       51       56       62 </v>
   <v type="int" >        2       45       50       56       62 </v>
   <v type="int" >        2       45       50       62       68 </v>
   <v type="int" >        2       45       51       61       62 </v>
   <v type="int" >        2       45       61       62       67 </v>
   <v type="int" >        2       45       62       67       68 </v>
   <v type="int" >        2       21       22       52       57 </v>
   <v type="int" >        2       21       51       52       57 </v>
   <v type="int" >        2       51       52       57       61 </v>
   <v type="int" >        2       22       52       57       58 </v>
   <v type="int" >        2       52       57       58       66 </v>
   <v type="int" >        2       52       57       61       66 </v>
   <v type="int" >        2       22       23       53       58 </v>
   <v type="int" >        2       22       52       53       58 </v>
   <v type="int" >        2       52       53       58       66 </v>
   <v type="int" >        2       23       53       58       59 </v>
   <v type="int" >        2       53       58       59       65 </v>
   <v type="int" >        2       53       58       65       66 </v>
   <v type="int" >        2       23       24       54       59 </v>
   <v type="int" >        2       23       53       54       59 </v>
   <v type="int" >        2       53       54       59       65 </v>
   <v type="int" >        2       24       54       59       60 </v>
   <v type="int" >        2       54       59       60       64 </v>
   <v type="int" >        2       54       59       64       65 </v>
   <v type="int" >        2       24       25       55       60 </v>
   <v type="int" >        2       24       54       55       60 </v>
   <v type="int" >        2       54       55       60       64 </v>
   <v type="int" >        2       25       55       59       60 </v>
   <v type="int" >        2       55       59       60       63 </v>
   <v type="int" >        2       55       60       63       64 </v>
   <v type="int" >        2       25       26       56       59 </v>
   <v type="int" >        2       25       55       56       59 </v>
   <v type="int" >        2       55       56       59       63 </v>
   <v type="int" >        2       26       56       58       59 </v>
   <v type="int" >        2       56       58       59       62 </v>
   <v type="int" >        2       56       59       62       63 </v>
   <v type="int" >        2       21       26       51       58 </v>
   <v type="int" >        2       26       51       56       58 </v>
   <v type="int" >        2       51       56       58       62 </v>
   <v type="int" >        2       21       51       57       58 </v>
   <v type="int" >        2       51       57       58       61 </v>
   <v type="int" >        2       51       58       61       62 </v>
  </varray>
  <i name="volumeweight">      0.00115741 </i>
 </kpoints>
 <parameters>
  <separator name="general" >
   <i type="string" name="SYSTEM">graphite</i>
   <i type="logical" name="LCOMPAT"> F  </i>
  </separator>
  <separator name="electronic" >
   <i type="string" name="PREC">accura</i>
   <i name="ENMAX">    800.00000000</i>
   <i name="ENAUG">    644.87300000</i>
   <i name="EDIFF">      0.00000001</i>
   <i type="int" name="IALGO">    38</i>
   <i type="int" name="IWAVPR">    10</i>
   <i type="int" name="NBANDS">    84</i>
   <i name="NELECT">    128.00000000</i>
   <i type="int" name="TURBO">     0</i>
   <i type="int" name="IRESTART">     0</i>
   <i type="int" name="NREBOOT">     0</i>
   <i type="int" name="NMIN">     0</i>
   <i name="EREF">      0.00000000</i>
   <separator name="electronic smearing" >
    <i type="int" name="ISMEAR">    -5</i>
    <i name="SIGMA">      0.20000000</i>
    <i name="KSPACING">      0.50000000</i>
    <i type="logical" name="KGAMMA"> T  </i>
   </separator>
   <separator name="electronic projectors" >
    <i type="logical" name="LREAL"> F  </i>
    <v name="ROPT">      0.00000000</v>
    <i type="int" name="LMAXPAW">  -100</i>
    <i type="int" name="LMAXMIX">     2</i>
    <i type="logical" name="NLSPLINE"> F  </i>
   </separator>
   <separator name="electronic startup" >
    <i type="int" name="ISTART">     0</i>
    <i type="int" name="ICHARG">     2</i>
    <i type="int" name="INIWAV">     1</i>
   </separator>
   <separator name="electronic spin" >
    <i type="int" name="ISPIN">     1</i>
    <i type="logical" name="LNONCOLLINEAR"> F  </i>
    <v name="MAGMOM">      1.00000000      1.00000000      1.00000000      1.00000000      1.00000000      1.00000000      1.00000000      1.00000000      1.00000000      1.00000000      1.00000000      1.00000000      1.00000000      1.00000000      1.00000000      1.00000000      1.00000000      1.00000000      1.00000000      1.00000000
      1.00000000      1.00000000      1.00000000      1.00000000      1.00000000      1.00000000      1.00000000      1.00000000      1.00000000      1.00000000      1.00000000      1.00000000</v>
    <i name="NUPDOWN">     -1.00000000</i>
    <i type="logical" name="LSORBIT"> F  </i>
    <v name="SAXIS">      0.00000000      0.00000000      1.00000000</v>
    <i type="logical" name="LSPIRAL"> F  </i>
    <v name="QSPIRAL">      0.00000000      0.00000000      0.00000000</v>
    <i type="logical" name="LZEROZ"> F  </i>
   </separator>
   <separator name="electronic exchange-correlation" >
    <i type="logical" name="LASPH"> F  </i>
    <i type="logical" name="LMETAGGA"> F  </i>
   </separator>
   <separator name="electronic convergence" >
    <i type="int" name="NELM">   200</i>
    <i type="int" name="NELMDL">     0</i>
    <i type="int" name="NELMIN">     2</i>
    <i name="ENINI">    800.00000000</i>
    <separator name="electronic convergence detail" >
     <i type="logical" name="LDIAG"> T  </i>
     <i type="logical" name="LSUBROT"> F  </i>
     <i name="WEIMIN">      0.00000000</i>
     <i name="EBREAK">      0.00000000</i>
     <i name="DEPER">      0.30000000</i>
     <i type="int" name="NRMM">     4</i>
     <i name="TIME">      0.40000000</i>
    </separator>
   </separator>
   <separator name="electronic mixer" >
    <i name="AMIX">      0.40000000</i>
    <i name="BMIX">      1.00000000</i>
    <i name="AMIN">      0.10000000</i>
    <i name="AMIX_MAG">      1.60000000</i>
    <i name="BMIX_MAG">      1.00000000</i>
    <separator name="electronic mixer details" >
     <i type="int" name="IMIX">     4</i>
     <i type="int" name="MAXMIX">   -45</i>
     <i name="WC">    100.00000000</i>
     <i type="int" name="INIMIX">     1</i>
     <i type="int" name="MIXPRE">     1</i>
     <i type="int" name="MREMOVE">     5</i>
    </separator>
   </separator>
   <separator name="electronic dipolcorrection" >
    <i type="logical" name="LDIPOL"> F  </i>
    <i type="logical" name="LMONO"> F  </i>
    <i type="int" name="IDIPOL">     0</i>
    <i name="EPSILON">      1.00000000</i>
    <v name="DIPOL">   -100.00000000   -100.00000000   -100.00000000</v>
    <i name="EFIELD">      0.00000000</i>
   </separator>
  </separator>
  <separator name="grids" >
   <i type="int" name="NGX">    48</i>
   <i type="int" name="NGY">    48</i>
   <i type="int" name="NGZ">   120</i>
   <i type="int" name="NGXF">    96</i>
   <i type="int" name="NGYF">    96</i>
   <i type="int" name="NGZF">   240</i>
   <i type="logical" name="ADDGRID"> F  </i>
  </separator>
  <separator name="ionic" >
   <i type="int" name="NSW">     0</i>
   <i type="int" name="IBRION">    -1</i>
   <i type="int" name="ISIF">     2</i>
   <i name="PSTRESS">      0.00000000</i>
   <i name="EDIFFG">      0.00100000</i>
   <i type="int" name="NFREE">     0</i>
   <i name="POTIM">      0.50000000</i>
   <i name="SMASS">     -3.00000000</i>
   <i name="SCALEE">      1.00000000</i>
  </separator>
  <separator name="ionic md" >
   <i name="TEBEG">      0.00010000</i>
   <i name="TEEND">      0.00010000</i>
   <i type="int" name="NBLOCK">     1</i>
   <i type="int" name="KBLOCK">     1</i>
   <i type="int" name="NPACO">   256</i>
   <i name="APACO">     16.00000000</i>
  </separator>
  <separator name="symmetry" >
   <i type="int" name="ISYM">     2</i>
   <i name="SYMPREC">      0.00001000</i>
  </separator>
  <separator name="dos" >
   <i type="logical" name="LORBIT"> F  </i>
   <v name="RWIGS">     -1.00000000</v>
   <i type="int" name="NEDOS">   301</i>
   <i name="EMIN">     10.00000000</i>
   <i name="EMAX">    -10.00000000</i>
   <i name="EFERMI">      0.00000000</i>
  </separator>
  <separator name="writing" >
   <i type="int" name="NWRITE">     2</i>
   <i type="logical" name="LWAVE"> F  </i>
   <i type="logical" name="LCHARG"> F  </i>
   <i type="logical" name="LPARD"> F  </i>
   <i type="logical" name="LVTOT"> F  </i>
   <i type="logical" name="LVHAR"> F  </i>
   <i type="logical" name="LELF"> F  </i>
   <i type="logical" name="LOPTICS"> F  </i>
   <v name="STM">      0.00000000      0.00000000      0.00000000      0.00000000      0.00000000      0.00000000      0.00000000</v>
  </separator>
  <separator name="performance" >
   <i type="int" name="NPAR">     6</i>
   <i type="int" name="NSIM">     4</i>
   <i type="int" name="NBLK">    -1</i>
   <i type="logical" name="LPLANE"> T  </i>
   <i type="logical" name="LSCALAPACK"> T  </i>
   <i type="logical" name="LSCAAWARE"> F  </i>
   <i type="logical" name="LSCALU"> F  </i>
   <i type="logical" name="LASYNC"> F  </i>
   <i type="logical" name="LORBITALREAL"> F  </i>
  </separator>
  <separator name="miscellaneous" >
   <i type="int" name="IDIOT">     3</i>
   <i type="logical" name="LMUSIC"> F  </i>
   <v name="POMASS">     12.01100000</v>
   <v name="DARWINR">      0.00000000</v>
   <v name="DARWINV">      1.00000000</v>
   <i type="logical" name="LCORR"> T  </i>
  </separator>
  <i type="logical" name="GGA_COMPAT"> T  </i>
  <i type="logical" name="LBERRY"> F  </i>
  <i type="int" name="ICORELEVEL">     0</i>
  <i type="logical" name="LDAU"> F  </i>
  <i type="int" name="I_CONSTRAINED_M">     0</i>
  <separator name="electronic exchange-correlation" >
   <i type="string" name="GGA">PE</i>
   <i type="int" name="VOSKOWN">     0</i>
   <i type="logical" name="LHFCALC"> F  </i>
   <i type="string" name="PRECFOCK"></i>
   <i type="logical" name="LSYMGRAD"> F  </i>
   <i type="logical" name="LHFONE"> F  </i>
   <i type="logical" name="LRHFCALC"> F  </i>
   <i type="logical" name="LTHOMAS"> F  </i>
   <i type="logical" name="LMODELHF"> F  </i>
   <i name="ENCUT4O">     -1.00000000</i>
   <i type="int" name="EXXOEP">     0</i>
   <i type="int" name="FOURORBIT">     0</i>
   <i name="AEXX">      0.00000000</i>
   <i name="HFALPHA">      0.00000000</i>
   <i name="MCALPHA">      0.00000000</i>
   <i name="ALDAX">      1.00000000</i>
   <i name="AGGAX">      1.00000000</i>
   <i name="ALDAC">      1.00000000</i>
   <i name="AGGAC">      1.00000000</i>
   <i type="int" name="NKREDX">     1</i>
   <i type="int" name="NKREDY">     1</i>
   <i type="int" name="NKREDZ">     1</i>
   <i type="logical" name="SHIFTRED"> F  </i>
   <i type="logical" name="ODDONLY"> F  </i>
   <i type="logical" name="EVENONLY"> F  </i>
   <i type="int" name="LMAXFOCK">     0</i>
   <i type="int" name="NMAXFOCKAE">     0</i>
   <i type="logical" name="LFOCKAEDFT"> F  </i>
   <i name="HFSCREEN">      0.00000000</i>
   <i name="HFSCREENC">      0.00000000</i>
   <i type="int" name="NBANDSGWLOW">     0</i>
  </separator>
  <separator name="vdW DFT" >
   <i type="logical" name="LUSE_VDW"> F  </i>
   <i name="Zab_VDW">     -0.84910000</i>
   <i name="PARAM1">      0.12340000</i>
   <i name="PARAM2">      1.00000000</i>
   <i name="PARAM3">      0.00000000</i>
  </separator>
  <separator name="model GW" >
   <i type="int" name="MODEL_GW">     0</i>
   <i name="MODEL_EPS0">      5.08120520</i>
   <i name="MODEL_ALPHA">      1.00000000</i>
  </separator>
  <separator name="linear response parameters" >
   <i type="logical" name="LEPSILON"> F  </i>
   <i type="logical" name="LRPA"> F  </i>
   <i type="logical" name="LNABLA"> F  </i>
   <i type="logical" name="LVEL"> F  </i>
   <i type="int" name="KINTER">     0</i>
   <i name="CSHIFT">      0.10000000</i>
   <i name="OMEGAMAX">     -1.00000000</i>
   <i name="DEG_THRESHOLD">      0.00200000</i>
  </separator>
  <separator name="orbital magnetization" >
   <i type="logical" name="NUCIND"> F  </i>
   <v name="MAGPOS">      0.00000000      0.00000000      0.00000000</v>
   <i type="logical" name="LNICSALL"> T  </i>
   <i type="logical" name="ORBITALMAG"> F  </i>
   <i type="logical" name="LMAGBLOCH"> F  </i>
   <i type="logical" name="LCHIMAG"> F  </i>
   <i type="logical" name="LGAUGE"> T  </i>
   <i type="int" name="MAGATOM">     0</i>
   <v name="MAGDIPOL">      0.00000000      0.00000000      0.00000000</v>
   <v name="AVECCONST">      0.00000000      0.00000000      0.00000000</v>
  </separator>
  <separator name="response functions" >
   <i type="logical" name="LADDER"> F  </i>
   <i type="logical" name="LFXC"> F  </i>
   <i type="logical" name="LHARTREE"> T  </i>
   <i type="int" name="IBSE">     0</i>
   <i type="logical" name="LTCTE"> F  </i>
   <i type="logical" name="LTETE"> F  </i>
   <i type="logical" name="LTRIPLET"> F  </i>
   <i type="logical" name="LFXCEPS"> F  </i>
   <i type="logical" name="LFXHEG"> F  </i>
   <i type="logical" name="L2ORDER"> F  </i>
   <i type="logical" name="LUSEW"> F  </i>
   <i name="ENCUTGW">     -2.00000000</i>
   <i name="ENCUTGWSOFT">     -2.00000000</i>
   <i name="ENCUTLF">     -1.00000000</i>
   <i type="int" name="LMAXMP2">    -1</i>
   <i name="SCISSOR">      0.00000000</i>
   <i type="int" name="NOMEGA">     0</i>
   <i type="int" name="NOMEGAR">     0</i>
   <i type="int" name="NBANDSGW">    -1</i>
   <i type="int" name="NBANDSO">    -1</i>
   <i type="int" name="NBANDSV">    -1</i>
   <i type="int" name="NELM">   200</i>
   <i type="int" name="DIM">     3</i>
   <i type="int" name="ANTIRES">     0</i>
   <i name="OMEGAMAX">    -30.00000000</i>
   <i name="OMEGAMIN">    -30.00000000</i>
   <i name="OMEGATL">   -200.00000000</i>
   <i type="int" name="OMEGAGRID">     0</i>
   <i name="CSHIFT">     -0.10000000</i>
   <i type="logical" name="SELFENERGY"> F  </i>
   <i type="logical" name="LSPECTRAL"> F  </i>
   <i type="logical" name="ODDONLYGW"> F  </i>
   <i type="logical" name="EVENONLYGW"> F  </i>
   <i type="int" name="NKREDLFX">     1</i>
   <i type="int" name="NKREDLFY">     1</i>
   <i type="int" name="NKREDLFZ">     1</i>
   <i type="int" name="MAXMEM">  1800</i>
   <i type="int" name="TELESCOPE">     0</i>
   <i type="int" name="TAUPAR">     1</i>
  </separator>
  <separator name="External order field" >
   <i name="OFIELD_KAPPA">      0.00000000</i>
   <v name="OFIELD_K">      0.00000000      0.00000000      0.00000000</v>
   <i name="OFIELD_Q6_NEAR">      0.00000000</i>
   <i name="OFIELD_Q6_FAR">      0.00000000</i>
   <i name="OFIELD_A">      0.00000000</i>
  </separator>
 </parameters>
 <atominfo>
  <atoms>      32 </atoms>
  <types>       1 </types>
  <array name="atoms" >
   <dimension dim="1">ion</dimension>
   <field type="string">element</field>
   <field type="int">atomtype</field>
   <set>
    <rc><c>C </c><c>   1</c></rc>
    <rc><c>C </c><c>   1</c></rc>
    <rc><c>C </c><c>   1</c></rc>
    <rc><c>C </c><c>   1</c></rc>
    <rc><c>C </c><c>   1</c></rc>
    <rc><c>C </c><c>   1</c></rc>
    <rc><c>C </c><c>   1</c></rc>
    <rc><c>C </c><c>   1</c></rc>
    <rc><c>C </c><c>   1</c></rc>
    <rc><c>C </c><c>   1</c></rc>
    <rc><c>C </c><c>   1</c></rc>
    <rc><c>C </c><c>   1</c></rc>
    <rc><c>C </c><c>   1</c></rc>
    <rc><c>C </c><c>   1</c></rc>
    <rc><c>C </c><c>   1</c></rc>
    <rc><c>C </c><c>   1</c></rc>
    <rc><c>C </c><c>   1</c></rc>
    <rc><c>C </c><c>   1</c></rc>
    <rc><c>C </c><c>   1</c></rc>
    <rc><c>C </c><c>   1</c></rc>
    <rc><c>C </c><c>   1</c></rc>
    <rc><c>C </c><c>   1</c></rc>
    <rc><c>C </c><c>   1</c></rc>
    <rc><c>C </c><c>   1</c></rc>
    <rc><c>C </c><c>   1</c></rc>
    <rc><c>C </c><c>   1</c></rc>
    <rc><c>C </c><c>   1</c></rc>
    <rc><c>C </c><c>   1</c></rc>
    <rc><c>C </c><c>   1</c></rc>
    <rc><c>C </c><c>   1</c></rc>
    <rc><c>C </c><c>   1</c></rc>
    <rc><c>C </c><c>   1</c></rc>
   </set>
  </array>
  <array name="atomtypes" >
   <dimension dim="1">type</dimension>
   <field type="int">atomspertype</field>
   <field type="string">element</field>
   <field>mass</field>
   <field>valence</field>
   <field type="string">pseudopotential</field>
   <set>
    <rc><c>  32</c><c>C </c><c>     12.01100000</c><c>      4.00000000</c><c> PAW_PBE C 08Apr2002                    </c></rc>
   </set>
  </array>
 </atominfo>
 <structure name="initialpos" >
  <crystal>
   <varray name="basis" >
    <v>       4.93287450      -0.00191929       0.00000000 </v>
    <v>      -2.46809940       4.27103499       0.00000000 </v>
    <v>       0.00000000       0.00000000      12.86559641 </v>
   </varray>
   <i name="volume">    270.99761089 </i>
   <varray name="rec_basis" >
    <v>       0.20276715       0.11717288       0.00000000 </v>
    <v>       0.00009112       0.23418794       0.00000000 </v>
    <v>       0.00000000       0.00000000       0.07772667 </v>
   </varray>
  </crystal>
  <varray name="positions" >
   <v>       0.50039905       0.00032672       0.12572575 </v>
   <v>       0.99967330       0.00032672       0.12500000 </v>
   <v>       0.49967330       0.50032672       0.12500000 </v>
   <v>       0.99967330       0.50032672       0.12500000 </v>
   <v>       0.49967330       0.00032672       0.62500000 </v>
   <v>       0.99967330       0.00032672       0.62500000 </v>
   <v>       0.49967330       0.50032672       0.62500000 </v>
   <v>       0.99967330       0.50032672       0.62500000 </v>
   <v>       0.00032672       0.49967330       0.37500000 </v>
   <v>       0.50032672       0.49967330       0.37500000 </v>
   <v>       0.00032672       0.99967330       0.37500000 </v>
   <v>       0.50032672       0.99967330       0.37500000 </v>
   <v>       0.00032672       0.49967330       0.87500000 </v>
   <v>       0.50032672       0.49967330       0.87500000 </v>
   <v>       0.00032672       0.99967330       0.87500000 </v>
   <v>       0.50032672       0.99967330       0.87500000 </v>
   <v>       0.16629246       0.33370753       0.12500000 </v>
   <v>       0.66629246       0.33370753       0.12500000 </v>
   <v>       0.16629246       0.83370753       0.12500000 </v>
   <v>       0.66629246       0.83370753       0.12500000 </v>
   <v>       0.16629246       0.33370753       0.62500000 </v>
   <v>       0.66629246       0.33370753       0.62500000 </v>
   <v>       0.16629246       0.83370753       0.62500000 </v>
   <v>       0.66629246       0.83370753       0.62500000 </v>
   <v>       0.33370753       0.16629246       0.37500000 </v>
   <v>       0.83370753       0.16629246       0.37500000 </v>
   <v>       0.33370753       0.66629246       0.37500000 </v>
   <v>       0.83370753       0.66629246       0.37500000 </v>
   <v>       0.33370753       0.16629246       0.87500000 </v>
   <v>       0.83370753       0.16629246       0.87500000 </v>
   <v>       0.33370753       0.66629246       0.87500000 </v>
   <v>       0.83370753       0.66629246       0.87500000 </v>
  </varray>
 </structure>
 <calculation>
  <scstep>
   <time name="dav">  220.67  330.50</time>
   <time name="total">  221.91  332.14</time>
   <energy>
    <i name="alphaZ">    307.88348157 </i>
    <i name="ewald">  -3888.95920286 </i>
    <i name="hartreedc">  -1059.44326621 </i>
    <i name="XCdc">    443.75038986 </i>
    <i name="pawpsdc">   1210.60617908 </i>
    <i name="pawaedc">  -1247.42152856 </i>
    <i name="eentropy">      0.00000000 </i>
    <i name="bandstr">    212.74806443 </i>
    <i name="atom">   4708.94155045 </i>
    <i name="e_fr_energy">    688.10566776 </i>
    <i name="e_wo_entrp">    688.10566776 </i>
    <i name="e_0_energy">    688.10566776 </i>
   </energy>
  </scstep>
  <scstep>
   <time name="dav">  257.81  389.37</time>
   <time name="total">  257.91  389.55</time>
   <energy>
    <i name="e_fr_energy">   -256.56690977 </i>
    <i name="e_wo_entrp">   -256.56690977 </i>
    <i name="e_0_energy">   -256.56690977 </i>
   </energy>
  </scstep>
  <scstep>
   <time name="dav">  256.44  391.79</time>
   <time name="total">  256.48  391.87</time>
   <energy>
    <i name="e_fr_energy">   -312.05056784 </i>
    <i name="e_wo_entrp">   -312.05056784 </i>
    <i name="e_0_energy">   -312.05056784 </i>
   </energy>
  </scstep>
  <scstep>
   <time name="dav">  260.76  392.24</time>
   <time name="total">  260.84  392.36</time>
   <energy>
    <i name="e_fr_energy">   -313.11907890 </i>
    <i name="e_wo_entrp">   -313.11907890 </i>
    <i name="e_0_energy">   -313.11907890 </i>
   </energy>
  </scstep>
  <scstep>
   <time name="dav">  258.76  394.39</time>
   <time name="total">  264.97  404.04</time>
   <energy>
    <i name="e_fr_energy">   -313.14920813 </i>
    <i name="e_wo_entrp">   -313.14920813 </i>
    <i name="e_0_energy">   -313.14920813 </i>
   </energy>
  </scstep>
  <scstep>
   <time name="dav">  244.14  370.26</time>
   <time name="total">  251.44  381.49</time>
   <energy>
    <i name="e_fr_energy">   -298.92461063 </i>
    <i name="e_wo_entrp">   -298.92461063 </i>
    <i name="e_0_energy">   -298.92461063 </i>
   </energy>
  </scstep>
  <scstep>
   <time name="dav">  246.49  374.52</time>
   <time name="total">  253.19  385.11</time>
   <energy>
    <i name="e_fr_energy">   -294.45613344 </i>
    <i name="e_wo_entrp">   -294.45613344 </i>
    <i name="e_0_energy">   -294.45613344 </i>
   </energy>
  </scstep>
  <scstep>
   <time name="dav">  247.32  370.76</time>
   <time name="total">  254.45  381.96</time>
   <energy>
    <i name="e_fr_energy">   -294.51374397 </i>
    <i name="e_wo_entrp">   -294.51374397 </i>
    <i name="e_0_energy">   -294.51374397 </i>
   </energy>
  </scstep>
  <scstep>
   <time name="dav">  247.86  381.34</time>
   <time name="total">  255.61  392.34</time>
   <energy>
    <i name="e_fr_energy">   -294.51295093 </i>
    <i name="e_wo_entrp">   -294.51295093 </i>
    <i name="e_0_energy">   -294.51295093 </i>
   </energy>
  </scstep>
  <scstep>
   <time name="dav">  250.77  381.70</time>
   <time name="total">  258.48  393.14</time>
   <energy>
    <i name="e_fr_energy">   -294.51122483 </i>
    <i name="e_wo_entrp">   -294.51122483 </i>
    <i name="e_0_energy">   -294.51122483 </i>
   </energy>
  </scstep>
  <scstep>
   <time name="dav">  264.85  478.05</time>
   <time name="total">  272.20  493.33</time>
   <energy>
    <i name="e_fr_energy">   -294.51184642 </i>
    <i name="e_wo_entrp">   -294.51184642 </i>
    <i name="e_0_energy">   -294.51184642 </i>
   </energy>
  </scstep>
  <scstep>
   <time name="dav">  239.98  480.21</time>
   <time name="total">  247.09  494.43</time>
   <energy>
    <i name="e_fr_energy">   -294.51191036 </i>
    <i name="e_wo_entrp">   -294.51191036 </i>
    <i name="e_0_energy">   -294.51191036 </i>
   </energy>
  </scstep>
  <scstep>
   <time name="dav">  262.85  525.96</time>
   <time name="total">  269.49  539.25</time>
   <energy>
    <i name="e_fr_energy">   -294.51183128 </i>
    <i name="e_wo_entrp">   -294.51183128 </i>
    <i name="e_0_energy">   -294.51183128 </i>
   </energy>
  </scstep>
  <scstep>
   <time name="dav">  247.10  494.46</time>
   <time name="total">  253.69  507.63</time>
   <energy>
    <i name="e_fr_energy">   -294.51201750 </i>
    <i name="e_wo_entrp">   -294.51201750 </i>
    <i name="e_0_energy">   -294.51201750 </i>
   </energy>
  </scstep>
  <scstep>
   <time name="dav">  266.86  533.96</time>
   <time name="total">  273.61  547.49</time>
   <energy>
    <i name="e_fr_energy">   -294.51207681 </i>
    <i name="e_wo_entrp">   -294.51207681 </i>
    <i name="e_0_energy">   -294.51207681 </i>
   </energy>
  </scstep>
  <scstep>
   <time name="dav">  256.80  513.80</time>
   <time name="total">  263.31  526.80</time>
   <energy>
    <i name="e_fr_energy">   -294.51193434 </i>
    <i name="e_wo_entrp">   -294.51193434 </i>
    <i name="e_0_energy">   -294.51193434 </i>
   </energy>
  </scstep>
  <scstep>
   <time name="dav">  270.53  541.33</time>
   <time name="total">  277.33  554.95</time>
   <energy>
    <i name="e_fr_energy">   -294.51193283 </i>
    <i name="e_wo_entrp">   -294.51193283 </i>
    <i name="e_0_energy">   -294.51193283 </i>
   </energy>
  </scstep>
  <scstep>
   <time name="dav">  237.80  475.84</time>
   <time name="total">  244.51  489.27</time>
   <energy>
    <i name="e_fr_energy">   -294.51192990 </i>
    <i name="e_wo_entrp">   -294.51192990 </i>
    <i name="e_0_energy">   -294.51192990 </i>
   </energy>
  </scstep>
  <scstep>
   <time name="dav">  280.49  561.17</time>
   <time name="total">  287.05  574.29</time>
   <energy>
    <i name="e_fr_energy">   -294.51192990 </i>
    <i name="e_wo_entrp">   -294.51192990 </i>
    <i name="e_0_energy">   -294.51192990 </i>
   </energy>
  </scstep>
  <scstep>
   <time name="dav">  238.64  477.51</time>
   <time name="total">  245.69  491.64</time>
   <energy>
    <i name="e_fr_energy">   -294.51192829 </i>
    <i name="e_wo_entrp">   -294.51192829 </i>
    <i name="e_0_energy">   -294.51192829 </i>
   </energy>
  </scstep>
  <scstep>
   <time name="dav">  248.76  497.78</time>
   <time name="total">  255.51  511.28</time>
   <energy>
    <i name="e_fr_energy">   -294.51192786 </i>
    <i name="e_wo_entrp">   -294.51192786 </i>
    <i name="e_0_energy">   -294.51192786 </i>
   </energy>
  </scstep>
  <scstep>
   <time name="dav">  236.91  474.06</time>
   <time name="total">  244.03  488.29</time>
   <energy>
    <i name="e_fr_energy">   -294.51192785 </i>
    <i name="e_wo_entrp">   -294.51192785 </i>
    <i name="e_0_energy">   -294.51192785 </i>
   </energy>
  </scstep>
  <scstep>
   <time name="dav">  195.33  390.85</time>
   <time name="total">  202.57  405.34</time>
   <energy>
    <i name="e_fr_energy">   -294.51192782 </i>
    <i name="e_wo_entrp">   -294.51192782 </i>
    <i name="e_0_energy">   -294.51192782 </i>
   </energy>
  </scstep>
  <scstep>
   <time name="dav">  177.87  355.93</time>
   <time name="total">  184.70  369.60</time>
   <energy>
    <i name="e_fr_energy">   -294.51192781 </i>
    <i name="e_wo_entrp">   -294.51192781 </i>
    <i name="e_0_energy">   -294.51192781 </i>
   </energy>
  </scstep>
  <scstep>
   <time name="dav">  181.55  363.26</time>
   <time name="total">  182.48  365.13</time>
   <energy>
    <i name="alphaZ">    307.88348157 </i>
    <i name="ewald">  -3888.95920286 </i>
    <i name="hartreedc">  -1325.02615667 </i>
    <i name="XCdc">    461.53761648 </i>
    <i name="pawpsdc">   2223.66361153 </i>
    <i name="pawaedc">  -2264.88708429 </i>
    <i name="eentropy">      0.00000000 </i>
    <i name="bandstr">   -517.66574402 </i>
    <i name="atom">   4708.94155045 </i>
    <i name="e_fr_energy">   -294.51192781 </i>
    <i name="e_wo_entrp">   -294.51192781 </i>
    <i name="e_0_energy">   -294.51192781 </i>
   </energy>
  </scstep>
  <structure>
   <crystal>
    <varray name="basis" >
     <v>       4.93287450      -0.00191929       0.00000000 </v>
     <v>      -2.46809940       4.27103499       0.00000000 </v>
     <v>       0.00000000       0.00000000      12.86559641 </v>
    </varray>
    <i name="volume">    270.99761089 </i>
    <varray name="rec_basis" >
     <v>       0.20276715       0.11717288       0.00000000 </v>
     <v>       0.00009112       0.23418794       0.00000000 </v>
     <v>       0.00000000       0.00000000       0.07772667 </v>
    </varray>
   </crystal>
   <varray name="positions" >
    <v>       0.50039905       0.00032672       0.12572575 </v>
    <v>       0.99967330       0.00032672       0.12500000 </v>
    <v>       0.49967330       0.50032672       0.12500000 </v>
    <v>       0.99967330       0.50032672       0.12500000 </v>
    <v>       0.49967330       0.00032672       0.62500000 </v>
    <v>       0.99967330       0.00032672       0.62500000 </v>
    <v>       0.49967330       0.50032672       0.62500000 </v>
    <v>       0.99967330       0.50032672       0.62500000 </v>
    <v>       0.00032672       0.49967330       0.37500000 </v>
    <v>       0.50032672       0.49967330       0.37500000 </v>
    <v>       0.00032672       0.99967330       0.37500000 </v>
    <v>       0.50032672       0.99967330       0.37500000 </v>
    <v>       0.00032672       0.49967330       0.87500000 </v>
    <v>       0.50032672       0.49967330       0.87500000 </v>
    <v>       0.00032672       0.99967330       0.87500000 </v>
    <v>       0.50032672       0.99967330       0.87500000 </v>
    <v>       0.16629246       0.33370753       0.12500000 </v>
    <v>       0.66629246       0.33370753       0.12500000 </v>
    <v>       0.16629246       0.83370753       0.12500000 </v>
    <v>       0.66629246       0.83370753       0.12500000 </v>
    <v>       0.16629246       0.33370753       0.62500000 </v>
    <v>       0.66629246       0.33370753       0.62500000 </v>
    <v>       0.16629246       0.83370753       0.62500000 </v>
    <v>       0.66629246       0.83370753       0.62500000 </v>
    <v>       0.33370753       0.16629246       0.37500000 </v>
    <v>       0.83370753       0.16629246       0.37500000 </v>
    <v>       0.33370753       0.66629246       0.37500000 </v>
    <v>       0.83370753       0.66629246       0.37500000 </v>
    <v>       0.33370753       0.16629246       0.87500000 </v>
    <v>       0.83370753       0.16629246       0.87500000 </v>
    <v>       0.33370753       0.66629246       0.87500000 </v>
    <v>       0.83370753       0.66629246       0.87500000 </v>
   </varray>
  </structure>
  <varray name="forces" >
   <v>      -0.23190899       0.00802111      -0.13108227 </v>
   <v>       0.02906871       0.00695656      -0.00070831 </v>
   <v>      -0.00917208      -0.01513502      -0.00063720 </v>
   <v>      -0.00929002       0.02918497      -0.00086484 </v>
   <v>      -0.01257211       0.00682424       0.00591440 </v>
   <v>      -0.01252504       0.00682575       0.00597835 </v>
   <v>      -0.01254598       0.00681279       0.00597827 </v>
   <v>      -0.01254449       0.00683621       0.00597873 </v>
   <v>       0.01184917      -0.00731675      -0.00604173 </v>
   <v>       0.01152942      -0.00742339      -0.00616051 </v>
   <v>       0.01177977      -0.00708755      -0.00609843 </v>
   <v>       0.01156910      -0.00729174      -0.00515911 </v>
   <v>       0.01219615      -0.00624950      -0.00621721 </v>
   <v>       0.01247652      -0.00633310      -0.00610703 </v>
   <v>       0.01240512      -0.00654626      -0.00616470 </v>
   <v>       0.01220127      -0.00639138      -0.00500627 </v>
   <v>       0.00790492      -0.00553884       0.01175539 </v>
   <v>       0.03634865      -0.00625118       0.04574144 </v>
   <v>       0.08334141       0.02147261       0.04617194 </v>
   <v>       0.08364104      -0.03288683       0.04522926 </v>
   <v>       0.01005054      -0.00543265      -0.00090036 </v>
   <v>       0.01005235      -0.00543212      -0.00086914 </v>
   <v>       0.01005230      -0.00543313      -0.00086975 </v>
   <v>       0.01005211      -0.00543297      -0.00086570 </v>
   <v>      -0.00994640       0.00607978       0.00162235 </v>
   <v>      -0.00897424       0.00622811       0.00168555 </v>
   <v>      -0.00958993       0.00532945       0.00166207 </v>
   <v>      -0.00935417       0.00587255       0.00057525 </v>
   <v>      -0.00911154       0.00462324       0.00168259 </v>
   <v>      -0.00990406       0.00478279       0.00158826 </v>
   <v>      -0.00964931       0.00539599       0.00160751 </v>
   <v>      -0.00943019       0.00493626       0.00058118 </v>
  </varray>
  <varray name="stress" >
   <v>      -4.85950514       2.76805180      -0.04659038 </v>
   <v>       2.76805180      -1.48879252       0.03828095 </v>
   <v>      -0.04659040       0.03828094      17.95125976 </v>
  </varray>
  <energy>
   <i name="e_fr_energy">   -299.76964438 </i>
   <i name="e_wo_entrp">   -299.76964438 </i>
   <i name="e_0_energy">      0.00000000 </i>
  </energy>
  <time name="totalsc"> 6335.0511395.88</time>
  <eigenvalues>
   <array>
    <dimension dim="1">band</dimension>
    <dimension dim="2">kpoint</dimension>
    <dimension dim="3">spin</dimension>
    <field>eigene</field>
    <field>occ</field>
    <set>
     <set comment="spin 1">
      <set comment="kpoint 1">
       <r>  -14.6267    1.0000 </r>
       <r>  -14.4298    1.0000 </r>
       <r>  -14.4292    1.0000 </r>
       <r>  -14.2140    1.0000 </r>
       <r>   -9.2756    1.0000 </r>
       <r>   -9.2676    1.0000 </r>
       <r>   -9.2652    1.0000 </r>
       <r>   -9.1886    1.0000 </r>
       <r>   -9.1881    1.0000 </r>
       <r>   -9.1805    1.0000 </r>
       <r>   -9.1768    1.0000 </r>
       <r>   -9.1768    1.0000 </r>
       <r>   -9.1746    1.0000 </r>
       <r>   -9.1216    1.0000 </r>
       <r>   -9.1105    1.0000 </r>
       <r>   -9.1071    1.0000 </r>
       <r>   -8.1808    1.0000 </r>
       <r>   -8.1775    1.0000 </r>
       <r>   -8.1754    1.0000 </r>
       <r>   -8.1434    1.0000 </r>
       <r>   -8.1397    1.0000 </r>
       <r>   -8.1377    1.0000 </r>
       <r>   -8.1371    1.0000 </r>
       <r>   -8.1370    1.0000 </r>
       <r>   -8.1333    1.0000 </r>
       <r>   -8.0653    1.0000 </r>
       <r>   -8.0603    1.0000 </r>
       <r>   -8.0583    1.0000 </r>
       <r>   -3.6376    1.0000 </r>
       <r>   -2.5566    1.0000 </r>
       <r>   -2.5547    1.0000 </r>
       <r>   -1.3570    1.0000 </r>
       <r>   -1.3542    1.0000 </r>
       <r>   -1.3349    1.0000 </r>
       <r>   -1.3177    1.0000 </r>
       <r>   -1.3136    1.0000 </r>
       <r>   -1.3136    1.0000 </r>
       <r>   -1.3127    1.0000 </r>
       <r>   -1.2949    1.0000 </r>
       <r>   -1.2924    1.0000 </r>
       <r>   -1.2739    1.0000 </r>
       <r>   -1.2715    1.0000 </r>
       <r>   -1.2520    1.0000 </r>
       <r>   -1.2166    1.0000 </r>
       <r>    2.0437    1.0000 </r>
       <r>    2.0580    1.0000 </r>
       <r>    2.0638    1.0000 </r>
       <r>    2.0678    1.0000 </r>
       <r>    2.0762    1.0000 </r>
       <r>    2.0799    1.0000 </r>
       <r>    2.0850    1.0000 </r>
       <r>    2.0989    1.0000 </r>
       <r>    2.1694    1.0000 </r>
       <r>    2.1711    1.0000 </r>
       <r>    2.1723    1.0000 </r>
       <r>    2.6948    1.0000 </r>
       <r>    2.6973    1.0000 </r>
       <r>    2.6990    1.0000 </r>
       <r>    2.7031    1.0000 </r>
       <r>    2.7035    1.0000 </r>
       <r>    2.7054    1.0000 </r>
       <r>    3.0076    1.0000 </r>
       <r>    3.0239    1.0000 </r>
       <r>    3.0268    1.0000 </r>
       <r>    6.5988    0.0000 </r>
       <r>    6.6021    0.0000 </r>
       <r>    6.6047    0.0000 </r>
       <r>    6.6956    0.0000 </r>
       <r>    6.7012    0.0000 </r>
       <r>    6.7057    0.0000 </r>
       <r>    6.7067    0.0000 </r>
       <r>    6.7071    0.0000 </r>
       <r>    6.7126    0.0000 </r>
       <r>    7.3601    0.0000 </r>
       <r>    7.3739    0.0000 </r>
       <r>    7.3763    0.0000 </r>
       <r>    9.7504    0.0000 </r>
       <r>   12.1866    0.0000 </r>
       <r>   12.1906    0.0000 </r>
       <r>   12.2239    0.0000 </r>
       <r>   12.4468    0.0000 </r>
       <r>   12.4493    0.0000 </r>
       <r>   12.4515    0.0000 </r>
       <r>   12.4805    0.0000 </r>
      </set>
      <set comment="kpoint 2">
       <r>  -14.4606    1.0000 </r>
       <r>  -14.2654    1.0000 </r>
       <r>  -14.2648    1.0000 </r>
       <r>  -14.0518    1.0000 </r>
       <r>  -10.5938    1.0000 </r>
       <r>  -10.4419    1.0000 </r>
       <r>  -10.4414    1.0000 </r>
       <r>  -10.2796    1.0000 </r>
       <r>   -9.7168    1.0000 </r>
       <r>   -9.7099    1.0000 </r>
       <r>   -9.5822    1.0000 </r>
       <r>   -9.5816    1.0000 </r>
       <r>   -9.5747    1.0000 </r>
       <r>   -9.5741    1.0000 </r>
       <r>   -9.4414    1.0000 </r>
       <r>   -9.4336    1.0000 </r>
       <r>   -7.5865    1.0000 </r>
       <r>   -7.5786    1.0000 </r>
       <r>   -7.4804    1.0000 </r>
       <r>   -7.4777    1.0000 </r>
       <r>   -7.4709    1.0000 </r>
       <r>   -7.4706    1.0000 </r>
       <r>   -7.3610    1.0000 </r>
       <r>   -7.3527    1.0000 </r>
       <r>   -6.7403    1.0000 </r>
       <r>   -6.6296    1.0000 </r>
       <r>   -6.6280    1.0000 </r>
       <r>   -6.5107    1.0000 </r>
       <r>   -3.4359    1.0000 </r>
       <r>   -2.3612    1.0000 </r>
       <r>   -2.3593    1.0000 </r>
       <r>   -1.8498    1.0000 </r>
       <r>   -1.8307    1.0000 </r>
       <r>   -1.8000    1.0000 </r>
       <r>   -1.7996    1.0000 </r>
       <r>   -1.7818    1.0000 </r>
       <r>   -1.7793    1.0000 </r>
       <r>   -1.7486    1.0000 </r>
       <r>   -1.7294    1.0000 </r>
       <r>   -1.1934    1.0000 </r>
       <r>   -1.1542    1.0000 </r>
       <r>   -1.1512    1.0000 </r>
       <r>   -1.1117    1.0000 </r>
       <r>   -1.0305    1.0000 </r>
       <r>    1.0458    1.0000 </r>
       <r>    1.4004    1.0000 </r>
       <r>    1.4239    1.0000 </r>
       <r>    1.4283    1.0000 </r>
       <r>    1.4520    1.0000 </r>
       <r>    1.7039    1.0000 </r>
       <r>    1.7239    1.0000 </r>
       <r>    1.7290    1.0000 </r>
       <r>    1.7485    1.0000 </r>
       <r>    1.8539    1.0000 </r>
       <r>    1.8565    1.0000 </r>
       <r>    1.9284    1.0000 </r>
       <r>    1.9306    1.0000 </r>
       <r>    2.5873    1.0000 </r>
       <r>    2.5893    1.0000 </r>
       <r>    2.5933    1.0000 </r>
       <r>    2.5960    1.0000 </r>
       <r>    2.7237    1.0000 </r>
       <r>    3.1530    1.0000 </r>
       <r>    3.1660    1.0000 </r>
       <r>    6.7268    0.0000 </r>
       <r>    6.7292    0.0000 </r>
       <r>    6.9770    0.0000 </r>
       <r>    6.9825    0.0000 </r>
       <r>    6.9873    0.0000 </r>
       <r>    6.9892    0.0000 </r>
       <r>    7.3477    0.0000 </r>
       <r>    7.6397    0.0000 </r>
       <r>    7.6493    0.0000 </r>
       <r>    7.8080    0.0000 </r>
       <r>    7.8116    0.0000 </r>
       <r>    8.5581    0.0000 </r>
       <r>    9.9459    0.0000 </r>
       <r>   12.2819    0.0000 </r>
       <r>   12.5327    0.0000 </r>
       <r>   12.5345    0.0000 </r>
       <r>   12.7897    0.0000 </r>
       <r>   12.8740    0.0000 </r>
       <r>   12.8791    0.0000 </r>
       <r>   12.9237    0.0000 </r>
      </set>
      <set comment="kpoint 3">
       <r>  -13.9639    1.0000 </r>
       <r>  -13.7741    1.0000 </r>
       <r>  -13.7735    1.0000 </r>
       <r>  -13.5669    1.0000 </r>
       <r>  -12.0093    1.0000 </r>
       <r>  -11.8404    1.0000 </r>
       <r>  -11.8399    1.0000 </r>
       <r>  -11.6582    1.0000 </r>
       <r>  -10.1430    1.0000 </r>
       <r>  -10.1394    1.0000 </r>
       <r>   -9.9972    1.0000 </r>
       <r>   -9.9960    1.0000 </r>
       <r>   -9.9929    1.0000 </r>
       <r>   -9.9922    1.0000 </r>
       <r>   -9.8407    1.0000 </r>
       <r>   -9.8369    1.0000 </r>
       <r>   -6.4114    1.0000 </r>
       <r>   -6.4006    1.0000 </r>
       <r>   -6.3111    1.0000 </r>
       <r>   -6.3084    1.0000 </r>
       <r>   -6.2993    1.0000 </r>
       <r>   -6.2987    1.0000 </r>
       <r>   -6.2029    1.0000 </r>
       <r>   -6.1924    1.0000 </r>
       <r>   -4.6184    1.0000 </r>
       <r>   -4.5260    1.0000 </r>
       <r>   -4.5241    1.0000 </r>
       <r>   -4.4278    1.0000 </r>
       <r>   -3.0112    1.0000 </r>
       <r>   -2.9953    1.0000 </r>
       <r>   -2.9475    1.0000 </r>
       <r>   -2.9472    1.0000 </r>
       <r>   -2.9324    1.0000 </r>
       <r>   -2.9299    1.0000 </r>
       <r>   -2.8801    1.0000 </r>
       <r>   -2.8639    1.0000 </r>
       <r>   -2.8348    1.0000 </r>
       <r>   -1.7804    1.0000 </r>
       <r>   -1.7785    1.0000 </r>
       <r>   -0.7190    1.0000 </r>
       <r>   -0.6815    1.0000 </r>
       <r>   -0.6783    1.0000 </r>
       <r>   -0.6405    1.0000 </r>
       <r>   -0.5179    1.0000 </r>
       <r>   -0.4790    1.0000 </r>
       <r>   -0.2621    1.0000 </r>
       <r>   -0.2167    1.0000 </r>
       <r>   -0.2131    1.0000 </r>
       <r>   -0.1674    1.0000 </r>
       <r>    0.4327    1.0000 </r>
       <r>    0.4348    1.0000 </r>
       <r>    0.9027    1.0000 </r>
       <r>    0.9311    1.0000 </r>
       <r>    0.9356    1.0000 </r>
       <r>    0.9643    1.0000 </r>
       <r>    1.5692    1.0000 </r>
       <r>    1.6057    1.0000 </r>
       <r>    1.6082    1.0000 </r>
       <r>    2.3983    1.0000 </r>
       <r>    2.3995    1.0000 </r>
       <r>    2.4020    1.0000 </r>
       <r>    2.4050    1.0000 </r>
       <r>    3.2572    1.0000 </r>
       <r>    3.2636    1.0000 </r>
       <r>    7.1632    0.0000 </r>
       <r>    7.1681    0.0000 </r>
       <r>    7.5547    0.0000 </r>
       <r>    7.5599    0.0000 </r>
       <r>    7.5632    0.0000 </r>
       <r>    7.5650    0.0000 </r>
       <r>    8.0868    0.0000 </r>
       <r>    8.0909    0.0000 </r>
       <r>    9.4626    0.0000 </r>
       <r>    9.9472    0.0000 </r>
       <r>    9.9501    0.0000 </r>
       <r>   10.5337    0.0000 </r>
       <r>   10.5906    0.0000 </r>
       <r>   12.5035    0.0000 </r>
       <r>   12.7710    0.0000 </r>
       <r>   12.7732    0.0000 </r>
       <r>   12.7869    0.0000 </r>
       <r>   13.1549    0.0000 </r>
       <r>   13.1576    0.0000 </r>
       <r>   13.2180    0.0000 </r>
      </set>
      <set comment="kpoint 4">
       <r>  -13.1442    1.0000 </r>
       <r>  -13.1413    1.0000 </r>
       <r>  -12.9644    1.0000 </r>
       <r>  -12.9613    1.0000 </r>
       <r>  -12.9613    1.0000 </r>
       <r>  -12.9585    1.0000 </r>
       <r>  -12.7664    1.0000 </r>
       <r>  -12.7634    1.0000 </r>
       <r>  -10.2925    1.0000 </r>
       <r>  -10.2907    1.0000 </r>
       <r>  -10.1444    1.0000 </r>
       <r>  -10.1423    1.0000 </r>
       <r>  -10.1422    1.0000 </r>
       <r>  -10.1407    1.0000 </r>
       <r>   -9.9845    1.0000 </r>
       <r>   -9.9826    1.0000 </r>
       <r>   -5.4868    1.0000 </r>
       <r>   -5.4844    1.0000 </r>
       <r>   -5.4319    1.0000 </r>
       <r>   -5.4276    1.0000 </r>
       <r>   -5.4269    1.0000 </r>
       <r>   -5.4269    1.0000 </r>
       <r>   -5.3764    1.0000 </r>
       <r>   -5.3745    1.0000 </r>
       <r>   -3.8833    1.0000 </r>
       <r>   -3.8821    1.0000 </r>
       <r>   -3.8498    1.0000 </r>
       <r>   -3.8498    1.0000 </r>
       <r>   -3.8486    1.0000 </r>
       <r>   -3.8457    1.0000 </r>
       <r>   -3.8025    1.0000 </r>
       <r>   -3.8008    1.0000 </r>
       <r>   -2.3899    1.0000 </r>
       <r>   -2.3870    1.0000 </r>
       <r>   -2.3200    1.0000 </r>
       <r>   -2.3193    1.0000 </r>
       <r>   -2.3192    1.0000 </r>
       <r>   -2.3136    1.0000 </r>
       <r>   -2.2467    1.0000 </r>
       <r>   -2.2432    1.0000 </r>
       <r>   -1.8507    1.0000 </r>
       <r>   -1.8484    1.0000 </r>
       <r>   -0.8346    1.0000 </r>
       <r>   -0.8309    1.0000 </r>
       <r>   -0.8308    1.0000 </r>
       <r>   -0.8283    1.0000 </r>
       <r>    0.0136    1.0000 </r>
       <r>    0.0201    1.0000 </r>
       <r>    0.0470    1.0000 </r>
       <r>    0.0553    1.0000 </r>
       <r>    0.0553    1.0000 </r>
       <r>    0.0566    1.0000 </r>
       <r>    0.0881    1.0000 </r>
       <r>    0.0921    1.0000 </r>
       <r>    0.4105    1.0000 </r>
       <r>    0.4133    1.0000 </r>
       <r>    1.4803    1.0000 </r>
       <r>    1.4822    1.0000 </r>
       <r>    2.3138    1.0000 </r>
       <r>    2.3153    1.0000 </r>
       <r>    2.3158    1.0000 </r>
       <r>    2.3197    1.0000 </r>
       <r>    3.2686    1.0000 </r>
       <r>    3.2712    1.0000 </r>
       <r>    7.4749    0.0000 </r>
       <r>    7.4776    0.0000 </r>
       <r>    7.8607    0.0000 </r>
       <r>    7.8661    0.0000 </r>
       <r>    7.8668    0.0000 </r>
       <r>    7.8680    0.0000 </r>
       <r>    8.2534    0.0000 </r>
       <r>    8.2565    0.0000 </r>
[...]
       <r>   -3.8243    1.0000 </r>
       <r>   -3.8218    1.0000 </r>
       <r>   -3.8204    1.0000 </r>
       <r>   -3.8204    1.0000 </r>
       <r>   -2.3883    1.0000 </r>
       <r>   -2.3821    1.0000 </r>
       <r>   -2.3821    1.0000 </r>
       <r>   -2.3817    1.0000 </r>
       <r>   -2.2863    1.0000 </r>
       <r>   -2.2808    1.0000 </r>
       <r>   -2.2807    1.0000 </r>
       <r>   -2.2803    1.0000 </r>
       <r>   -1.5711    1.0000 </r>
       <r>   -1.5689    1.0000 </r>
       <r>   -1.5688    1.0000 </r>
       <r>   -1.5657    1.0000 </r>
       <r>    0.0087    1.0000 </r>
       <r>    0.0112    1.0000 </r>
       <r>    0.0114    1.0000 </r>
       <r>    0.0149    1.0000 </r>
       <r>    0.0444    1.0000 </r>
       <r>    0.0461    1.0000 </r>
       <r>    0.0461    1.0000 </r>
       <r>    0.0533    1.0000 </r>
       <r>    0.0954    1.0000 </r>
       <r>    0.0969    1.0000 </r>
       <r>    0.0969    1.0000 </r>
       <r>    0.1069    1.0000 </r>
       <r>    1.7177    1.0000 </r>
       <r>    1.7211    1.0000 </r>
       <r>    1.7214    1.0000 </r>
       <r>    1.7227    1.0000 </r>
       <r>    2.9752    1.0000 </r>
       <r>    2.9794    1.0000 </r>
       <r>    2.9797    1.0000 </r>
       <r>    2.9810    1.0000 </r>
       <r>    7.5957    0.0000 </r>
       <r>    7.5968    0.0000 </r>
       <r>    7.5971    0.0000 </r>
       <r>    7.6015    0.0000 </r>
       <r>    8.1303    0.0000 </r>
       <r>    8.1313    0.0000 </r>
       <r>    8.1317    0.0000 </r>
       <r>    8.1372    0.0000 </r>
       <r>   11.8895    0.0000 </r>
       <r>   11.8998    0.0000 </r>
       <r>   11.9019    0.0000 </r>
       <r>   11.9096    0.0000 </r>
       <r>   12.3468    0.0000 </r>
       <r>   12.3586    0.0000 </r>
       <r>   12.3605    0.0000 </r>
       <r>   12.3698    0.0000 </r>
       <r>   12.5578    0.0000 </r>
       <r>   12.5609    0.0000 </r>
       <r>   12.5614    0.0000 </r>
       <r>   12.5648    0.0000 </r>
      </set>
     </set>
    </set>
   </array>
  </eigenvalues>
  <separator name="orbital magnetization" >
   <v name="MAGDIPOLOUT">      0.00000000      0.00000000      0.00000000</v>
  </separator>
  <dos>
   <i name="efermi">      5.04087868 </i>
   <total>
    <array>
     <dimension dim="1">gridpoints</dimension>
     <dimension dim="2">spin</dimension>
     <field>energy</field>
     <field>total</field>
     <field>integrated</field>
     <set>
      <set comment="spin 1">
       <r>   -16.6267     0.0000     0.0000 </r>
       <r>   -16.5162     0.0000     0.0000 </r>
       <r>   -16.4056     0.0000     0.0000 </r>
       <r>   -16.2950     0.0000     0.0000 </r>
       <r>   -16.1844     0.0000     0.0000 </r>
       <r>   -16.0739     0.0000     0.0000 </r>
       <r>   -15.9633     0.0000     0.0000 </r>
       <r>   -15.8527     0.0000     0.0000 </r>
       <r>   -15.7422     0.0000     0.0000 </r>
       <r>   -15.6316     0.0000     0.0000 </r>
       <r>   -15.5210     0.0000     0.0000 </r>
       <r>   -15.4105     0.0000     0.0000 </r>
       <r>   -15.2999     0.0000     0.0000 </r>
       <r>   -15.1893     0.0000     0.0000 </r>
       <r>   -15.0787     0.0000     0.0000 </r>
       <r>   -14.9682     0.0000     0.0000 </r>
       <r>   -14.8576     0.0000     0.0000 </r>
       <r>   -14.7470     0.0000     0.0000 </r>
       <r>   -14.6365     0.0000     0.0000 </r>
       <r>   -14.5259     1.0596     0.0415 </r>
       <r>   -14.4153     2.2339     0.2486 </r>
       <r>   -14.3047     3.0085     0.5350 </r>
       <r>   -14.1942     4.3126     0.9300 </r>
       <r>   -14.0836     5.2643     1.4766 </r>
       <r>   -13.9730     4.8603     2.0208 </r>
       <r>   -13.8625     4.9326     2.5615 </r>
       <r>   -13.7519     4.9890     3.1108 </r>
       <r>   -13.6413     4.9373     3.6588 </r>
       <r>   -13.5307     5.1292     4.2120 </r>
       <r>   -13.4202     6.5356     4.8336 </r>
       <r>   -13.3096     7.1479     5.5967 </r>
       <r>   -13.1990     6.6530     6.3650 </r>
       <r>   -13.0885     7.1701     7.0988 </r>
       <r>   -12.9779     2.4306     7.5516 </r>
       <r>   -12.8673     1.8457     7.7816 </r>
       <r>   -12.7567     1.9191     7.9832 </r>
       <r>   -12.6462     2.3928     8.2211 </r>
       <r>   -12.5356     5.0951     8.5702 </r>
       <r>   -12.4250     6.4151     9.4715 </r>
       <r>   -12.3145     7.1837    10.2069 </r>
       <r>   -12.2039     6.7710    11.0054 </r>
       <r>   -12.0933     4.0833    11.5783 </r>
       <r>   -11.9827     4.2149    12.0368 </r>
       <r>   -11.8722     4.3927    12.5125 </r>
       <r>   -11.7616     4.5794    13.0084 </r>
       <r>   -11.6510     4.7492    13.5246 </r>
       <r>   -11.5405     4.8874    14.0574 </r>
       <r>   -11.4299     5.1915    14.6187 </r>
       <r>   -11.3193     5.4208    15.2076 </r>
       <r>   -11.2088     5.9252    15.8276 </r>
       <r>   -11.0982     5.9555    16.5024 </r>
       <r>   -10.9876     5.6981    17.1455 </r>
       <r>   -10.8770     5.6334    17.7686 </r>
       <r>   -10.7665     5.8080    18.4012 </r>
       <r>   -10.6559     5.9830    19.0530 </r>
       <r>   -10.5453     5.8496    19.7144 </r>
       <r>   -10.4348     5.7684    20.3556 </r>
       <r>   -10.3242     5.7163    20.9899 </r>
       <r>   -10.2136     5.2367    21.6049 </r>
       <r>   -10.1030     3.9751    22.1144 </r>
       <r>    -9.9925     3.8330    22.5316 </r>
       <r>    -9.8819     4.6527    23.0041 </r>
       <r>    -9.7713     4.9550    23.5391 </r>
       <r>    -9.6608     6.0704    24.1288 </r>
       <r>    -9.5502     7.4925    24.8667 </r>
       <r>    -9.4396    10.8910    25.8427 </r>
       <r>    -9.3290     9.0656    26.9774 </r>
       <r>    -9.2185     6.6731    27.8460 </r>
       <r>    -9.1079     4.9474    28.4758 </r>
       <r>    -8.9973     4.4203    28.9937 </r>
       <r>    -8.8868     3.8932    29.4533 </r>
       <r>    -8.7762     5.1485    30.0763 </r>
       <r>    -8.6656     4.8541    30.5985 </r>
       <r>    -8.5550     1.9756    30.9933 </r>
       <r>    -8.4445     1.7608    31.1999 </r>
       <r>    -8.3339     1.5458    31.3827 </r>
       <r>    -8.2233     1.3309    31.5418 </r>
       <r>    -8.1128     1.3788    31.6844 </r>
       <r>    -8.0022     1.8565    31.8622 </r>
       <r>    -7.8916     2.3614    32.0954 </r>
       <r>    -7.7810     2.8661    32.3844 </r>
       <r>    -7.6705     6.4020    32.8520 </r>
       <r>    -7.5599     8.6118    33.8621 </r>
       <r>    -7.4493     5.0481    34.5655 </r>
       <r>    -7.3388     5.2923    35.1375 </r>
       <r>    -7.2282     6.5248    35.7909 </r>
       <r>    -7.1176     7.7572    36.5804 </r>
       <r>    -7.0070     8.9897    37.5063 </r>
       <r>    -6.8965     8.4415    38.5243 </r>
       <r>    -6.7859     6.7439    39.3690 </r>
       <r>    -6.6753     5.5931    40.0065 </r>
       <r>    -6.5648     5.5343    40.6214 </r>
       <r>    -6.4542     5.4807    41.2329 </r>
       <r>    -6.3436     5.3114    41.8298 </r>
       <r>    -6.2331     5.1209    42.4062 </r>
       <r>    -6.1225     4.9924    42.9650 </r>
       <r>    -6.0119     4.8734    43.5104 </r>
       <r>    -5.9013     4.7545    44.0427 </r>
       <r>    -5.7908     4.6356    44.5618 </r>
       <r>    -5.6802     4.5168    45.0678 </r>
       <r>    -5.5696     4.3958    45.5606 </r>
       <r>    -5.4591     4.3407    46.0410 </r>
       <r>    -5.3485     5.0029    46.5567 </r>
       <r>    -5.2379     5.6176    47.1439 </r>
       <r>    -5.1273     6.2323    47.7990 </r>
       <r>    -5.0168     6.8470    48.5221 </r>
       <r>    -4.9062     7.4618    49.3132 </r>
       <r>    -4.7956     8.0767    50.1722 </r>
       <r>    -4.6851     8.6915    51.0993 </r>
       <r>    -4.5745     6.7147    52.0135 </r>
       <r>    -4.4639     4.3170    52.6089 </r>
       <r>    -4.3533     6.5008    53.2294 </r>
       <r>    -4.2428     6.3047    53.9822 </r>
       <r>    -4.1322     4.7528    54.5936 </r>
       <r>    -4.0216     3.2006    55.0333 </r>
       <r>    -3.9111     1.6479    55.3013 </r>
       <r>    -3.8005     1.3861    55.4372 </r>
       <r>    -3.6899     3.0145    55.6805 </r>
       <r>    -3.5793     4.7334    56.1056 </r>
       <r>    -3.4688     7.6603    56.7528 </r>
       <r>    -3.3582    11.1682    57.8062 </r>
       <r>    -3.2476    12.9190    59.2011 </r>
       <r>    -3.1371    12.4760    60.6324 </r>
       <r>    -3.0265     7.6040    61.7884 </r>
       <r>    -2.9159     5.0993    62.4061 </r>
       <r>    -2.8053     5.8409    63.0012 </r>
       <r>    -2.6948     6.8672    63.7047 </r>
       <r>    -2.5842    10.2267    64.5863 </r>
       <r>    -2.4736    16.2624    66.0500 </r>
       <r>    -2.3631    14.2946    68.2457 </r>
       <r>    -2.2525     7.7689    69.5156 </r>
       <r>    -2.1419     7.3535    70.3603 </r>
       <r>    -2.0314     7.3970    71.1741 </r>
       <r>    -1.9208     7.8112    72.0080 </r>
       <r>    -1.8102     9.5524    72.9447 </r>
       <r>    -1.6996    15.2120    74.4234 </r>
       <r>    -1.5891    11.9112    75.9097 </r>
       <r>    -1.4785     8.8670    77.0445 </r>
       <r>    -1.3679    24.2187    78.5521 </r>
       <r>    -1.2574    16.6218    81.4000 </r>
       <r>    -1.1468    18.3452    83.6367 </r>
       <r>    -1.0362    15.1499    85.4291 </r>
       <r>    -0.9256    15.2361    87.1184 </r>
       <r>    -0.8151    13.0155    88.7536 </r>
       <r>    -0.7045     8.7145    89.8889 </r>
       <r>    -0.5939     6.9061    90.7284 </r>
       <r>    -0.4834     7.3460    91.5037 </r>
       <r>    -0.3728     8.2410    92.3607 </r>
       <r>    -0.2622     9.5325    93.3402 </r>
       <r>    -0.1516    10.7717    94.4719 </r>
       <r>    -0.0411    12.1388    95.7108 </r>
       <r>     0.0695    20.3912    97.3699 </r>
       <r>     0.1801    12.0092    98.9571 </r>
       <r>     0.2906    12.7586   100.3193 </r>
       <r>     0.4012    10.0058   101.6063 </r>
       <r>     0.5118     8.9467   102.6397 </r>
       <r>     0.6224     9.2512   103.6345 </r>
       <r>     0.7329     8.8270   104.6353 </r>
       <r>     0.8435     8.7644   105.6064 </r>
       <r>     0.9541    10.6952   106.6428 </r>
       <r>     1.0646     9.7708   107.7749 </r>
       <r>     1.1752     9.7164   108.8541 </r>
       <r>     1.2858     9.6582   109.9249 </r>
       <r>     1.3964     9.7265   110.9920 </r>
       <r>     1.5069    10.2560   112.1161 </r>
       <r>     1.6175     9.2527   113.2016 </r>
       <r>     1.7281     9.5158   114.1919 </r>
       <r>     1.8386    10.0792   115.3140 </r>
       <r>     1.9492     8.9659   116.3743 </r>
       <r>     2.0598     8.0005   117.3176 </r>
       <r>     2.1703     6.4600   118.1255 </r>
       <r>     2.2809     4.9247   118.7444 </r>
       <r>     2.3915     3.7007   119.2317 </r>
       <r>     2.5021     2.9502   119.5871 </r>
       <r>     2.6126     3.4492   119.9220 </r>
       <r>     2.7232     4.1215   120.3567 </r>
       <r>     2.8338     6.3874   120.9494 </r>
       <r>     2.9443     8.5219   121.7890 </r>
       <r>     3.0549     7.8540   122.6829 </r>
       <r>     3.1655     6.8421   123.5156 </r>
       <r>     3.2761     7.1287   124.3273 </r>
       <r>     3.3866     5.3329   125.0088 </r>
       <r>     3.4972     4.1843   125.5292 </r>
       <r>     3.6078     3.4569   125.9474 </r>
       <r>     3.7183     3.0408   126.3067 </r>
       <r>     3.8289     2.6136   126.6188 </r>
       <r>     3.9395     2.2348   126.8864 </r>
       <r>     4.0501     1.9335   127.1166 </r>
       <r>     4.1606     1.6593   127.3148 </r>
       <r>     4.2712     1.4278   127.4848 </r>
       <r>     4.3818     1.1924   127.6299 </r>
       <r>     4.4923     0.9654   127.7490 </r>
       <r>     4.6029     0.7499   127.8438 </r>
       <r>     4.7135     0.5442   127.9152 </r>
       <r>     4.8241     0.3474   127.9644 </r>
       <r>     4.9346     0.1587   127.9923 </r>
       <r>     5.0452     0.0000   128.0000 </r>
       <r>     5.1558     0.1108   128.0055 </r>
       <r>     5.2663     0.2429   128.0249 </r>
       <r>     5.3769     0.3840   128.0595 </r>
       <r>     5.4875     0.5358   128.1103 </r>
       <r>     5.5981     0.7002   128.1785 </r>
       <r>     5.7086     0.8773   128.2655 </r>
       <r>     5.8192     1.0751   128.3733 </r>
       <r>     5.9298     1.3004   128.5042 </r>
       <r>     6.0403     1.5765   128.6631 </r>
       <r>     6.1509     2.3716   128.8756 </r>
       <r>     6.2615     2.9328   129.1694 </r>
       <r>     6.3721     3.4396   129.5230 </r>
       <r>     6.4826     3.9225   129.9252 </r>
       <r>     6.5932     6.5020   130.4735 </r>
       <r>     6.7038    14.3510   131.6070 </r>
       <r>     6.8143    10.1333   132.9559 </r>
       <r>     6.9249     8.1152   133.9454 </r>
       <r>     7.0355     6.3539   134.7267 </r>
       <r>     7.1460     5.4782   135.3796 </r>
       <r>     7.2566     4.9400   135.9500 </r>
       <r>     7.3672     4.6627   136.4850 </r>
       <r>     7.4778     4.1720   136.9748 </r>
       <r>     7.5883     3.6383   137.4047 </r>
       <r>     7.6989     3.5676   137.7979 </r>
       <r>     7.8095     3.8023   138.2036 </r>
       <r>     7.9200     4.2315   138.6473 </r>
       <r>     8.0306     4.5800   139.1357 </r>
       <r>     8.1412     4.8442   139.6570 </r>
       <r>     8.2518     4.8738   140.1983 </r>
       <r>     8.3623     4.6344   140.7227 </r>
       <r>     8.4729     4.4762   141.2259 </r>
       <r>     8.5835     4.3904   141.7164 </r>
       <r>     8.6940     4.2742   142.1951 </r>
       <r>     8.8046     4.1815   142.6625 </r>
       <r>     8.9152     4.0964   143.1201 </r>
       <r>     9.0258     4.0164   143.5685 </r>
       <r>     9.1363     3.7182   144.0019 </r>
       <r>     9.2469     3.4703   144.3974 </r>
       <r>     9.3575     3.3388   144.7728 </r>
       <r>     9.4680     3.2846   145.1387 </r>
       <r>     9.5786     3.1941   145.4972 </r>
       <r>     9.6892     3.1178   145.8456 </r>
       <r>     9.7998     3.0864   146.1875 </r>
       <r>     9.9103     3.2425   146.5356 </r>
       <r>    10.0209     3.4365   146.9074 </r>
       <r>    10.1315     3.4505   147.2895 </r>
       <r>    10.2420     3.4514   147.6696 </r>
       <r>    10.3526     3.5000   148.0539 </r>
       <r>    10.4632     3.5232   148.4426 </r>
       <r>    10.5738     3.5850   148.8318 </r>
       <r>    10.6843     4.4577   149.2922 </r>
       <r>    10.7949     4.7279   149.8009 </r>
       <r>    10.9055     4.8271   150.3305 </r>
       <r>    11.0160     4.7543   150.8622 </r>
       <r>    11.1266     4.5314   151.3768 </r>
       <r>    11.2372     4.9388   151.9024 </r>
       <r>    11.3477     6.0192   152.4933 </r>
       <r>    11.4583     6.1558   153.1735 </r>
       <r>    11.5689     3.0883   153.6280 </r>
       <r>    11.6795     2.6219   153.9361 </r>
       <r>    11.7900     2.5576   154.2226 </r>
       <r>    11.9006     2.2820   154.4927 </r>
       <r>    12.0112     2.4036   154.7478 </r>
       <r>    12.1217     2.6260   155.0229 </r>
       <r>    12.2323     3.9874   155.3656 </r>
       <r>    12.3429     5.9999   155.9811 </r>
       <r>    12.4535     5.6228   156.6019 </r>
       <r>    12.5640     7.3895   157.2984 </r>
       <r>    12.6746     9.7336   158.2490 </r>
       <r>    12.7852    12.8975   159.4894 </r>
       <r>    12.8957    15.2103   161.0792 </r>
       <r>    13.0063    15.4276   162.7662 </r>
       <r>    13.1169    11.6982   164.2887 </r>
       <r>    13.2275     9.0980   165.3881 </r>
       <r>    13.3380    10.3923   166.4024 </r>
       <r>    13.4486     6.3065   167.5144 </r>
       <r>    13.5592     1.4213   167.8348 </r>
       <r>    13.6697     0.2808   167.9181 </r>
       <r>    13.7803     0.2143   167.9454 </r>
       <r>    13.8909     0.1568   167.9658 </r>
       <r>    14.0015     0.1082   167.9804 </r>
       <r>    14.1120     0.0687   167.9901 </r>
       <r>    14.2226     0.0380   167.9959 </r>
       <r>    14.3332     0.0164   167.9988 </r>
       <r>    14.4437     0.0037   167.9999 </r>
       <r>    14.5543     0.0000   168.0000 </r>
       <r>    14.6649     0.0000   168.0000 </r>
       <r>    14.7755     0.0000   168.0000 </r>
       <r>    14.8860     0.0000   168.0000 </r>
       <r>    14.9966     0.0000   168.0000 </r>
       <r>    15.1072     0.0000   168.0000 </r>
       <r>    15.2177     0.0000   168.0000 </r>
       <r>    15.3283     0.0000   168.0000 </r>
       <r>    15.4389     0.0000   168.0000 </r>
       <r>    15.5495     0.0000   168.0000 </r>
       <r>    15.6600     0.0000   168.0000 </r>
       <r>    15.7706     0.0000   168.0000 </r>
       <r>    15.8812     0.0000   168.0000 </r>
       <r>    15.9917     0.0000   168.0000 </r>
       <r>    16.1023     0.0000   168.0000 </r>
       <r>    16.2129     0.0000   168.0000 </r>
       <r>    16.3234     0.0000   168.0000 </r>
       <r>    16.4340     0.0000   168.0000 </r>
       <r>    16.5446     0.0000   168.0000 </r>
      </set>
     </set>
    </array>
   </total>
  </dos>
 </calculation>
 <structure name="finalpos" >
  <crystal>
   <varray name="basis" >
    <v>       4.93287450      -0.00191929       0.00000000 </v>
    <v>      -2.46809940       4.27103499       0.00000000 </v>
    <v>       0.00000000       0.00000000      12.86559641 </v>
   </varray>
   <i name="volume">    270.99761089 </i>
   <varray name="rec_basis" >
    <v>       0.20276715       0.11717288       0.00000000 </v>
    <v>       0.00009112       0.23418794       0.00000000 </v>
    <v>       0.00000000       0.00000000       0.07772667 </v>
   </varray>
  </crystal>
  <varray name="positions" >
   <v>       0.50039905       0.00032672       0.12572575 </v>
   <v>       0.99967330       0.00032672       0.12500000 </v>
   <v>       0.49967330       0.50032672       0.12500000 </v>
   <v>       0.99967330       0.50032672       0.12500000 </v>
   <v>       0.49967330       0.00032672       0.62500000 </v>
   <v>       0.99967330       0.00032672       0.62500000 </v>
   <v>       0.49967330       0.50032672       0.62500000 </v>
   <v>       0.99967330       0.50032672       0.62500000 </v>
   <v>       0.00032672       0.49967330       0.37500000 </v>
   <v>       0.50032672       0.49967330       0.37500000 </v>
   <v>       0.00032672       0.99967330       0.37500000 </v>
   <v>       0.50032672       0.99967330       0.37500000 </v>
   <v>       0.00032672       0.49967330       0.87500000 </v>
   <v>       0.50032672       0.49967330       0.87500000 </v>
   <v>       0.00032672       0.99967330       0.87500000 </v>
   <v>       0.50032672       0.99967330       0.87500000 </v>
   <v>       0.16629246       0.33370753       0.12500000 </v>
   <v>       0.66629246       0.33370753       0.12500000 </v>
   <v>       0.16629246       0.83370753       0.12500000 </v>
   <v>       0.66629246       0.83370753       0.12500000 </v>
   <v>       0.16629246       0.33370753       0.62500000 </v>
   <v>       0.66629246       0.33370753       0.62500000 </v>
   <v>       0.16629246       0.83370753       0.62500000 </v>
   <v>       0.66629246       0.83370753       0.62500000 </v>
   <v>       0.33370753       0.16629246       0.37500000 </v>
   <v>       0.83370753       0.16629246       0.37500000 </v>
   <v>       0.33370753       0.66629246       0.37500000 </v>
   <v>       0.83370753       0.66629246       0.37500000 </v>
   <v>       0.33370753       0.16629246       0.87500000 </v>
   <v>       0.83370753       0.16629246       0.87500000 </v>
   <v>       0.33370753       0.66629246       0.87500000 </v>
   <v>       0.83370753       0.66629246       0.87500000 </v>
  </varray>
 </structure>
</modeling>
