   4   4   0   0
  0.5238356E+01  0.2466437E-09  0.2466437E-09  0.3979050E-09  0.5000000E-15
  1.000000000000000E-004
  CAR 
 graphite                                
     27.05621121    -13.71999363  301     12.04295225      1.00000000
    -13.720  0.0000E+00  0.0000E+00
    -13.584  0.0000E+00  0.0000E+00
    -13.448  0.0000E+00  0.0000E+00
    -13.312  0.0000E+00  0.0000E+00
    -13.176  0.0000E+00  0.0000E+00
    -13.040  0.0000E+00  0.0000E+00
    -12.904  0.0000E+00  0.0000E+00
    -12.769  0.0000E+00  0.0000E+00
    -12.633  0.0000E+00  0.0000E+00
    -12.497  0.0000E+00  0.0000E+00
    -12.361  0.0000E+00  0.0000E+00
    -12.225  0.0000E+00  0.0000E+00
    -12.089  0.0000E+00  0.0000E+00
    -11.953  0.0000E+00  0.0000E+00
    -11.817  0.0000E+00  0.0000E+00
    -11.681  0.4841E-04  0.6263E-06
    -11.545  0.3949E-03  0.3534E-04
    -11.409  0.5459E-03  0.9889E-04
    -11.273  0.6674E-03  0.1804E-03
    -11.138  0.7859E-03  0.2804E-03
    -11.002  0.8547E-03  0.3919E-03
    -10.866  0.9463E-03  0.5140E-03
    -10.730  0.1041E-02  0.6493E-03
    -10.594  0.1104E-02  0.7953E-03
    -10.458  0.1169E-02  0.9498E-03
    -10.322  0.1236E-02  0.1113E-02
    -10.186  0.1303E-02  0.1286E-02
    -10.050  0.1359E-02  0.1467E-02
     -9.914  0.1423E-02  0.1656E-02
     -9.778  0.1480E-02  0.1853E-02
     -9.642  0.1538E-02  0.2058E-02
     -9.506  0.1589E-02  0.2271E-02
     -9.371  0.1638E-02  0.2490E-02
     -9.235  0.1688E-02  0.2716E-02
     -9.099  0.1742E-02  0.2949E-02
     -8.963  0.1799E-02  0.3190E-02
     -8.827  0.1856E-02  0.3439E-02
     -8.691  0.1899E-02  0.3694E-02
     -8.555  0.1944E-02  0.3955E-02
     -8.419  0.1991E-02  0.4222E-02
     -8.283  0.2040E-02  0.4496E-02
     -8.147  0.2092E-02  0.4777E-02
     -8.011  0.2145E-02  0.5065E-02
     -7.875  0.2191E-02  0.5360E-02
     -7.739  0.2241E-02  0.5661E-02
     -7.604  0.2292E-02  0.5969E-02
     -7.468  0.2345E-02  0.6284E-02
     -7.332  0.2399E-02  0.6606E-02
     -7.196  0.2455E-02  0.6936E-02
     -7.060  0.2514E-02  0.7274E-02
     -6.924  0.2571E-02  0.7620E-02
     -6.788  0.2634E-02  0.7973E-02
     -6.652  0.2703E-02  0.8336E-02
     -6.516  0.2785E-02  0.8709E-02
     -6.380  0.2917E-02  0.9096E-02
     -6.244  0.3138E-02  0.9503E-02
     -6.108  0.3349E-02  0.9950E-02
     -5.973  0.3331E-02  0.1040E-01
     -5.837  0.3500E-02  0.1086E-01
     -5.701  0.3277E-02  0.1133E-01
     -5.565  0.3192E-02  0.1177E-01
     -5.429  0.3103E-02  0.1220E-01
     -5.293  0.2986E-02  0.1261E-01
     -5.157  0.2910E-02  0.1301E-01
     -5.021  0.2937E-02  0.1341E-01
     -4.885  0.2836E-02  0.1380E-01
     -4.749  0.2862E-02  0.1419E-01
     -4.613  0.3170E-02  0.1459E-01
     -4.477  0.3092E-02  0.1502E-01
     -4.341  0.3238E-02  0.1545E-01
     -4.206  0.3481E-02  0.1590E-01
     -4.070  0.3702E-02  0.1641E-01
     -3.934  0.3357E-02  0.1690E-01
     -3.798  0.3217E-02  0.1734E-01
     -3.662  0.3044E-02  0.1777E-01
     -3.526  0.2926E-02  0.1817E-01
     -3.390  0.2778E-02  0.1856E-01
     -3.254  0.2935E-02  0.1895E-01
     -3.118  0.2662E-02  0.1933E-01
     -2.982  0.2655E-02  0.1968E-01
     -2.846  0.2334E-02  0.2003E-01
     -2.710  0.2281E-02  0.2034E-01
     -2.574  0.2318E-02  0.2066E-01
     -2.439  0.2483E-02  0.2098E-01
     -2.303  0.3269E-02  0.2137E-01
     -2.167  0.4009E-02  0.2186E-01
     -2.031  0.4367E-02  0.2248E-01
     -1.895  0.4106E-02  0.2304E-01
     -1.759  0.4179E-02  0.2360E-01
     -1.623  0.3652E-02  0.2414E-01
     -1.487  0.3446E-02  0.2461E-01
     -1.351  0.3426E-02  0.2508E-01
     -1.215  0.3403E-02  0.2555E-01
     -1.079  0.3237E-02  0.2600E-01
     -0.943  0.3096E-02  0.2643E-01
     -0.808  0.3155E-02  0.2685E-01
     -0.672  0.3388E-02  0.2729E-01
     -0.536  0.3809E-02  0.2778E-01
     -0.400  0.3996E-02  0.2831E-01
     -0.264  0.3999E-02  0.2886E-01
     -0.128  0.3887E-02  0.2941E-01
      0.008  0.3693E-02  0.2991E-01
      0.144  0.3813E-02  0.3042E-01
      0.280  0.3953E-02  0.3095E-01
      0.416  0.4007E-02  0.3149E-01
      0.552  0.4036E-02  0.3204E-01
      0.688  0.4140E-02  0.3259E-01
      0.824  0.4179E-02  0.3316E-01
      0.959  0.4325E-02  0.3373E-01
      1.095  0.4500E-02  0.3433E-01
      1.231  0.4486E-02  0.3494E-01
      1.367  0.4698E-02  0.3557E-01
      1.503  0.5063E-02  0.3626E-01
      1.639  0.5071E-02  0.3695E-01
      1.775  0.5019E-02  0.3764E-01
      1.911  0.4694E-02  0.3830E-01
      2.047  0.4557E-02  0.3892E-01
      2.183  0.4679E-02  0.3955E-01
      2.319  0.5249E-02  0.4022E-01
      2.455  0.5932E-02  0.4098E-01
      2.590  0.5447E-02  0.4175E-01
      2.726  0.5116E-02  0.4247E-01
      2.862  0.5505E-02  0.4319E-01
      2.998  0.5897E-02  0.4396E-01
      3.134  0.6079E-02  0.4478E-01
      3.270  0.6789E-02  0.4565E-01
      3.406  0.6315E-02  0.4654E-01
      3.542  0.6268E-02  0.4739E-01
      3.678  0.6393E-02  0.4825E-01
      3.814  0.6489E-02  0.4913E-01
      3.950  0.6725E-02  0.5002E-01
      4.086  0.6533E-02  0.5093E-01
      4.222  0.6418E-02  0.5181E-01
      4.357  0.6286E-02  0.5268E-01
      4.493  0.6352E-02  0.5354E-01
      4.629  0.6415E-02  0.5440E-01
      4.765  0.6816E-02  0.5529E-01
      4.901  0.6377E-02  0.5620E-01
      5.037  0.5549E-02  0.5701E-01
      5.173  0.5356E-02  0.5774E-01
      5.309  0.6113E-02  0.5850E-01
      5.445  0.6082E-02  0.5935E-01
      5.581  0.5751E-02  0.6015E-01
      5.717  0.5433E-02  0.6091E-01
      5.853  0.5106E-02  0.6163E-01
      5.989  0.4753E-02  0.6230E-01
      6.124  0.4458E-02  0.6292E-01
      6.260  0.4432E-02  0.6352E-01
      6.396  0.4645E-02  0.6414E-01
      6.532  0.4401E-02  0.6476E-01
      6.668  0.4108E-02  0.6534E-01
      6.804  0.3885E-02  0.6588E-01
      6.940  0.3585E-02  0.6639E-01
      7.076  0.3255E-02  0.6685E-01
      7.212  0.3108E-02  0.6728E-01
      7.348  0.2951E-02  0.6769E-01
      7.484  0.2962E-02  0.6809E-01
      7.620  0.2864E-02  0.6849E-01
      7.755  0.2794E-02  0.6887E-01
      7.891  0.2650E-02  0.6925E-01
      8.027  0.2250E-02  0.6958E-01
      8.163  0.1763E-02  0.6983E-01
      8.299  0.1842E-02  0.7008E-01
      8.435  0.1906E-02  0.7033E-01
      8.571  0.1966E-02  0.7060E-01
      8.707  0.2045E-02  0.7087E-01
      8.843  0.2145E-02  0.7115E-01
      8.979  0.2257E-02  0.7145E-01
      9.115  0.2421E-02  0.7177E-01
      9.251  0.2560E-02  0.7211E-01
      9.387  0.2660E-02  0.7246E-01
      9.522  0.2729E-02  0.7283E-01
      9.658  0.2857E-02  0.7321E-01
      9.794  0.3227E-02  0.7362E-01
      9.930  0.3406E-02  0.7407E-01
     10.066  0.3359E-02  0.7453E-01
     10.202  0.3470E-02  0.7500E-01
     10.338  0.3427E-02  0.7547E-01
     10.474  0.3310E-02  0.7592E-01
     10.610  0.3145E-02  0.7637E-01
     10.746  0.2982E-02  0.7678E-01
     10.882  0.2912E-02  0.7718E-01
     11.018  0.2896E-02  0.7757E-01
     11.153  0.2812E-02  0.7797E-01
     11.289  0.2477E-02  0.7832E-01
     11.425  0.2166E-02  0.7863E-01
     11.561  0.2078E-02  0.7892E-01
     11.697  0.2128E-02  0.7921E-01
     11.833  0.2211E-02  0.7950E-01
     11.969  0.2453E-02  0.7981E-01
     12.105  0.2691E-02  0.8016E-01
     12.241  0.2962E-02  0.8055E-01
     12.377  0.2728E-02  0.8094E-01
     12.513  0.2383E-02  0.8129E-01
     12.649  0.1932E-02  0.8158E-01
     12.785  0.2571E-02  0.8186E-01
     12.920  0.3663E-02  0.8231E-01
     13.056  0.3753E-02  0.8282E-01
     13.192  0.3419E-02  0.8331E-01
     13.328  0.3441E-02  0.8377E-01
     13.464  0.3627E-02  0.8425E-01
     13.600  0.3441E-02  0.8473E-01
     13.736  0.3379E-02  0.8520E-01
     13.872  0.3445E-02  0.8566E-01
     14.008  0.3463E-02  0.8613E-01
     14.144  0.3386E-02  0.8660E-01
     14.280  0.3390E-02  0.8706E-01
     14.416  0.3344E-02  0.8752E-01
     14.552  0.3179E-02  0.8796E-01
     14.687  0.3014E-02  0.8838E-01
     14.823  0.2939E-02  0.8879E-01
     14.959  0.2548E-02  0.8916E-01
     15.095  0.2889E-02  0.8952E-01
     15.231  0.3235E-02  0.8994E-01
     15.367  0.3191E-02  0.9039E-01
     15.503  0.3119E-02  0.9082E-01
     15.639  0.3153E-02  0.9124E-01
     15.775  0.3165E-02  0.9167E-01
     15.911  0.3174E-02  0.9210E-01
     16.047  0.3201E-02  0.9254E-01
     16.183  0.3193E-02  0.9297E-01
     16.318  0.3173E-02  0.9340E-01
     16.454  0.3134E-02  0.9383E-01
     16.590  0.3100E-02  0.9426E-01
     16.726  0.3067E-02  0.9468E-01
     16.862  0.3039E-02  0.9509E-01
     16.998  0.3010E-02  0.9550E-01
     17.134  0.3126E-02  0.9591E-01
     17.270  0.3386E-02  0.9636E-01
     17.406  0.3581E-02  0.9683E-01
     17.542  0.3740E-02  0.9733E-01
     17.678  0.3900E-02  0.9785E-01
     17.814  0.4170E-02  0.9840E-01
     17.950  0.4667E-02  0.9899E-01
     18.085  0.5018E-02  0.9964E-01
     18.221  0.4352E-02  0.1003E+00
     18.357  0.4451E-02  0.1009E+00
     18.493  0.5447E-02  0.1015E+00
     18.629  0.3771E-02  0.1022E+00
     18.765  0.3025E-02  0.1026E+00
     18.901  0.3459E-02  0.1031E+00
     19.037  0.4193E-02  0.1036E+00
     19.173  0.5878E-02  0.1043E+00
     19.309  0.5844E-02  0.1051E+00
     19.445  0.5213E-02  0.1058E+00
     19.581  0.5335E-02  0.1065E+00
     19.716  0.4915E-02  0.1072E+00
     19.852  0.4286E-02  0.1078E+00
     19.988  0.3896E-02  0.1084E+00
     20.124  0.3775E-02  0.1089E+00
     20.260  0.3697E-02  0.1094E+00
     20.396  0.3540E-02  0.1099E+00
     20.532  0.3504E-02  0.1104E+00
     20.668  0.3521E-02  0.1109E+00
     20.804  0.3562E-02  0.1114E+00
     20.940  0.3815E-02  0.1119E+00
     21.076  0.4362E-02  0.1124E+00
     21.212  0.4849E-02  0.1130E+00
     21.348  0.5822E-02  0.1137E+00
     21.483  0.5750E-02  0.1145E+00
     21.619  0.4817E-02  0.1153E+00
     21.755  0.3990E-02  0.1159E+00
     21.891  0.3277E-02  0.1164E+00
     22.027  0.3055E-02  0.1168E+00
     22.163  0.2563E-02  0.1172E+00
     22.299  0.2401E-02  0.1175E+00
     22.435  0.2135E-02  0.1178E+00
     22.571  0.2004E-02  0.1181E+00
     22.707  0.1946E-02  0.1184E+00
     22.843  0.1840E-02  0.1187E+00
     22.979  0.1358E-02  0.1189E+00
     23.115  0.1176E-02  0.1190E+00
     23.250  0.1009E-02  0.1192E+00
     23.386  0.8993E-03  0.1193E+00
     23.522  0.8170E-03  0.1194E+00
     23.658  0.8893E-03  0.1196E+00
     23.794  0.1506E-02  0.1197E+00
     23.930  0.4893E-03  0.1198E+00
     24.066  0.3375E-03  0.1199E+00
     24.202  0.2552E-03  0.1199E+00
     24.338  0.1839E-03  0.1200E+00
     24.474  0.1236E-03  0.1200E+00
     24.610  0.7441E-04  0.1200E+00
     24.746  0.3622E-04  0.1200E+00
     24.881  0.1047E-04  0.1200E+00
     25.017  0.2471E-06  0.1200E+00
     25.153  0.0000E+00  0.1200E+00
     25.289  0.0000E+00  0.1200E+00
     25.425  0.0000E+00  0.1200E+00
     25.561  0.0000E+00  0.1200E+00
     25.697  0.0000E+00  0.1200E+00
     25.833  0.0000E+00  0.1200E+00
     25.969  0.0000E+00  0.1200E+00
     26.105  0.0000E+00  0.1200E+00
     26.241  0.0000E+00  0.1200E+00
     26.377  0.0000E+00  0.1200E+00
     26.513  0.0000E+00  0.1200E+00
     26.648  0.0000E+00  0.1200E+00
     26.784  0.0000E+00  0.1200E+00
     26.920  0.0000E+00  0.1200E+00
     27.056  0.0000E+00  0.1200E+00
