    4    4  200    1
  0.5238356E+01  0.2466437E-09  0.2466437E-09  0.3979050E-09  0.5000000E-15
  1.000000000000000E-004
  CAR 
 graphite                                
     16    455     12
 
  0.0000000E+00  0.0000000E+00  0.0000000E+00  0.3858025E-03
    1      -11.719994
    2       -5.896716
    3       -1.777166
    4        6.965909
    5        6.983924
    6        8.096092
    7        8.112220
    8       12.217244
    9       18.179445
   10       18.227509
   11       19.414294
   12       19.740852
 
  0.5555556E-01 -0.3469447E-17  0.0000000E+00  0.1543210E-02
    1      -11.641643
    2       -5.831495
    3       -1.686355
    4        6.560087
    5        6.732863
    6        7.916099
    7        8.051670
    8       12.258481
    9       18.103239
   10       18.458714
   11       19.119759
   12       19.720773
 
  0.1111111E+00 -0.6938894E-17  0.0000000E+00  0.1543210E-02
    1      -11.406888
    2       -5.636229
    3       -1.414768
    4        5.487963
    5        6.165773
    6        7.342318
    7        7.822639
    8       12.373206
    9       17.693769
   10       18.292514
   11       19.252705
   12       19.973544
 
  0.1666667E+00 -0.1387779E-16  0.0000000E+00  0.1543210E-02
    1      -11.016683
    2       -5.312131
    3       -0.964617
    4        4.043800
    5        5.475782
    6        6.436685
    7        7.422722
    8       12.525304
    9       17.077106
   10       17.097586
   11       20.418098
   12       20.520821
 
  0.2222222E+00  0.1387779E-16  0.0000000E+00  0.1543210E-02
    1      -10.472694
    2       -4.861736
    3       -0.340709
    4        2.424747
    5        4.787153
    6        5.318585
    7        6.938851
    8       12.594593
    9       15.721278
   10       16.482960
   11       20.816233
   12       21.322239
 
  0.2777778E+00  0.5551115E-16  0.0000000E+00  0.1543210E-02
    1       -9.777531
    2       -4.289666
    3        0.448744
    4        0.755001
    5        4.090853
    6        4.169653
    7        6.457400
    8       12.178804
    9       14.752342
   10       15.933278
   11       20.414838
   12       21.079058
 
  0.3333333E+00 -0.2775558E-16  0.0000000E+00  0.1543210E-02
    1       -8.936038
    2       -3.611152
    3       -0.878712
    4        1.386864
    5        2.827718
    6        3.660999
    7        6.038154
    8       10.951565
    9       14.596368
   10       15.486182
   11       19.635042
   12       21.223378
 
  0.3888889E+00  0.2775558E-16  0.0000000E+00  0.1543210E-02
    1       -7.956444
    2       -3.022578
    3       -2.234380
    4        1.580676
    5        2.431923
    6        3.285531
    7        5.718217
    8        9.429907
    9       14.808917
   10       15.159241
   11       19.010202
   12       21.293073
 
  0.4444444E+00  0.2775558E-16  0.0000000E+00  0.1543210E-02
    1       -6.866864
    2       -4.050583
    3       -1.739964
    4        0.385623
    5        3.055877
    6        3.456783
    7        5.518981
    8        8.058388
    9       14.960666
   10       15.047541
   11       18.584082
   12       21.322129
 
  0.5000000E+00  0.5551115E-16  0.0000000E+00  0.7716049E-03
    1       -6.014594
    2       -5.006557
    3       -0.797115
    4       -0.670248
    5        2.978586
    6        3.991808
    7        5.451642
    8        7.400589
    9       14.894107
   10       15.149002
   11       18.427701
   12       21.329792
 
  0.5555556E-01  0.5555556E-01  0.0000000E+00  0.7716049E-03
    1      -11.484982
    2       -5.701141
    3       -1.505094
    4        5.898628
    5        6.233530
    6        7.607724
    7        7.850493
    8       12.337135
    9       18.083871
   10       18.563767
   11       18.590681
   12       20.047045
 
  0.1111111E+00  0.5555556E-01  0.0000000E+00  0.1543210E-02
    1      -11.172395
    2       -5.441358
    3       -1.144095
    4        4.727221
    5        5.491230
    6        6.956131
    7        7.469962
    8       12.475347
    9       17.550909
   10       17.736289
   11       19.138119
   12       20.714423
 
  0.1666667E+00  0.5555556E-01  0.0000000E+00  0.1543210E-02
    1      -10.705138
    2       -5.053963
    3       -0.606775
    4        3.232251
    5        4.736994
    6        5.993466
    7        7.000089
    8       12.612658
    9       16.251495
   10       17.154361
   11       20.163635
   12       21.375783
 
  0.2222222E+00  0.5555556E-01  0.0000000E+00  0.1543210E-02
    1      -10.085494
    2       -4.542338
    3        0.100563
    4        1.604571
    5        4.013420
    6        4.881747
    7        6.503077
    8       12.530336
    9       14.998049
   10       16.581337
   11       20.650952
   12       21.046798
 
  0.2777778E+00  0.5555556E-01  0.0000000E+00  0.1543210E-02
    1       -9.316822
    2       -3.914410
    3       -0.041162
    4        0.966202
    5        3.231302
    6        3.849927
    7        6.045146
    8       11.696164
    9       14.429067
   10       16.088461
   11       19.833001
   12       21.408311
 
  0.3333333E+00  0.5555556E-01  0.0000000E+00  0.1543210E-02
    1       -8.405634
    2       -3.210166
    3       -1.602736
    4        1.964128
    5        2.159195
    6        3.222280
    7        5.671732
    8       10.248908
    9       14.489419
   10       15.704958
   11       19.182643
   12       21.545094
 
  0.3888889E+00  0.5555556E-01  0.0000000E+00  0.1543210E-02
    1       -7.365729
    2       -3.355053
    3       -2.111769
    4        0.982859
    5        2.874093
    6        3.024297
    7        5.410236
    8        8.757897
    9       14.690296
   10       15.444363
   11       18.720200
   12       21.599228
 
  0.4444444E+00  0.5555556E-01  0.0000000E+00  0.1543210E-02
    1       -6.274389
    2       -4.614528
    3       -1.217924
    4       -0.156615
    5        2.706530
    6        3.897772
    7        5.276041
    8        7.644955
    9       14.830800
   10       15.313050
   11       18.476483
   12       21.617754
 
  0.5000000E+00  0.5555556E-01  0.0000000E+00  0.1543210E-02
    1       -6.275668
    2       -4.613098
    3       -1.220518
    4       -0.153230
    5        2.705503
    6        3.897336
    7        5.275720
    8        7.645404
    9       14.827224
   10       15.313589
   11       18.482174
   12       21.617909
 
 -0.4444444E+00  0.5555556E-01  0.0000000E+00  0.1543210E-02
    1       -7.367136
    2       -3.353385
    3       -2.113683
    4        0.987605
    5        2.870780
    6        3.023471
    7        5.409258
    8        8.758833
    9       14.680921
   10       15.445948
   11       18.735505
   12       21.599572
 
 -0.3888889E+00  0.5555556E-01  0.0000000E+00  0.1543210E-02
    1       -8.406894
    2       -3.211329
    3       -1.601374
    4        1.963246
    5        2.166376
    6        3.215664
    7        5.670054
    8       10.250330
    9       14.476528
   10       15.707465
   11       19.204065
   12       21.545154
 
 -0.3333333E+00  0.5555556E-01  0.0000000E+00  0.1543210E-02
    1       -9.317901
    2       -3.915555
    3       -0.039643
    4        0.965374
    5        3.241374
    6        3.840415
    7        6.042752
    8       11.698648
    9       14.413798
   10       16.091624
   11       19.857597
   12       21.406901
 
 -0.2777778E+00  0.5555556E-01  0.0000000E+00  0.1543210E-02
    1      -10.086385
    2       -4.543262
    3        0.099840
    4        1.605651
    5        4.018127
    6        4.878114
    7        6.499821
    8       12.531929
    9       14.983196
   10       16.584553
   11       20.676684
   12       21.044349
 
 -0.2222222E+00  0.5555556E-01  0.0000000E+00  0.1543210E-02
    1      -10.705822
    2       -5.054659
    3       -0.607359
    4        3.232051
    5        4.739181
    6        5.994509
    7        6.995721
    8       12.611850
    9       16.239237
   10       17.156096
   11       20.177579
   12       21.413763
 
 -0.1666667E+00  0.5555556E-01  0.0000000E+00  0.1543210E-02
    1      -11.172894
    2       -5.441851
    3       -1.144528
    4        4.723505
    5        5.494826
    6        6.962201
    7        7.462601
    8       12.474000
    9       17.540607
   10       17.731119
   11       19.169011
   12       20.732509
 
 -0.1111111E+00  0.5555556E-01  0.0000000E+00  0.1543210E-02
    1      -11.485287
    2       -5.701455
    3       -1.505356
    4        5.886702
    5        6.244230
    6        7.620388
    7        7.838001
    8       12.336130
    9       18.058114
   10       18.556444
   11       18.645268
   12       20.041357
 
 -0.5555556E-01  0.5555556E-01  0.0000000E+00  0.7716049E-03
    1      -11.641744
    2       -5.831591
    3       -1.686443
    4        6.547704
    5        6.744758
    6        7.925698
    7        8.042307
    8       12.258121
    9       18.086320
   10       18.490276
   11       19.117051
   12       19.710195
 
  0.1111111E+00  0.1111111E+00  0.0000000E+00  0.7716049E-03
    1      -10.782756
    2       -5.118255
    3       -0.695828
    4        3.736536
    5        4.452299
    6        6.413884
    7        6.846598
    8       12.615044
    9       16.453004
   10       18.183078
   11       18.845403
   12       21.609392
 
  0.1666667E+00  0.1111111E+00  0.0000000E+00  0.1543210E-02
    1      -10.239885
    2       -4.669458
    3       -0.074506
    4        2.387950
    5        3.549810
    6        5.519197
    7        6.250882
    8       12.707083
    9       15.159597
   10       17.878547
   11       19.731235
   12       20.659206
 
  0.2222222E+00  0.1111111E+00  0.0000000E+00  0.1543210E-02
    1       -9.546590
    2       -4.100320
    3        0.711033
    4        0.835440
    5        2.825681
    6        4.418217
    7        5.740466
    8       12.384584
    9       14.110235
   10       17.384863
   11       19.810658
   12       21.089803
 
  0.2777778E+00  0.1111111E+00  0.0000000E+00  0.1543210E-02
    1       -8.707678
    2       -3.426393
    3       -0.738898
    4        1.643027
    5        2.179017
    6        3.314560
    7        5.312737
    8       11.165660
    9       13.870162
   10       16.962343
   11       19.182799
   12       22.136162
 
  0.3333333E+00  0.1111111E+00  0.0000000E+00  0.1543210E-02
    1       -7.732421
    2       -2.841769
    3       -2.064548
    4        1.423522
    5        2.466364
    6        2.679929
    7        4.990864
    8        9.648322
    9       13.935619
   10       16.647985
   11       18.776818
   12       22.381509
 
  0.3888889E+00  0.1111111E+00  0.0000000E+00  0.1543210E-02
    1       -6.649636
    2       -3.852102
    3       -1.580745
    4        0.431780
    5        2.053854
    6        3.692983
    7        4.791339
    8        8.293330
    9       14.010303
   10       16.455733
   11       18.562157
   12       22.432265
 
  0.4444444E+00  0.1111111E+00  0.0000000E+00  0.1543210E-02
    1       -5.809877
    2       -4.791097
    3       -0.634096
    4       -0.585404
    5        1.936150
    6        4.218014
    7        4.723384
    8        7.647853
    9       14.035136
   10       16.391683
   11       18.502070
   12       22.442321
 
  0.5000000E+00  0.1111111E+00  0.0000000E+00  0.1543210E-02
    1       -6.652522
    2       -3.848736
    3       -1.585764
    4        0.441242
    5        2.048876
    6        3.691699
    7        4.790066
    8        8.294440
    9       14.000832
   10       16.457528
   11       18.578824
   12       22.432494
 
 -0.4444444E+00  0.1111111E+00  0.0000000E+00  0.1543210E-02
    1       -7.735088
    2       -2.841751
    3       -2.064780
    4        1.436426
    5        2.456583
    6        2.678292
    7        4.988344
    8        9.649978
    9       13.918229
   10       16.651426
   11       18.807051
   12       22.381030
 
 -0.3888889E+00  0.1111111E+00  0.0000000E+00  0.1543210E-02
    1       -8.710006
    2       -3.428896
    3       -0.736291
    4        1.641389
    5        2.188896
    6        3.307293
    7        5.309017
    8       11.168874
    9       13.846258
   10       16.967040
   11       19.221973
   12       22.134889
 
 -0.3333333E+00  0.1111111E+00  0.0000000E+00  0.1543210E-02
    1       -9.548553
    2       -4.102426
    3        0.709539
    4        0.837069
    5        2.831524
    6        4.416013
    7        5.735230
    8       12.389879
    9       14.081663
   10       17.389849
   11       19.854326
   12       21.110515
 
 -0.2777778E+00  0.1111111E+00  0.0000000E+00  0.1543210E-02
    1      -10.241466
    2       -4.671102
    3       -0.075776
    4        2.386050
    5        3.555699
    6        5.521714
    7        6.243351
    8       12.705979
    9       15.136856
   10       17.880753
   11       19.763134
   12       20.703414
 
 -0.2222222E+00  0.1111111E+00  0.0000000E+00  0.1543210E-02
    1      -10.783946
    2       -5.119461
    3       -0.696820
    4        3.726787
    5        4.463337
    6        6.421248
    7        6.836615
    8       12.611477
    9       16.434451
   10       18.175924
   11       18.886849
   12       21.646888
 
 -0.1666667E+00  0.1111111E+00  0.0000000E+00  0.1543210E-02
    1      -11.173190
    2       -5.442148
    3       -1.144776
    4        4.714062
    5        5.503619
    6        6.962457
    7        7.463545
    8       12.472245
    9       17.536459
   10       17.743723
   11       19.163442
   12       20.732712
 
 -0.1111111E+00  0.1111111E+00  0.0000000E+00  0.7716049E-03
    1      -11.407285
    2       -5.636621
    3       -1.415114
    4        5.475610
    5        6.176965
    6        7.346976
    7        7.818935
    8       12.371513
    9       17.700195
   10       18.284255
   11       19.278813
   12       19.959659
 
  0.1666667E+00  0.1666667E+00  0.0000000E+00  0.7716049E-03
    1       -9.623303
    2       -4.162724
    3        0.625579
    4        1.419937
    5        2.348094
    6        4.877151
    7        5.390719
    8       12.740593
    9       13.885378
   10       18.894085
   11       19.449190
   12       19.768460
 
  0.2222222E+00  0.1666667E+00  0.0000000E+00  0.1543210E-02
    1       -8.859433
    2       -3.543072
    3        0.116160
    4        1.480087
    5        1.510847
    6        3.903262
    7        4.776185
    8       12.123173
    9       13.053311
   10       18.689145
   11       19.128714
   12       20.740123
 
  0.2777778E+00  0.1666667E+00  0.0000000E+00  0.1543210E-02
    1       -7.955255
    2       -2.850427
    3       -1.314526
    4        0.951001
    5        2.462222
    6        2.792546
    7        4.368529
    8       10.651207
    9       12.968167
   10       18.341843
   11       18.769780
   12       22.412835
 
  0.3333333E+00  0.1666667E+00  0.0000000E+00  0.1543210E-02
    1       -6.926572
    2       -2.979363
    3       -1.803859
    4        0.491265
    5        1.773471
    6        3.499394
    7        4.097536
    8        9.196151
    9       12.929433
   10       18.095108
   11       18.619305
   12       23.623952
 
  0.3888889E+00  0.1666667E+00  0.0000000E+00  0.1543210E-02
    1       -5.855331
    2       -4.201087
    3       -0.979010
    4       -0.111641
    5        1.152109
    6        3.960693
    7        4.342825
    8        8.126402
    9       12.901862
   10       17.969227
   11       18.580800
   12       23.673682
 
  0.4444444E+00  0.1666667E+00  0.0000000E+00  0.1543210E-02
    1       -5.859005
    2       -4.197056
    3       -0.989617
    4       -0.096165
    5        1.147121
    6        3.959885
    7        4.341891
    8        8.126729
    9       12.897766
   10       17.970301
   11       18.589871
   12       23.673682
 
  0.5000000E+00  0.1666667E+00  0.0000000E+00  0.1543210E-02
    1       -6.930688
    2       -2.974555
    3       -1.811448
    4        0.505976
    5        1.766682
    6        3.497463
    7        4.095092
    8        9.196358
    9       12.917315
   10       18.098213
   11       18.645409
   12       23.620748
 
 -0.4444444E+00  0.1666667E+00  0.0000000E+00  0.1543210E-02
    1       -7.958969
    2       -2.854223
    3       -1.312542
    4        0.960825
    5        2.459904
    6        2.789652
    7        4.364397
    8       10.651383
    9       12.948182
   10       18.346510
   11       18.809881
   12       22.444772
 
 -0.3888889E+00  0.1666667E+00  0.0000000E+00  0.1543210E-02
    1       -8.862630
    2       -3.546716
    3        0.116027
    4        1.477928
    5        1.519936
    6        3.903655
    7        4.770235
    8       12.128816
    9       13.021736
   10       18.693887
   11       19.178354
   12       20.777296
 
 -0.3333333E+00  0.1666667E+00  0.0000000E+00  0.1543210E-02
    1       -9.625944
    2       -4.165614
    3        0.623656
    4        1.412266
    5        2.361957
    6        4.878954
    7        5.384570
    8       12.736410
    9       13.860598
   10       18.899865
   11       19.485185
   12       19.822074
 
 -0.2777778E+00  0.1666667E+00  0.0000000E+00  0.1543210E-02
    1      -10.241951
    2       -4.671637
    3       -0.076108
    4        2.376504
    5        3.564790
    6        5.518735
    7        6.248680
    8       12.697645
    9       15.140905
   10       17.902667
   11       19.745138
   12       20.710385
 
 -0.2222222E+00  0.1666667E+00  0.0000000E+00  0.1543210E-02
    1      -10.706607
    2       -5.055474
    3       -0.607965
    4        3.219974
    5        4.750144
    6        5.993359
    7        7.000325
    8       12.604553
    9       16.235911
   10       17.176653
   11       20.170739
   12       21.414531
 
 -0.1666667E+00  0.1666667E+00  0.0000000E+00  0.7716049E-03
    1      -11.017573
    2       -5.313028
    3       -0.965349
    4        4.031236
    5        5.487453
    6        6.437486
    7        7.423872
    8       12.520137
    9       17.066044
   10       17.115808
   11       20.416405
   12       20.540045
 
  0.2222222E+00  0.2222222E+00  0.0000000E+00  0.7716049E-03
    1       -8.029841
    2       -2.890055
    3       -0.703850
    4        0.361090
    5        2.388053
    6        3.309151
    7        3.837976
    8       11.445773
    9       12.177455
   10       18.758979
   11       20.187914
   12       20.477149
 
  0.2777778E+00  0.2222222E+00  0.0000000E+00  0.1543210E-02
    1       -7.069186
    2       -2.303256
    3       -1.745466
    4       -0.253351
    5        2.363399
    6        3.332580
    7        3.388406
    8       10.163954
    9       11.852778
   10       18.642348
   11       20.030900
   12       22.113552
 
  0.3333333E+00  0.2222222E+00  0.0000000E+00  0.1543210E-02
    1       -6.011282
    2       -3.274540
    3       -1.407113
    4       -0.398093
    5        1.337925
    6        3.100323
    7        4.347036
    8        8.949998
    9       11.684661
   10       18.646277
   11       19.846557
   12       23.897555
 
  0.3888889E+00  0.2222222E+00  0.0000000E+00  0.1543210E-02
    1       -5.214247
    2       -4.152478
    3       -1.183023
    4       -0.152457
    5        0.690686
    6        3.026160
    7        4.827947
    8        8.373348
    9       11.627248
   10       18.666162
   11       19.784148
   12       25.029823
 
  0.4444444E+00  0.2222222E+00  0.0000000E+00  0.1543210E-02
    1       -6.016653
    2       -3.268750
    3       -1.421242
    4       -0.381404
    5        1.336129
    6        3.098386
    7        4.345767
    8        8.946036
    9       11.682034
   10       18.663172
   11       19.848708
   12       23.938897
 
  0.5000000E+00  0.2222222E+00  0.0000000E+00  0.1543210E-02
    1       -7.074303
    2       -2.304009
    3       -1.752718
    4       -0.238498
    5        2.364184
    6        3.328899
    7        3.386340
    8       10.153010
    9       11.849860
   10       18.674689
   11       20.034573
   12       22.154728
 
 -0.4444444E+00  0.2222222E+00  0.0000000E+00  0.1543210E-02
    1       -8.034381
    2       -2.896027
    3       -0.709420
    4        0.378237
    5        2.385666
    6        3.308917
    7        3.835159
    8       11.416641
    9       12.185169
   10       18.804092
   11       20.198233
   12       20.512217
 
 -0.3888889E+00  0.2222222E+00  0.0000000E+00  0.1543210E-02
    1       -8.863277
    2       -3.547789
    3        0.107586
    4        1.477721
    5        1.528636
    6        3.899060
    7        4.777521
    8       12.088598
    9       13.060576
   10       18.723239
   11       19.181980
   12       20.749870
 
 -0.3333333E+00  0.2222222E+00  0.0000000E+00  0.1543210E-02
    1       -9.549692
    2       -4.103879
    3        0.708922
    4        0.825623
    5        2.842023
    6        4.413304
    7        5.743623
    8       12.356982
    9       14.109047
   10       17.416958
   11       19.864699
   12       21.096334
 
 -0.2777778E+00  0.2222222E+00  0.0000000E+00  0.1543210E-02
    1      -10.087833
    2       -4.544897
    3        0.098864
    4        1.593375
    5        4.027905
    6        4.878163
    7        6.507376
    8       12.508794
    9       14.994091
   10       16.609906
   11       20.697638
   12       21.055291
 
 -0.2222222E+00  0.2222222E+00  0.0000000E+00  0.7716049E-03
    1      -10.474259
    2       -4.863394
    3       -0.341893
    4        2.412443
    5        4.799877
    6        5.316786
    7        6.943798
    8       12.579993
    9       15.716671
   10       16.507424
   11       20.827734
   12       21.355557
 
  0.2777778E+00  0.2777778E+00  0.0000000E+00  0.7716049E-03
    1       -6.071825
    2       -2.467915
    3       -2.016440
    4       -0.661425
    5        1.926332
    6        2.417062
    7        4.335744
    8        9.610762
    9       10.894570
   10       18.670047
   11       21.825230
   12       21.915127
 
  0.3333333E+00  0.2777778E+00  0.0000000E+00  0.1543210E-02
    1       -5.066328
    2       -3.419344
    3       -2.188825
    4       -0.041982
    5        1.120853
    6        2.097692
    7        5.057861
    8        9.012706
    9       10.456316
   10       18.722783
   11       21.736091
   12       23.700604
 
  0.3888889E+00  0.2777778E+00  0.0000000E+00  0.1543210E-02
    1       -5.071360
    2       -3.415693
    3       -2.189923
    4       -0.039897
    5        1.122154
    6        2.096680
    7        5.058159
    8        9.000879
    9       10.464794
   10       18.730418
   11       21.737596
   12       23.739332
 
  0.4444444E+00  0.2777778E+00  0.0000000E+00  0.1543210E-02
    1       -6.078130
    2       -2.472416
    3       -2.017066
    4       -0.650030
    5        1.926693
    6        2.416769
    7        4.335360
    8        9.577216
    9       10.919047
   10       18.692403
   11       21.853043
   12       21.931086
 
  0.5000000E+00  0.2777778E+00  0.0000000E+00  0.1543210E-02
    1       -7.075028
    2       -2.318138
    3       -1.744050
    4       -0.233750
    5        2.359298
    6        3.336291
    7        3.386984
    8       10.125291
    9       11.876418
   10       18.677982
   11       20.070648
   12       22.118364
 
 -0.4444444E+00  0.2777778E+00  0.0000000E+00  0.1543210E-02
    1       -7.960377
    2       -2.859321
    3       -1.318620
    4        0.969753
    5        2.460055
    6        2.786272
    7        4.373766
    8       10.613811
    9       12.983969
   10       18.379531
   11       18.815996
   12       22.417895
 
 -0.3888889E+00  0.2777778E+00  0.0000000E+00  0.1543210E-02
    1       -8.711937
    2       -3.432396
    3       -0.746046
    4        1.640847
    5        2.195839
    6        3.308821
    7        5.319103
    8       11.128663
    9       13.881650
   10       16.997474
   11       19.233577
   12       22.152968
 
 -0.3333333E+00  0.2777778E+00  0.0000000E+00  0.1543210E-02
    1       -9.320170
    2       -3.918609
    3       -0.050612
    4        0.964228
    5        3.242182
    6        3.849670
    7        6.052398
    8       11.659834
    9       14.441305
   10       16.120416
   11       19.879302
   12       21.430039
 
 -0.2777778E+00  0.2777778E+00  0.0000000E+00  0.7716049E-03
    1       -9.779936
    2       -4.292487
    3        0.447200
    4        0.743746
    5        4.087822
    6        4.183239
    7        6.465183
    8       12.146185
    9       14.765971
   10       15.961719
   11       20.449710
   12       21.099624
 
  0.3333333E+00  0.3333333E+00  0.0000000E+00  0.7716049E-03
    1       -4.525757
    2       -3.138544
    3       -3.122488
    4        0.445105
    5        1.275756
    6        1.277729
    7        5.353427
    8        9.481131
    9        9.528973
   10       18.762052
   11       23.268063
   12       23.868868
 
  0.3888889E+00  0.3333333E+00  0.0000000E+00  0.1543210E-02
    1       -5.071664
    2       -3.429569
    3       -2.175446
    4       -0.041996
    5        1.118844
    6        2.102317
    7        5.060896
    8        8.969809
    9       10.491571
   10       18.735782
   11       21.778387
   12       23.696857
 
  0.4444444E+00  0.3333333E+00  0.0000000E+00  0.1543210E-02
    1       -6.017896
    2       -3.284941
    3       -1.405350
    4       -0.383634
    5        1.333313
    6        3.106581
    7        4.349114
    8        8.909532
    9       11.713151
   10       18.671561
   11       19.886939
   12       23.898668
 
  0.5000000E+00  0.3333333E+00  0.0000000E+00  0.1543210E-02
    1       -6.932837
    2       -2.993349
    3       -1.802934
    4        0.509733
    5        1.768157
    6        3.499590
    7        4.105032
    8        9.157846
    9       12.951388
   10       18.133604
   11       18.655449
   12       23.651500
 
 -0.4444444E+00  0.3333333E+00  0.0000000E+00  0.1543210E-02
    1       -7.737864
    2       -2.857760
    3       -2.061553
    4        1.434658
    5        2.467274
    6        2.678916
    7        4.999439
    8        9.610634
    9       13.952574
   10       16.684337
   11       18.820181
   12       22.410814
 
 -0.3888889E+00  0.3333333E+00  0.0000000E+00  0.1543210E-02
    1       -8.410085
    2       -3.218653
    3       -1.607795
    4        1.962622
    5        2.161303
    6        3.231508
    7        5.681076
    8       10.210713
    9       14.506430
   10       15.738803
   11       19.225190
   12       21.572873
 
 -0.3333333E+00  0.3333333E+00  0.0000000E+00  0.7716049E-03
    1       -8.939416
    2       -3.616244
    3       -0.887546
    4        1.385375
    5        2.823879
    6        3.675762
    7        6.047962
    8       10.912532
    9       14.618344
   10       15.517305
   11       19.668658
   12       21.249285
 
  0.3888889E+00  0.3888889E+00  0.0000000E+00  0.7716049E-03
    1       -5.216247
    2       -4.166695
    3       -1.168641
    4       -0.155829
    5        0.689807
    6        3.033799
    7        4.834432
    8        8.330898
    9       11.658177
   10       18.682034
   11       19.823812
   12       25.056211
 
  0.4444444E+00  0.3888889E+00  0.0000000E+00  0.1543210E-02
    1       -5.861038
    2       -4.212486
    3       -0.981871
    4       -0.100933
    5        1.154947
    6        3.969629
    7        4.348771
    8        8.083562
    9       12.929218
   10       18.007391
   11       18.606508
   12       23.707148
 
  0.5000000E+00  0.3888889E+00  0.0000000E+00  0.1543210E-02
    1       -6.656083
    2       -3.864470
    3       -1.582431
    4        0.436181
    5        2.063002
    6        3.696156
    7        4.801245
    8        8.252557
    9       14.033052
   10       16.492262
   11       18.595915
   12       22.464234
 
 -0.4444444E+00  0.3888889E+00  0.0000000E+00  0.1543210E-02
    1       -7.371187
    2       -3.370937
    3       -2.109610
    4        0.982459
    5        2.887105
    6        3.025245
    7        5.421000
    8        8.718513
    9       14.710851
   10       15.479105
   11       18.756670
   12       21.629593
 
 -0.3888889E+00  0.3888889E+00  0.0000000E+00  0.7716049E-03
    1       -7.960837
    2       -3.038939
    3       -2.231768
    4        1.576899
    5        2.431695
    6        3.301040
    7        5.729385
    8        9.390762
    9       14.832739
   10       15.192121
   11       19.041143
   12       21.321981
 
  0.4444444E+00  0.4444444E+00  0.0000000E+00  0.7716049E-03
    1       -5.812521
    2       -4.806109
    3       -0.638432
    4       -0.582931
    5        1.949202
    6        4.226839
    7        4.734227
    8        7.601914
    9       14.063405
   10       16.427631
   11       18.526363
   12       22.474757
 
  0.5000000E+00  0.4444444E+00  0.0000000E+00  0.1543210E-02
    1       -6.279463
    2       -4.627602
    3       -1.220581
    4       -0.157043
    5        2.721350
    6        3.904902
    7        5.287655
    8        7.600222
    9       14.855704
   10       15.347918
   11       18.505894
   12       21.649044
 
 -0.4444444E+00  0.4444444E+00  0.0000000E+00  0.7716049E-03
    1       -6.871898
    2       -4.064765
    3       -1.739921
    4        0.382519
    5        3.071848
    6        3.460791
    7        5.530926
    8        8.016281
    9       14.994544
   10       15.072980
   11       18.612226
   12       21.352571
 
  0.5000000E+00  0.5000000E+00  0.0000000E+00  0.3858025E-03
    1       -6.017486
    2       -5.021774
    3       -0.802124
    4       -0.669509
    5        2.994710
    6        4.001166
    7        5.463843
    8        7.353586
    9       14.928311
   10       15.175275
   11       18.454574
   12       21.360703
 