32   
4    

1    
  0.0041935280459741   0.0000000026507317   0.0090782334475173
   0.0342053600   -0.0016274800   -0.1046496600
   0.0163300100   -0.0001016900    0.0040323400
   0.0266234000    0.0058561100    0.0039842700
   0.0267297500   -0.0060972500    0.0040822400
  -0.0000960100   -0.0000200900   -0.0000453000
  -0.0001720700   -0.0000230100    0.0004299000
  -0.0001185100    0.0000099900    0.0004301000
  -0.0001282800   -0.0000515700    0.0004304800
   0.0017902800    0.0000093700    0.0030230500
   0.0008004600   -0.0002828900    0.0004312300
   0.0012208000    0.0002536000    0.0005377000
   0.0007207000    0.0000697900    0.0003114300
   0.0017439000    0.0000160300    0.0030484300
   0.0007984200    0.0002939700    0.0004095000
   0.0007016100   -0.0000294200    0.0002979600
   0.0012014400   -0.0002211400    0.0005333200
  -0.0191353000    0.0005709500    0.0207716700
  -0.0064822600    0.0000643900    0.0059009500
  -0.0404892700    0.0125117700    0.0209933500
  -0.0388597200   -0.0111979300    0.0205646300
   0.0000976200    0.0000191800    0.0000618500
   0.0001340300    0.0000142100   -0.0000523800
   0.0001260600   -0.0000015200    0.0000618100
   0.0001230900    0.0000324200    0.0000634400
  -0.0019693000   -0.0009735300    0.0023650200
  -0.0003799800    0.0000291700    0.0025324600
  -0.0013038800   -0.0000015300   -0.0001349100
  -0.0003162700    0.0009145400    0.0024466100
  -0.0004025800   -0.0000642000    0.0024964300
  -0.0019074700    0.0009082600    0.0023433100
  -0.0012885800   -0.0000015600   -0.0001233300
  -0.0002974700   -0.0008789700    0.0024220900

1    
 -0.0041935280459741  -0.0000000026507317  -0.0090782334475173
  -0.0342625600   -0.0016263000    0.1046309700
  -0.0162368100   -0.0001009000   -0.0040346400
  -0.0266810300   -0.0061167000   -0.0040840200
  -0.0265752900    0.0058742200   -0.0039863900
   0.0001755400   -0.0000212100    0.0000456000
   0.0002460400   -0.0000230500   -0.0004298900
   0.0001960300   -0.0000509700   -0.0004297000
   0.0001863800    0.0000101600   -0.0004296600
  -0.0018276700    0.0000091200   -0.0030488800
  -0.0008728900    0.0002959800   -0.0004094900
  -0.0012751200   -0.0002213600   -0.0005342200
  -0.0007757300   -0.0000324700   -0.0002989100
  -0.0018731500    0.0000164700   -0.0030236900
  -0.0008751400   -0.0002832100   -0.0004314200
  -0.0007956800    0.0000715800   -0.0003123300
  -0.0012957600    0.0002553100   -0.0005382900
   0.0191206000    0.0005716700   -0.0207637600
   0.0064465800    0.0000642100   -0.0058984300
   0.0388623800   -0.0112173700   -0.0205557700
   0.0404899600    0.0125297800   -0.0209847700
  -0.0001447300    0.0000195800   -0.0000638300
  -0.0001797600    0.0000143800    0.0000508800
  -0.0001790900    0.0000355300   -0.0000636000
  -0.0001812400   -0.0000055300   -0.0000621700
   0.0019686800    0.0009155600   -0.0023434800
   0.0004551000   -0.0000690400   -0.0024957400
   0.0013434400   -0.0000024100    0.0001240900
   0.0003491800   -0.0008763300   -0.0024213300
   0.0004331600    0.0000328600   -0.0025314700
   0.0020296200   -0.0009796200   -0.0023652000
   0.0013608000   -0.0000016900    0.0001356400
   0.0003681500    0.0009117700   -0.0024460800

17   
  0.0041935280459741   0.0000000026507317   0.0090782334475173
  -0.0199313300   -0.0005944000    0.0204963700
  -0.0065666600   -0.0001039000    0.0057890000
  -0.0407642200    0.0118105600    0.0202896100
  -0.0423864600   -0.0131668400    0.0207189000
   0.0001666000   -0.0000205000    0.0000673600
   0.0001979400   -0.0000199800   -0.0000450300
   0.0001965600   -0.0000401500    0.0000663400
   0.0001870800   -0.0000050900    0.0000686500
  -0.0003750400    0.0002275900    0.0024350100
  -0.0014017600    0.0000054800   -0.0001316200
  -0.0010801100    0.0004223700    0.0028103700
  -0.0014627500   -0.0006188500    0.0020339900
  -0.0003759700   -0.0001946400    0.0023872900
  -0.0013976200    0.0000046500   -0.0001206000
  -0.0014282400    0.0006249000    0.0020232700
  -0.0010641900   -0.0003873200    0.0027768600
   0.0380278800    0.0016688000   -0.1080211400
   0.0182645700    0.0000888600    0.0035573400
   0.0264528200    0.0048437700    0.0036023700
   0.0263540200   -0.0045696700    0.0035142600
  -0.0002043200    0.0000201400    0.0004297300
  -0.0000819600    0.0000134900   -0.0000550300
  -0.0001335300   -0.0000101600   -0.0000543300
  -0.0001339900    0.0000412600   -0.0000543900
   0.0010026900   -0.0002594400    0.0022889700
   0.0008129900    0.0001332300    0.0022070800
   0.0005606100    0.0001090800    0.0022493800
   0.0021187900    0.0000000600    0.0009987000
   0.0008012600   -0.0001621000    0.0021745400
   0.0010109200    0.0002619800    0.0022774800
   0.0005348800   -0.0001180100    0.0022256900
   0.0020985300   -0.0000051700    0.0009935800

17   
 -0.0041935280459741  -0.0000000026507317  -0.0090782334475173
   0.0199967000   -0.0005942400   -0.0205048600
   0.0066447400   -0.0001039000   -0.0057910700
   0.0423909300   -0.0131493700   -0.0207254900
   0.0407663000    0.0117905200   -0.0202966100
  -0.0000836600   -0.0000189500   -0.0000671000
  -0.0001207400   -0.0000211200    0.0000451600
  -0.0001169700   -0.0000051800   -0.0000680600
  -0.0001249100   -0.0000398600   -0.0000657300
   0.0002912000   -0.0002012100   -0.0023882700
   0.0013190700    0.0000048400    0.0001210600
   0.0009873500   -0.0003889900   -0.0027766700
   0.0013491100    0.0006223900   -0.0020254400
   0.0002890600    0.0002337200   -0.0024360600
   0.0013229200    0.0000052800    0.0001322000
   0.0013840500   -0.0006163900   -0.0020358700
   0.0010034300    0.0004226000   -0.0028098500
  -0.0379313400    0.0016705900    0.1080399200
  -0.0183189100    0.0000894300   -0.0035543500
  -0.0264072600   -0.0045532200   -0.0035103900
  -0.0265065500    0.0048273500   -0.0035988700
   0.0001534900    0.0000187500   -0.0004315600
   0.0000333700    0.0000149000    0.0000538300
   0.0000759700    0.0000451700    0.0000542900
   0.0000734600   -0.0000139200    0.0000542600
  -0.0009492800    0.0002665800   -0.0022783300
  -0.0007433000   -0.0001656500   -0.0021744900
  -0.0004754600   -0.0001183700   -0.0022248300
  -0.0020422600   -0.0000003200   -0.0009929600
  -0.0007550600    0.0001380400   -0.0022069800
  -0.0009405900   -0.0002642500   -0.0022902200
  -0.0005022800    0.0001089700   -0.0022485000
  -0.0020625700   -0.0000042000   -0.0009981500
