32   
4    

1    
  0.0041680128735288  -0.0000001878613342   0.0090899762733907
  -0.2629382900    0.0046924000   -0.1425526000
   0.0358309200    0.0031895300   -0.0040508000
  -0.0095878000   -0.0230214900   -0.0039758100
  -0.0097376800    0.0295159600   -0.0041423900
  -0.0055556800    0.0032521200    0.0000545800
  -0.0054899900    0.0032511800    0.0007645800
  -0.0055358900    0.0032213600    0.0007644600
  -0.0055299500    0.0032745000    0.0007646400
   0.0060578100   -0.0036611000   -0.0005812400
   0.0042562300   -0.0038898000   -0.0013967700
   0.0053583200   -0.0022126300   -0.0009914800
   0.0045951200   -0.0032572000    0.0027082600
   0.0042860900   -0.0026340700   -0.0013884700
   0.0060436400   -0.0028624700   -0.0005720700
   0.0053625400   -0.0042667000   -0.0009787200
   0.0046287300   -0.0032566000    0.0028240700
   0.0094170400   -0.0032623700    0.0133782400
   0.0436630500   -0.0038612000    0.0396936800
   0.0960374400    0.0268846500    0.0401904200
   0.0971624700   -0.0342431600    0.0391445500
   0.0056233400   -0.0032721200   -0.0004482900
   0.0056543500   -0.0032745000   -0.0002588700
   0.0056260000   -0.0032902800   -0.0002608100
   0.0056291600   -0.0032571600   -0.0002563700
  -0.0077243700    0.0044730000    0.0034595100
  -0.0022063400    0.0052750900    0.0041061700
  -0.0056567500    0.0000964100    0.0037796600
  -0.0048109000    0.0032785200   -0.0004471100
  -0.0023384500    0.0013598300    0.0039984400
  -0.0076391700    0.0021408000    0.0034009800
  -0.0056638200    0.0063403000    0.0037005000
  -0.0048171700    0.0032771900   -0.0004309400

1    
 -0.0041680128735288   0.0000001878613342  -0.0090899762733907
   0.2516636300    0.0045881600    0.1425533300
  -0.0471093600    0.0031907000    0.0040505100
  -0.0015418400    0.0295146200    0.0041241900
  -0.0016854600   -0.0230244200    0.0039931900
  -0.0057225000    0.0032531600   -0.0000538600
  -0.0057864800    0.0032520800   -0.0007640600
  -0.0057429200    0.0032737700   -0.0007641900
  -0.0057364900    0.0032236000   -0.0007641400
   0.0052259100   -0.0028665100    0.0005716500
   0.0069826000   -0.0026336700    0.0013895300
   0.0059060700   -0.0042706700    0.0009781900
   0.0066383500   -0.0032579600   -0.0028238300
   0.0070115000   -0.0038930100    0.0013958400
   0.0052108900   -0.0036625100    0.0005818100
   0.0059121600   -0.0022126800    0.0009918800
   0.0066706700   -0.0032572400   -0.0027086900
   0.0019362600   -0.0032626700   -0.0133779000
  -0.0323060000   -0.0038361200   -0.0396943600
  -0.0857562400   -0.0342038900   -0.0391800000
  -0.0847336900    0.0269281000   -0.0401564000
   0.0057283500   -0.0032725200    0.0004483600
   0.0056976600   -0.0032747400    0.0002588300
   0.0057268900   -0.0032572700    0.0002568800
   0.0057297600   -0.0032906500    0.0002609300
  -0.0037064200    0.0021396500   -0.0034031800
  -0.0090067900    0.0013659500   -0.0039946700
  -0.0056828200    0.0063413700   -0.0037012800
  -0.0065316000    0.0032809200    0.0004311100
  -0.0091410800    0.0052728900   -0.0041087000
  -0.0036239800    0.0044767000   -0.0034588800
  -0.0056911500    0.0000970000   -0.0037792500
  -0.0065358800    0.0032778700    0.0004471800

17   
  0.0041680128735288  -0.0000001878613342   0.0090899762733907
  -0.0019014200    0.0032526500    0.0133779900
   0.0323455200    0.0038282500    0.0396953100
   0.0857817900    0.0341781900    0.0391453300
   0.0847848300   -0.0269499100    0.0401929500
  -0.0056909900    0.0032519800   -0.0004480300
  -0.0056616000    0.0032484500   -0.0002584800
  -0.0056892300    0.0032334400   -0.0002589800
  -0.0056870500    0.0032662300   -0.0002578900
   0.0056524000   -0.0032645000    0.0025131300
   0.0070235200   -0.0024544900    0.0050273900
   0.0056399800   -0.0040470700    0.0037654300
   0.0064900000   -0.0032543100   -0.0004579800
   0.0069863900   -0.0040271400    0.0049316200
   0.0056538400   -0.0032525200    0.0024941000
   0.0056502100   -0.0024860400    0.0037149800
   0.0064983800   -0.0032538800   -0.0004227000
  -0.2531995500   -0.0046337400   -0.1490282100
   0.0444195200   -0.0032223700   -0.0055151900
   0.0032298200   -0.0270202800   -0.0055810400
   0.0033706200    0.0204674200   -0.0054639000
   0.0057151500   -0.0032719500    0.0006436800
   0.0056310500   -0.0032759200   -0.0000451600
   0.0056640500   -0.0032543400   -0.0000449200
   0.0056636300   -0.0032914300   -0.0000449400
  -0.0058538000    0.0034282000    0.0022469900
  -0.0058876200    0.0031140500    0.0022144300
  -0.0055945900    0.0032978100    0.0022280800
  -0.0068594000    0.0032774900   -0.0004819300
  -0.0058854800    0.0034552000    0.0021993000
  -0.0058750200    0.0031122900    0.0021835600
  -0.0055803800    0.0032710300    0.0021950800
  -0.0068345500    0.0032772400   -0.0004599600

17   
 -0.0041680128735288   0.0000001878613342  -0.0090899762733907
  -0.0093737900    0.0032517000   -0.0133784500
  -0.0436220400    0.0038494900   -0.0396955200
  -0.0960094500   -0.0269071000   -0.0402277000
  -0.0971084800    0.0342208100   -0.0391104900
  -0.0055859300    0.0032514800    0.0004487100
  -0.0056136700    0.0032477000    0.0002587700
  -0.0055849800    0.0032643800    0.0002581000
  -0.0055834000    0.0032341100    0.0002591200
   0.0056168400   -0.0032547500   -0.0024955600
   0.0042825300   -0.0040220000   -0.0049284200
   0.0056174800   -0.0024859900   -0.0037147800
   0.0047682800   -0.0032528500    0.0004220400
   0.0042426500   -0.0024523400   -0.0050304000
   0.0056137100   -0.0032641800   -0.0025111600
   0.0056304800   -0.0040426200   -0.0037655500
   0.0047765300   -0.0032517900    0.0004585500
   0.2645522000   -0.0047378900    0.1490273800
  -0.0330624600   -0.0032196900    0.0055144400
   0.0079810800    0.0204637100    0.0054467300
   0.0081283500   -0.0270201200    0.0055976200
   0.0056363700   -0.0032711900   -0.0006436700
   0.0057209700   -0.0032753100    0.0000447800
   0.0056912300   -0.0032904400    0.0000450500
   0.0056917100   -0.0032540500    0.0000451000
  -0.0054726800    0.0031078700   -0.0021828400
  -0.0054604700    0.0034585800   -0.0021993800
  -0.0057672000    0.0032689600   -0.0021955900
  -0.0045160700    0.0032773600    0.0004588200
  -0.0054599800    0.0031099900   -0.0022128000
  -0.0054931100    0.0034278400   -0.0022488000
  -0.0057518500    0.0032952300   -0.0022276600
  -0.0044848300    0.0032731100    0.0004835800
