mesh: [     9,     9,     4 ]
nqpoint: 50     
reciprocal_lattice:
- [   0.40553429,   0.23434576,   0.00000000 ] # a*
- [   0.00018224,   0.46837588,   0.00000000 ] # b*
- [   0.00000000,   0.00000000,   0.18848718 ] # c*
natom:   4      
lattice:
- [     2.466437248995937,    -0.000959642981403,     0.000000000000000 ] # a
- [    -1.234049699648306,     2.135517492938035,     0.000000000000000 ] # b
- [     0.000000000000000,     0.000000000000000,     5.305400583000000 ] # c
points:
- symbol: C  # 1
  coordinates: [  0.999346608899158,  0.000653437440450,  0.250000000000000 ]
  mass: 12.010700
- symbol: C  # 2
  coordinates: [  0.000653437440450,  0.999346608899158,  0.750000000000000 ]
  mass: 12.010700
- symbol: C  # 3
  coordinates: [  0.332584924946422,  0.667415057713968,  0.250000000000000 ]
  mass: 12.010700
- symbol: C  # 4
  coordinates: [  0.667415057713969,  0.332584924946423,  0.750000000000000 ]
  mass: 12.010700
phonon:
- q-position: [    0.0000000,    0.0000000,    0.1250000 ]
  weight: 2    
  band:
  - # 1
    frequency:     0.5741124045
  - # 2
    frequency:     0.5752772737
  - # 3
    frequency:     2.1968511321
  - # 4
    frequency:     2.7322371362
  - # 5
    frequency:     2.7353668675
  - # 6
    frequency:    10.8312913527
  - # 7
    frequency:    24.8979362599
  - # 8
    frequency:    26.1337727366
  - # 9
    frequency:    46.3439347542
  - # 10
    frequency:    46.3527753091
  - # 11
    frequency:    47.1387256524
  - # 12
    frequency:    47.1502458014

- q-position: [    0.1111111,    0.0000000,    0.1250000 ]
  weight: 8    
  band:
  - # 1
    frequency:     4.8841039039
  - # 2
    frequency:     5.7784248788
  - # 3
    frequency:     6.2156355765
  - # 4
    frequency:    11.7283024980
  - # 5
    frequency:    12.4695100521
  - # 6
    frequency:    12.9101527059
  - # 7
    frequency:    24.2119973250
  - # 8
    frequency:    25.3727407351
  - # 9
    frequency:    45.6318734709
  - # 10
    frequency:    46.2909059226
  - # 11
    frequency:    46.3581195155
  - # 12
    frequency:    47.0034565180

- q-position: [    0.2222222,    0.0000000,    0.1250000 ]
  weight: 8    
  band:
  - # 1
    frequency:     9.3833327813
  - # 2
    frequency:     9.9615067419
  - # 3
    frequency:    11.1341257744
  - # 4
    frequency:    13.7450227847
  - # 5
    frequency:    22.3816936518
  - # 6
    frequency:    23.3092507241
  - # 7
    frequency:    23.4266526404
  - # 8
    frequency:    23.8048570389
  - # 9
    frequency:    43.8033250902
  - # 10
    frequency:    44.3112996182
  - # 11
    frequency:    46.1221211472
  - # 12
    frequency:    46.6158489681

- q-position: [    0.3333333,    0.0000000,    0.1250000 ]
  weight: 8    
  band:
  - # 1
    frequency:    12.9413583016
  - # 2
    frequency:    13.2807787486
  - # 3
    frequency:    14.8949986314
  - # 4
    frequency:    15.7495174660
  - # 5
    frequency:    20.1055322390
  - # 6
    frequency:    20.7136481088
  - # 7
    frequency:    31.3468931984
  - # 8
    frequency:    31.7557844683
  - # 9
    frequency:    41.8833312441
  - # 10
    frequency:    42.0717928537
  - # 11
    frequency:    45.8032806479
  - # 12
    frequency:    46.0473688846

- q-position: [    0.4444444,    0.0000000,    0.1250000 ]
  weight: 8    
  band:
  - # 1
    frequency:    14.9595011901
  - # 2
    frequency:    15.1046443145
  - # 3
    frequency:    16.9737809718
  - # 4
    frequency:    17.1190456373
  - # 5
    frequency:    18.4441183927
  - # 6
    frequency:    18.6019617487
  - # 7
    frequency:    35.0442235081
  - # 8
    frequency:    35.2855018448
  - # 9
    frequency:    41.2340891558
  - # 10
    frequency:    41.3021262812
  - # 11
    frequency:    45.4266853034
  - # 12
    frequency:    45.4948430051

- q-position: [    0.1111111,    0.1111111,    0.1250000 ]
  weight: 4    
  band:
  - # 1
    frequency:    10.6818212551
  - # 2
    frequency:    13.5014269115
  - # 3
    frequency:    14.7667557279
  - # 4
    frequency:    14.9532971599
  - # 5
    frequency:    17.1225032393
  - # 6
    frequency:    17.3318917597
  - # 7
    frequency:    22.7327635626
  - # 8
    frequency:    23.6480403020
  - # 9
    frequency:    43.9240763688
  - # 10
    frequency:    44.4991293574
  - # 11
    frequency:    46.5434110037
  - # 12
    frequency:    47.0723194074

- q-position: [    0.2222222,    0.1111111,    0.1250000 ]
  weight: 8    
  band:
  - # 1
    frequency:    14.5894859202
  - # 2
    frequency:    15.5386701266
  - # 3
    frequency:    18.1020071885
  - # 4
    frequency:    18.2134754932
  - # 5
    frequency:    20.5230466494
  - # 6
    frequency:    21.1031868435
  - # 7
    frequency:    25.1319057232
  - # 8
    frequency:    25.4597236718
  - # 9
    frequency:    42.1467822500
  - # 10
    frequency:    42.4497881432
  - # 11
    frequency:    46.5801183243
  - # 12
    frequency:    46.8709536177

- q-position: [    0.3333333,    0.1111111,    0.1250000 ]
  weight: 8    
  band:
  - # 1
    frequency:    16.9528092065
  - # 2
    frequency:    17.1075507474
  - # 3
    frequency:    18.5372177162
  - # 4
    frequency:    18.6563849431
  - # 5
    frequency:    18.7319037487
  - # 6
    frequency:    18.8483905403
  - # 7
    frequency:    31.2022568379
  - # 8
    frequency:    31.5507987892
  - # 9
    frequency:    41.2490220192
  - # 10
    frequency:    41.3261720400
  - # 11
    frequency:    46.2852182986
  - # 12
    frequency:    46.3808649054

- q-position: [   -0.5555556,    0.1111111,    0.1250000 ]
  weight: 8    
  band:
  - # 1
    frequency:    16.9952196394
  - # 2
    frequency:    17.1649963139
  - # 3
    frequency:    17.2289783227
  - # 4
    frequency:    17.5197372897
  - # 5
    frequency:    18.3022433452
  - # 6
    frequency:    18.4061156828
  - # 7
    frequency:    35.1606945460
  - # 8
    frequency:    35.2820795406
  - # 9
    frequency:    40.6192392514
  - # 10
    frequency:    40.7763801771
  - # 11
    frequency:    45.6519749786
  - # 12
    frequency:    45.6792220534

- q-position: [   -0.4444444,    0.1111111,    0.1250000 ]
  weight: 8    
  band:
  - # 1
    frequency:    14.0379436383
  - # 2
    frequency:    14.5960471479
  - # 3
    frequency:    15.5214094444
  - # 4
    frequency:    16.1407033272
  - # 5
    frequency:    19.3979381296
  - # 6
    frequency:    19.9525763673
  - # 7
    frequency:    35.8995075862
  - # 8
    frequency:    36.2652397400
  - # 9
    frequency:    40.3259436384
  - # 10
    frequency:    40.3454969180
  - # 11
    frequency:    45.2405152445
  - # 12
    frequency:    45.3792667277

- q-position: [   -0.3333333,    0.1111111,    0.1250000 ]
  weight: 8    
  band:
  - # 1
    frequency:     9.7005409879
  - # 2
    frequency:    10.6491977157
  - # 3
    frequency:    12.3855700728
  - # 4
    frequency:    14.4411901796
  - # 5
    frequency:    21.4152777090
  - # 6
    frequency:    22.3734520717
  - # 7
    frequency:    29.9597568538
  - # 8
    frequency:    30.4137822053
  - # 9
    frequency:    42.8480553606
  - # 10
    frequency:    43.1915005495
  - # 11
    frequency:    45.3800642012
  - # 12
    frequency:    45.7491904451

- q-position: [   -0.2222222,    0.1111111,    0.1250000 ]
  weight: 8    
  band:
  - # 1
    frequency:     5.9634294996
  - # 2
    frequency:     7.3872102591
  - # 3
    frequency:     8.1061748751
  - # 4
    frequency:    12.4702653465
  - # 5
    frequency:    20.5804325174
  - # 6
    frequency:    21.1572361416
  - # 7
    frequency:    23.3863247099
  - # 8
    frequency:    24.5867094026
  - # 9
    frequency:    45.0311201927
  - # 10
    frequency:    45.6241309682
  - # 11
    frequency:    45.8416527226
  - # 12
    frequency:    46.4162346737

- q-position: [   -0.1111111,    0.1111111,    0.1250000 ]
  weight: 4    
  band:
  - # 1
    frequency:     4.4418749756
  - # 2
    frequency:     5.3790358152
  - # 3
    frequency:     6.5740894653
  - # 4
    frequency:    10.8934085533
  - # 5
    frequency:    11.2705198884
  - # 6
    frequency:    11.7619321972
  - # 7
    frequency:    24.4500173341
  - # 8
    frequency:    25.7156818866
  - # 9
    frequency:    45.8644744528
  - # 10
    frequency:    46.3143275015
  - # 11
    frequency:    46.6149032025
  - # 12
    frequency:    47.0381051316

- q-position: [    0.2222222,    0.2222222,    0.1250000 ]
  weight: 4    
  band:
  - # 1
    frequency:    16.9561825657
  - # 2
    frequency:    17.1048019081
  - # 3
    frequency:    18.6016209870
  - # 4
    frequency:    18.7794538665
  - # 5
    frequency:    24.3841446135
  - # 6
    frequency:    24.4970545882
  - # 7
    frequency:    26.0370733739
  - # 8
    frequency:    26.1974095300
  - # 9
    frequency:    41.2129280085
  - # 10
    frequency:    41.2839926811
  - # 11
    frequency:    46.7266255312
  - # 12
    frequency:    46.8333485814

- q-position: [    0.3333333,    0.2222222,    0.1250000 ]
  weight: 8    
  band:
  - # 1
    frequency:    17.0113108827
  - # 2
    frequency:    17.2969501178
  - # 3
    frequency:    18.1099521883
  - # 4
    frequency:    18.3024509273
  - # 5
    frequency:    22.9494592327
  - # 6
    frequency:    23.1929144600
  - # 7
    frequency:    31.3453829578
  - # 8
    frequency:    31.6070713027
  - # 9
    frequency:    40.5067033514
  - # 10
    frequency:    40.6090134257
  - # 11
    frequency:    46.3572538213
  - # 12
    frequency:    46.3672273544

- q-position: [   -0.5555556,    0.2222222,    0.1250000 ]
  weight: 8    
  band:
  - # 1
    frequency:    16.4394036165
  - # 2
    frequency:    16.6761123191
  - # 3
    frequency:    18.5883197989
  - # 4
    frequency:    18.9128053479
  - # 5
    frequency:    19.9886841993
  - # 6
    frequency:    20.3642699296
  - # 7
    frequency:    36.1901523294
  - # 8
    frequency:    36.3098697457
  - # 9
    frequency:    38.8972641383
  - # 10
    frequency:    39.1541349385
  - # 11
    frequency:    45.5202053733
  - # 12
    frequency:    45.5454078474

- q-position: [   -0.4444444,    0.2222222,    0.1250000 ]
  weight: 8    
  band:
  - # 1
    frequency:    14.2222513166
  - # 2
    frequency:    15.5343010447
  - # 3
    frequency:    16.0008896110
  - # 4
    frequency:    16.5864468327
  - # 5
    frequency:    20.0148929735
  - # 6
    frequency:    20.8545149940
  - # 7
    frequency:    34.9071489922
  - # 8
    frequency:    35.3164261107
  - # 9
    frequency:    40.3970197335
  - # 10
    frequency:    40.5576235837
  - # 11
    frequency:    44.9974179187
  - # 12
    frequency:    45.1637638340

- q-position: [   -0.3333333,    0.2222222,    0.1250000 ]
  weight: 8    
  band:
  - # 1
    frequency:    10.9038769364
  - # 2
    frequency:    12.5393186118
  - # 3
    frequency:    13.3449240388
  - # 4
    frequency:    13.8326354846
  - # 5
    frequency:    21.8930741121
  - # 6
    frequency:    23.0578467882
  - # 7
    frequency:    28.2246911816
  - # 8
    frequency:    28.7923970655
  - # 9
    frequency:    43.2772584925
  - # 10
    frequency:    43.7096600868
  - # 11
    frequency:    45.3132891906
  - # 12
    frequency:    45.6742850694

- q-position: [   -0.2222222,    0.2222222,    0.1250000 ]
  weight: 4    
  band:
  - # 1
    frequency:     8.0075199620
  - # 2
    frequency:    10.7110089833
  - # 3
    frequency:    11.6177017571
  - # 4
    frequency:    12.5138386788
  - # 5
    frequency:    21.2259038055
  - # 6
    frequency:    21.9661383804
  - # 7
    frequency:    23.1953794146
  - # 8
    frequency:    24.4791483756
  - # 9
    frequency:    44.5521409835
  - # 10
    frequency:    45.1739170588
  - # 11
    frequency:    45.9736605237
  - # 12
    frequency:    46.5036558842

- q-position: [   -0.6666667,    0.3333333,    0.1250000 ]
  weight: 4    
  band:
  - # 1
    frequency:    17.0394039448
  - # 2
    frequency:    17.3381658861
  - # 3
    frequency:    17.9742736285
  - # 4
    frequency:    18.1147434032
  - # 5
    frequency:    24.2820410380
  - # 6
    frequency:    24.3122363273
  - # 7
    frequency:    33.1152882846
  - # 8
    frequency:    33.4389810940
  - # 9
    frequency:    39.6632214110
  - # 10
    frequency:    39.7654454357
  - # 11
    frequency:    45.7445760505
  - # 12
    frequency:    45.7738731646

- q-position: [   -0.5555556,    0.3333333,    0.1250000 ]
  weight: 8    
  band:
  - # 1
    frequency:    16.3011647041
  - # 2
    frequency:    16.9424671493
  - # 3
    frequency:    18.3918729304
  - # 4
    frequency:    18.9924258879
  - # 5
    frequency:    21.6706071708
  - # 6
    frequency:    21.8539126073
  - # 7
    frequency:    36.2023657657
  - # 8
    frequency:    36.5193573387
  - # 9
    frequency:    39.0318787530
  - # 10
    frequency:    39.1575571819
  - # 11
    frequency:    44.6360347681
  - # 12
    frequency:    44.6552288759

- q-position: [   -0.4444444,    0.3333333,    0.1250000 ]
  weight: 8    
  band:
  - # 1
    frequency:    13.8955930751
  - # 2
    frequency:    15.5772906024
  - # 3
    frequency:    17.8320524548
  - # 4
    frequency:    18.2047627006
  - # 5
    frequency:    20.0015814335
  - # 6
    frequency:    20.9780559472
  - # 7
    frequency:    34.5265983007
  - # 8
    frequency:    34.9900901154
  - # 9
    frequency:    41.1840956009
  - # 10
    frequency:    41.3729757195
  - # 11
    frequency:    44.0973006672
  - # 12
    frequency:    44.2239634439

- q-position: [   -0.3333333,    0.3333333,    0.1250000 ]
  weight: 4    
  band:
  - # 1
    frequency:    11.6072773599
  - # 2
    frequency:    14.3022878848
  - # 3
    frequency:    15.2998131608
  - # 4
    frequency:    15.8656294701
  - # 5
    frequency:    21.3582940388
  - # 6
    frequency:    22.5330456787
  - # 7
    frequency:    30.1283778555
  - # 8
    frequency:    30.7231902526
  - # 9
    frequency:    42.8302438614
  - # 10
    frequency:    43.2619556510
  - # 11
    frequency:    44.7633181366
  - # 12
    frequency:    45.0589966471

- q-position: [   -0.5555556,    0.4444444,    0.1250000 ]
  weight: 4    
  band:
  - # 1
    frequency:    15.8491835533
  - # 2
    frequency:    16.8439960317
  - # 3
    frequency:    18.6448760906
  - # 4
    frequency:    19.3763291909
  - # 5
    frequency:    20.0640512359
  - # 6
    frequency:    20.0681252219
  - # 7
    frequency:    38.1518602453
  - # 8
    frequency:    38.5036744472
  - # 9
    frequency:    39.6106857514
  - # 10
    frequency:    39.6622840649
  - # 11
    frequency:    42.9048224889
  - # 12
    frequency:    42.9092937662

- q-position: [   -0.4444444,    0.4444444,    0.1250000 ]
  weight: 4    
  band:
  - # 1
    frequency:    14.6706420936
  - # 2
    frequency:    16.1767462567
  - # 3
    frequency:    18.1989509329
  - # 4
    frequency:    18.3880957875
  - # 5
    frequency:    19.4164937595
  - # 6
    frequency:    20.3374998850
  - # 7
    frequency:    37.1047632410
  - # 8
    frequency:    37.5065357203
  - # 9
    frequency:    41.5127650777
  - # 10
    frequency:    41.7699836925
  - # 11
    frequency:    41.9779213338
  - # 12
    frequency:    42.2080059039

- q-position: [    0.0000000,    0.0000000,    0.3750000 ]
  weight: 2    
  band:
  - # 1
    frequency:     1.6109764346
  - # 2
    frequency:     1.6128586150
  - # 3
    frequency:     2.3581153172
  - # 4
    frequency:     2.3584485430
  - # 5
    frequency:     6.2284245663
  - # 6
    frequency:     9.2497641225
  - # 7
    frequency:    25.4210832157
  - # 8
    frequency:    25.9330734512
  - # 9
    frequency:    46.6058863673
  - # 10
    frequency:    46.6159250121
  - # 11
    frequency:    46.9349409971
  - # 12
    frequency:    46.9460860431

- q-position: [    0.1111111,    0.0000000,    0.3750000 ]
  weight: 8    
  band:
  - # 1
    frequency:     5.1646496499
  - # 2
    frequency:     5.5383112824
  - # 3
    frequency:     8.2832030928
  - # 4
    frequency:    10.4730861214
  - # 5
    frequency:    12.6045357570
  - # 6
    frequency:    12.7872885466
  - # 7
    frequency:    24.6986624700
  - # 8
    frequency:    25.1796575972
  - # 9
    frequency:    45.8707764946
  - # 10
    frequency:    46.1701859461
  - # 11
    frequency:    46.5278677625
  - # 12
    frequency:    46.8216040784

- q-position: [    0.2222222,    0.0000000,    0.3750000 ]
  weight: 8    
  band:
  - # 1
    frequency:     9.5453737217
  - # 2
    frequency:     9.7849192167
  - # 3
    frequency:    11.9955435938
  - # 4
    frequency:    13.0698959744
  - # 5
    frequency:    22.7532868659
  - # 6
    frequency:    23.1296251333
  - # 7
    frequency:    23.5509921270
  - # 8
    frequency:    23.6995696366
  - # 9
    frequency:    43.9719895476
  - # 10
    frequency:    44.1823972043
  - # 11
    frequency:    46.2853954872
  - # 12
    frequency:    46.4898716447

- q-position: [    0.3333333,    0.0000000,    0.3750000 ]
  weight: 8    
  band:
  - # 1
    frequency:    13.0332628600
  - # 2
    frequency:    13.1731900200
  - # 3
    frequency:    15.1746574652
  - # 4
    frequency:    15.5270740724
  - # 5
    frequency:    20.3239659845
  - # 6
    frequency:    20.5751982842
  - # 7
    frequency:    31.4687639676
  - # 8
    frequency:    31.6380309450
  - # 9
    frequency:    41.9479387117
  - # 10
    frequency:    42.0260905715
  - # 11
    frequency:    45.8854519228
  - # 12
    frequency:    45.9865559018

- q-position: [    0.4444444,    0.0000000,    0.3750000 ]
  weight: 8    
  band:
  - # 1
    frequency:    14.9983008297
  - # 2
    frequency:    15.0583898081
  - # 3
    frequency:    17.0689616532
  - # 4
    frequency:    17.1549855948
  - # 5
    frequency:    18.4338037729
  - # 6
    frequency:    18.4962015622
  - # 7
    frequency:    35.1211464124
  - # 8
    frequency:    35.2210562828
  - # 9
    frequency:    41.2523118815
  - # 10
    frequency:    41.2806262686
  - # 11
    frequency:    45.4522015137
  - # 12
    frequency:    45.4804966328

- q-position: [    0.1111111,    0.1111111,    0.3750000 ]
  weight: 4    
  band:
  - # 1
    frequency:    11.6115219125
  - # 2
    frequency:    12.7740939015
  - # 3
    frequency:    14.8285691379
  - # 4
    frequency:    14.9054206471
  - # 5
    frequency:    17.1851940506
  - # 6
    frequency:    17.2730703718
  - # 7
    frequency:    23.1166942954
  - # 8
    frequency:    23.4973329823
  - # 9
    frequency:    44.1140134322
  - # 10
    frequency:    44.3521561898
  - # 11
    frequency:    46.7187267531
  - # 12
    frequency:    46.9377495718

- q-position: [    0.2222222,    0.1111111,    0.3750000 ]
  weight: 8    
  band:
  - # 1
    frequency:    14.9000323424
  - # 2
    frequency:    15.2926339842
  - # 3
    frequency:    18.1352993888
  - # 4
    frequency:    18.1830460730
  - # 5
    frequency:    20.7444952687
  - # 6
    frequency:    20.9849359426
  - # 7
    frequency:    25.2370306890
  - # 8
    frequency:    25.3720857579
  - # 9
    frequency:    42.2477223888
  - # 10
    frequency:    42.3732811099
  - # 11
    frequency:    46.6775262228
  - # 12
    frequency:    46.7979994171

- q-position: [    0.3333333,    0.1111111,    0.3750000 ]
  weight: 8    
  band:
  - # 1
    frequency:    17.0389070778
  - # 2
    frequency:    17.1277460605
  - # 3
    frequency:    18.4853763665
  - # 4
    frequency:    18.5382305065
  - # 5
    frequency:    18.8047204966
  - # 6
    frequency:    18.8721310337
  - # 7
    frequency:    31.3088378427
  - # 8
    frequency:    31.4530861734
  - # 9
    frequency:    41.2750475909
  - # 10
    frequency:    41.3071119748
  - # 11
    frequency:    46.3185579173
  - # 12
    frequency:    46.3582458401

- q-position: [   -0.5555556,    0.1111111,    0.3750000 ]
  weight: 8    
  band:
  - # 1
    frequency:    17.0317033302
  - # 2
    frequency:    17.1437705975
  - # 3
    frequency:    17.3561291047
  - # 4
    frequency:    17.4563126863
  - # 5
    frequency:    18.2900979135
  - # 6
    frequency:    18.3129967131
  - # 7
    frequency:    35.2022588313
  - # 8
    frequency:    35.2524960877
  - # 9
    frequency:    40.6626478182
  - # 10
    frequency:    40.7278902176
  - # 11
    frequency:    45.6632862585
  - # 12
    frequency:    45.6746380299

- q-position: [   -0.4444444,    0.1111111,    0.3750000 ]
  weight: 8    
  band:
  - # 1
    frequency:    14.1974971402
  - # 2
    frequency:    14.4286529858
  - # 3
    frequency:    15.7024269297
  - # 4
    frequency:    15.9541038524
  - # 5
    frequency:    19.5830230073
  - # 6
    frequency:    19.8103498231
  - # 7
    frequency:    36.0074498813
  - # 8
    frequency:    36.1589320859
  - # 9
    frequency:    40.3364927981
  - # 10
    frequency:    40.3445814613
  - # 11
    frequency:    45.2882584655
  - # 12
    frequency:    45.3457559579

- q-position: [   -0.3333333,    0.1111111,    0.3750000 ]
  weight: 8    
  band:
  - # 1
    frequency:     9.9760000497
  - # 2
    frequency:    10.3694968888
  - # 3
    frequency:    13.0213431400
  - # 4
    frequency:    13.8701671232
  - # 5
    frequency:    21.7765308039
  - # 6
    frequency:    22.1717228509
  - # 7
    frequency:    30.0906881704
  - # 8
    frequency:    30.2787846636
  - # 9
    frequency:    42.9647580498
  - # 10
    frequency:    43.1070726764
  - # 11
    frequency:    45.5016017028
  - # 12
    frequency:    45.6545342424

- q-position: [   -0.2222222,    0.1111111,    0.3750000 ]
  weight: 8    
  band:
  - # 1
    frequency:     6.3980010685
  - # 2
    frequency:     6.9905502914
  - # 3
    frequency:     9.6166976159
  - # 4
    frequency:    11.3866140886
  - # 5
    frequency:    20.7506541693
  - # 6
    frequency:    20.9896545314
  - # 7
    frequency:    23.8649934219
  - # 8
    frequency:    24.3604228514
  - # 9
    frequency:    45.2334101806
  - # 10
    frequency:    45.4840547567
  - # 11
    frequency:    46.0210541292
  - # 12
    frequency:    46.2640643615

- q-position: [   -0.1111111,    0.1111111,    0.3750000 ]
  weight: 4    
  band:
  - # 1
    frequency:     5.7651879098
  - # 2
    frequency:     6.2572589788
  - # 3
    frequency:     7.1859152200
  - # 4
    frequency:     9.7969001818
  - # 5
    frequency:    11.1711792978
  - # 6
    frequency:    11.5309087532
  - # 7
    frequency:    24.9716937285
  - # 8
    frequency:    25.4947620755
  - # 9
    frequency:    46.1110655067
  - # 10
    frequency:    46.4217594902
  - # 11
    frequency:    46.5535257538
  - # 12
    frequency:    46.8531979978

- q-position: [    0.2222222,    0.2222222,    0.3750000 ]
  weight: 4    
  band:
  - # 1
    frequency:    17.0481670758
  - # 2
    frequency:    17.1308579837
  - # 3
    frequency:    18.6141505135
  - # 4
    frequency:    18.6672082871
  - # 5
    frequency:    24.4429781292
  - # 6
    frequency:    24.4885839439
  - # 7
    frequency:    26.0751373406
  - # 8
    frequency:    26.1416994492
  - # 9
    frequency:    41.2384223729
  - # 10
    frequency:    41.2679624963
  - # 11
    frequency:    46.7631938046
  - # 12
    frequency:    46.8074683205

- q-position: [    0.3333333,    0.2222222,    0.3750000 ]
  weight: 8    
  band:
  - # 1
    frequency:    17.0859899779
  - # 2
    frequency:    17.2400139194
  - # 3
    frequency:    18.1404038064
  - # 4
    frequency:    18.1876862035
  - # 5
    frequency:    23.0299599684
  - # 6
    frequency:    23.1308254448
  - # 7
    frequency:    31.4233995248
  - # 8
    frequency:    31.5317610541
  - # 9
    frequency:    40.5369469059
  - # 10
    frequency:    40.5793087951
  - # 11
    frequency:    46.3615823950
  - # 12
    frequency:    46.3657275177

- q-position: [   -0.5555556,    0.2222222,    0.3750000 ]
  weight: 8    
  band:
  - # 1
    frequency:    16.4848648593
  - # 2
    frequency:    16.5713561627
  - # 3
    frequency:    18.6794016467
  - # 4
    frequency:    18.8070773396
  - # 5
    frequency:    20.1074148148
  - # 6
    frequency:    20.2628635549
  - # 7
    frequency:    36.2301052039
  - # 8
    frequency:    36.2796655350
  - # 9
    frequency:    38.9696960001
  - # 10
    frequency:    39.0762851405
  - # 11
    frequency:    45.5300144077
  - # 12
    frequency:    45.5404580486

- q-position: [   -0.4444444,    0.2222222,    0.3750000 ]
  weight: 8    
  band:
  - # 1
    frequency:    14.5819279589
  - # 2
    frequency:    15.1229259029
  - # 3
    frequency:    16.1747353554
  - # 4
    frequency:    16.4181241315
  - # 5
    frequency:    20.3057592303
  - # 6
    frequency:    20.6518210204
  - # 7
    frequency:    35.0244396205
  - # 8
    frequency:    35.1939226979
  - # 9
    frequency:    40.4540663367
  - # 10
    frequency:    40.5205547741
  - # 11
    frequency:    45.0533093090
  - # 12
    frequency:    45.1222186771

- q-position: [   -0.3333333,    0.2222222,    0.3750000 ]
  weight: 8    
  band:
  - # 1
    frequency:    11.7846236849
  - # 2
    frequency:    12.8011299142
  - # 3
    frequency:    12.9098439383
  - # 4
    frequency:    13.2205600555
  - # 5
    frequency:    22.3211567657
  - # 6
    frequency:    22.8011309924
  - # 7
    frequency:    28.3908363927
  - # 8
    frequency:    28.6259163089
  - # 9
    frequency:    43.4214602841
  - # 10
    frequency:    43.6008383842
  - # 11
    frequency:    45.4317250746
  - # 12
    frequency:    45.5815298556

- q-position: [   -0.2222222,    0.2222222,    0.3750000 ]
  weight: 4    
  band:
  - # 1
    frequency:     9.5340699435
  - # 2
    frequency:    10.9847562490
  - # 3
    frequency:    11.3599230347
  - # 4
    frequency:    11.3677218849
  - # 5
    frequency:    21.4445760278
  - # 6
    frequency:    21.7503677882
  - # 7
    frequency:    23.6939791685
  - # 8
    frequency:    24.2219426185
  - # 9
    frequency:    44.7545767370
  - # 10
    frequency:    45.0120254822
  - # 11
    frequency:    46.1498443099
  - # 12
    frequency:    46.3693152894

- q-position: [   -0.6666667,    0.3333333,    0.3750000 ]
  weight: 4    
  band:
  - # 1
    frequency:    17.0560893133
  - # 2
    frequency:    17.1866195444
  - # 3
    frequency:    18.0383580583
  - # 4
    frequency:    18.0904275462
  - # 5
    frequency:    24.2939378895
  - # 6
    frequency:    24.3064420483
  - # 7
    frequency:    33.2124343431
  - # 8
    frequency:    33.3463972875
  - # 9
    frequency:    39.6913932331
  - # 10
    frequency:    39.7336829668
  - # 11
    frequency:    45.7534326003
  - # 12
    frequency:    45.7655633989

- q-position: [   -0.5555556,    0.3333333,    0.3750000 ]
  weight: 8    
  band:
  - # 1
    frequency:    16.4602497398
  - # 2
    frequency:    16.7266726489
  - # 3
    frequency:    18.5665034857
  - # 4
    frequency:    18.8172663392
  - # 5
    frequency:    21.7255638002
  - # 6
    frequency:    21.8013272609
  - # 7
    frequency:    36.3019691754
  - # 8
    frequency:    36.4330819643
  - # 9
    frequency:    39.0663374145
  - # 10
    frequency:    39.1183111486
  - # 11
    frequency:    44.6434717754
  - # 12
    frequency:    44.6514189924

- q-position: [   -0.4444444,    0.3333333,    0.3750000 ]
  weight: 8    
  band:
  - # 1
    frequency:    14.3807151425
  - # 2
    frequency:    15.0805278629
  - # 3
    frequency:    17.9397073564
  - # 4
    frequency:    18.0942990700
  - # 5
    frequency:    20.3171726419
  - # 6
    frequency:    20.7231185286
  - # 7
    frequency:    34.6640913922
  - # 8
    frequency:    34.8558898733
  - # 9
    frequency:    41.2488813404
  - # 10
    frequency:    41.3271745277
  - # 11
    frequency:    44.1391955812
  - # 12
    frequency:    44.1917062513

- q-position: [   -0.3333333,    0.3333333,    0.3750000 ]
  weight: 4    
  band:
  - # 1
    frequency:    12.4253304231
  - # 2
    frequency:    13.5405510950
  - # 3
    frequency:    15.4659320602
  - # 4
    frequency:    15.7002546423
  - # 5
    frequency:    21.7669503104
  - # 6
    frequency:    22.2523668091
  - # 7
    frequency:    30.3053223947
  - # 8
    frequency:    30.5515019743
  - # 9
    frequency:    42.9684823777
  - # 10
    frequency:    43.1472624143
  - # 11
    frequency:    44.8626860535
  - # 12
    frequency:    44.9851130611

- q-position: [   -0.5555556,    0.4444444,    0.3750000 ]
  weight: 4    
  band:
  - # 1
    frequency:    16.1641580952
  - # 2
    frequency:    16.5970365447
  - # 3
    frequency:    18.8060027872
  - # 4
    frequency:    19.1281829438
  - # 5
    frequency:    20.0660125621
  - # 6
    frequency:    20.0675454445
  - # 7
    frequency:    38.2688821953
  - # 8
    frequency:    38.4143510000
  - # 9
    frequency:    39.6223912959
  - # 10
    frequency:    39.6436209257
  - # 11
    frequency:    42.9057703112
  - # 12
    frequency:    42.9075924467

- q-position: [   -0.4444444,    0.4444444,    0.3750000 ]
  weight: 4    
  band:
  - # 1
    frequency:    15.1286730198
  - # 2
    frequency:    15.7634906406
  - # 3
    frequency:    18.2535531147
  - # 4
    frequency:    18.3319063585
  - # 5
    frequency:    19.6730421934
  - # 6
    frequency:    20.0639161648
  - # 7
    frequency:    37.2280719671
  - # 8
    frequency:    37.3940687878
  - # 9
    frequency:    41.5932803266
  - # 10
    frequency:    41.6998125023
  - # 11
    frequency:    42.0486656990
  - # 12
    frequency:    42.1441050702

