# Thermal properties / unit cell (natom)

unit:
  temperature:   K
  free_energy:   kJ/mol
  entropy:       J/K/mol
  heat_capacity: J/K/mol

natom:     4
num_modes: 3888
num_integrated_modes: 3888

zero_point_energy:      66.8109979
high_T_entropy:        228.7214199

thermal_properties:
- temperature:         0.0000000
  free_energy:        66.8109979
  entropy:             0.0000000
  heat_capacity:       0.0000000
  energy:             66.8109979

- temperature:        10.0000000
  free_energy:        66.8109302
  entropy:             0.0263188
  heat_capacity:       0.0594791
  energy:             66.8111934

- temperature:        20.0000000
  free_energy:        66.8103435
  entropy:             0.0932969
  heat_capacity:       0.1473780
  energy:             66.8122094

- temperature:        30.0000000
  free_energy:        66.8090205
  entropy:             0.1734965
  heat_capacity:       0.2612679
  energy:             66.8142254

- temperature:        40.0000000
  free_energy:        66.8068207
  entropy:             0.2697911
  heat_capacity:       0.4282017
  energy:             66.8176124

- temperature:        50.0000000
  free_energy:        66.8035431
  entropy:             0.3904931
  heat_capacity:       0.6779283
  energy:             66.8230678

- temperature:        60.0000000
  free_energy:        66.7989044
  entropy:             0.5430668
  heat_capacity:       1.0230456
  energy:             66.8314884

- temperature:        70.0000000
  free_energy:        66.7925560
  entropy:             0.7333679
  heat_capacity:       1.4772842
  energy:             66.8438918

- temperature:        80.0000000
  free_energy:        66.7840924
  entropy:             0.9670894
  heat_capacity:       2.0590788
  energy:             66.8614595

- temperature:        90.0000000
  free_energy:        66.7730500
  entropy:             1.2500578
  heat_capacity:       2.7851669
  energy:             66.8855552

- temperature:       100.0000000
  free_energy:        66.7589089
  entropy:             1.5876661
  heat_capacity:       3.6647238
  energy:             66.9176755

- temperature:       110.0000000
  free_energy:        66.7411002
  entropy:             1.9841813
  heat_capacity:       4.6970957
  energy:             66.9593601

- temperature:       120.0000000
  free_energy:        66.7190198
  entropy:             2.4422956
  heat_capacity:       5.8725859
  energy:             67.0120953

- temperature:       130.0000000
  free_energy:        66.6920455
  entropy:             2.9629958
  heat_capacity:       7.1748776
  energy:             67.0772349

- temperature:       140.0000000
  free_energy:        66.6595531
  entropy:             3.5456825
  heat_capacity:       8.5838837
  energy:             67.1559486

- temperature:       150.0000000
  free_energy:        66.6209315
  entropy:             4.1884379
  heat_capacity:      10.0782853
  energy:             67.2491972

- temperature:       160.0000000
  free_energy:        66.5755937
  entropy:             4.8883514
  heat_capacity:      11.6374376
  energy:             67.3577300

- temperature:       170.0000000
  free_energy:        66.5229858
  entropy:             5.6418421
  heat_capacity:      13.2425958
  energy:             67.4820990

- temperature:       180.0000000
  free_energy:        66.4625915
  entropy:             6.4449411
  heat_capacity:      14.8775537
  energy:             67.6226809

- temperature:       190.0000000
  free_energy:        66.3939354
  entropy:             7.2935200
  heat_capacity:      16.5288428
  energy:             67.7797042

- temperature:       200.0000000
  free_energy:        66.3165833
  entropy:             8.1834630
  heat_capacity:      18.1856350
  energy:             67.9532758

- temperature:       210.0000000
  free_energy:        66.2301415
  entropy:             9.1107870
  heat_capacity:      19.8394735
  energy:             68.1434068

- temperature:       220.0000000
  free_energy:        66.1342555
  entropy:            10.0717196
  heat_capacity:      21.4839229
  energy:             68.3500338

- temperature:       230.0000000
  free_energy:        66.0286069
  entropy:            11.0627435
  heat_capacity:      23.1142011
  energy:             68.5730379

- temperature:       240.0000000
  free_energy:        65.9129112
  entropy:            12.0806156
  heat_capacity:      24.7268311
  energy:             68.8122589

- temperature:       250.0000000
  free_energy:        65.7869150
  entropy:            13.1223694
  heat_capacity:      26.3193351
  energy:             69.0675073

- temperature:       260.0000000
  free_energy:        65.6503932
  entropy:            14.1853057
  heat_capacity:      27.8899772
  energy:             69.3385727

- temperature:       270.0000000
  free_energy:        65.5031465
  entropy:            15.2669760
  heat_capacity:      29.4375571
  energy:             69.6252300

- temperature:       280.0000000
  free_energy:        65.3449987
  entropy:            16.3651626
  heat_capacity:      30.9612500
  energy:             69.9272442

- temperature:       290.0000000
  free_energy:        65.1757949
  entropy:            17.4778571
  heat_capacity:      32.4604861
  energy:             70.2443734

- temperature:       300.0000000
  free_energy:        64.9953992
  entropy:            18.6032393
  heat_capacity:      33.9348644
  energy:             70.5763710

- temperature:       310.0000000
  free_energy:        64.8036933
  entropy:            19.7396566
  heat_capacity:      35.3840914
  energy:             70.9229869

- temperature:       320.0000000
  free_energy:        64.6005744
  entropy:            20.8856060
  heat_capacity:      36.8079417
  energy:             71.2839683

- temperature:       330.0000000
  free_energy:        64.3859540
  entropy:            22.0397167
  heat_capacity:      38.2062324
  energy:             71.6590605

- temperature:       340.0000000
  free_energy:        64.1597570
  entropy:            23.2007359
  heat_capacity:      39.5788090
  energy:             72.0480072

- temperature:       350.0000000
  free_energy:        63.9219201
  entropy:            24.3675155
  heat_capacity:      40.9255389
  energy:             72.4505505

- temperature:       360.0000000
  free_energy:        63.6723910
  entropy:            25.5390012
  heat_capacity:      42.2463095
  energy:             72.8664314

- temperature:       370.0000000
  free_energy:        63.4111276
  entropy:            26.7142223
  heat_capacity:      43.5410289
  energy:             73.2953899

- temperature:       380.0000000
  free_energy:        63.1380971
  entropy:            27.8922838
  heat_capacity:      44.8096293
  energy:             73.7371650

- temperature:       390.0000000
  free_energy:        62.8532752
  entropy:            29.0723590
  heat_capacity:      46.0520697
  energy:             74.1914953

- temperature:       400.0000000
  free_energy:        62.5566458
  entropy:            30.2536833
  heat_capacity:      47.2683394
  energy:             74.6581191

- temperature:       410.0000000
  free_energy:        62.2481998
  entropy:            31.4355490
  heat_capacity:      48.4584604
  energy:             75.1367749

- temperature:       420.0000000
  free_energy:        61.9279352
  entropy:            32.6173004
  heat_capacity:      49.6224901
  energy:             75.6272013

- temperature:       430.0000000
  free_energy:        61.5958562
  entropy:            33.7983299
  heat_capacity:      50.7605221
  energy:             76.1291380

- temperature:       440.0000000
  free_energy:        61.2519729
  entropy:            34.9780743
  heat_capacity:      51.8726869
  energy:             76.6423256

- temperature:       450.0000000
  free_energy:        60.8963007
  entropy:            36.1560119
  heat_capacity:      52.9591520
  energy:             77.1665061

- temperature:       460.0000000
  free_energy:        60.5288603
  entropy:            37.3316594
  heat_capacity:      54.0201206
  energy:             77.7014236

- temperature:       470.0000000
  free_energy:        60.1496767
  entropy:            38.5045694
  heat_capacity:      55.0558306
  energy:             78.2468243

- temperature:       480.0000000
  free_energy:        59.7587794
  entropy:            39.6743282
  heat_capacity:      56.0665530
  energy:             78.8024569

- temperature:       490.0000000
  free_energy:        59.3562019
  entropy:            40.8405534
  heat_capacity:      57.0525891
  energy:             79.3680731

- temperature:       500.0000000
  free_energy:        58.9419813
  entropy:            42.0028925
  heat_capacity:      58.0142687
  energy:             79.9434275

- temperature:       510.0000000
  free_energy:        58.5161581
  entropy:            43.1610203
  heat_capacity:      58.9519475
  energy:             80.5282784

- temperature:       520.0000000
  free_energy:        58.0787759
  entropy:            44.3146381
  heat_capacity:      59.8660042
  energy:             81.1223877

- temperature:       530.0000000
  free_energy:        57.6298813
  entropy:            45.4634714
  heat_capacity:      60.7568378
  energy:             81.7255211

- temperature:       540.0000000
  free_energy:        57.1695233
  entropy:            46.6072689
  heat_capacity:      61.6248654
  energy:             82.3374485

- temperature:       550.0000000
  free_energy:        56.6977534
  entropy:            47.7458007
  heat_capacity:      62.4705192
  energy:             82.9579438

- temperature:       560.0000000
  free_energy:        56.2146255
  entropy:            48.8788576
  heat_capacity:      63.2942439
  energy:             83.5867857

- temperature:       570.0000000
  free_energy:        55.7201952
  entropy:            50.0062491
  heat_capacity:      64.0964949
  energy:             84.2237571

- temperature:       580.0000000
  free_energy:        55.2145200
  entropy:            51.1278028
  heat_capacity:      64.8777355
  energy:             84.8686456

- temperature:       590.0000000
  free_energy:        54.6976591
  entropy:            52.2433632
  heat_capacity:      65.6384350
  energy:             85.5212434

- temperature:       600.0000000
  free_energy:        54.1696732
  entropy:            53.3527904
  heat_capacity:      66.3790667
  energy:             86.1813474

- temperature:       610.0000000
  free_energy:        53.6306242
  entropy:            54.4559594
  heat_capacity:      67.1001062
  energy:             86.8487594

- temperature:       620.0000000
  free_energy:        53.0805752
  entropy:            55.5527590
  heat_capacity:      67.8020298
  energy:             87.5232858

- temperature:       630.0000000
  free_energy:        52.5195905
  entropy:            56.6430910
  heat_capacity:      68.4853129
  energy:             88.2047379

- temperature:       640.0000000
  free_energy:        51.9477352
  entropy:            57.7268692
  heat_capacity:      69.1504287
  energy:             88.8929315

- temperature:       650.0000000
  free_energy:        51.3650752
  entropy:            58.8040188
  heat_capacity:      69.7978470
  energy:             89.5876874

- temperature:       660.0000000
  free_energy:        50.7716772
  entropy:            59.8744755
  heat_capacity:      70.4280332
  energy:             90.2888310

- temperature:       670.0000000
  free_energy:        50.1676082
  entropy:            60.9381850
  heat_capacity:      71.0414473
  energy:             90.9961922

- temperature:       680.0000000
  free_energy:        49.5529361
  entropy:            61.9951021
  heat_capacity:      71.6385433
  energy:             91.7096056

- temperature:       690.0000000
  free_energy:        48.9277289
  entropy:            63.0451902
  heat_capacity:      72.2197681
  energy:             92.4289102

- temperature:       700.0000000
  free_energy:        48.2920552
  entropy:            64.0884205
  heat_capacity:      72.7855612
  energy:             93.1539495

- temperature:       710.0000000
  free_energy:        47.6459835
  entropy:            65.1247717
  heat_capacity:      73.3363541
  energy:             93.8845714

- temperature:       720.0000000
  free_energy:        46.9895827
  entropy:            66.1542295
  heat_capacity:      73.8725700
  energy:             94.6206280

- temperature:       730.0000000
  free_energy:        46.3229219
  entropy:            67.1767859
  heat_capacity:      74.3946234
  energy:             95.3619756

- temperature:       740.0000000
  free_energy:        45.6460700
  entropy:            68.1924386
  heat_capacity:      74.9029195
  energy:             96.1084746

- temperature:       750.0000000
  free_energy:        44.9590961
  entropy:            69.2011911
  heat_capacity:      75.3978545
  energy:             96.8599894

- temperature:       760.0000000
  free_energy:        44.2620692
  entropy:            70.2030517
  heat_capacity:      75.8798153
  energy:             97.6163884

- temperature:       770.0000000
  free_energy:        43.5550580
  entropy:            71.1980334
  heat_capacity:      76.3491791
  energy:             98.3775438

- temperature:       780.0000000
  free_energy:        42.8381314
  entropy:            72.1861537
  heat_capacity:      76.8063137
  energy:             99.1433313

- temperature:       790.0000000
  free_energy:        42.1113577
  entropy:            73.1674338
  heat_capacity:      77.2515773
  energy:             99.9136305

- temperature:       800.0000000
  free_energy:        41.3748054
  entropy:            74.1418987
  heat_capacity:      77.6853186
  energy:            100.6883244

- temperature:       810.0000000
  free_energy:        40.6285424
  entropy:            75.1095768
  heat_capacity:      78.1078768
  energy:            101.4672996

- temperature:       820.0000000
  free_energy:        39.8726364
  entropy:            76.0704992
  heat_capacity:      78.5195818
  energy:            102.2504458

- temperature:       830.0000000
  free_energy:        39.1071548
  entropy:            77.0247003
  heat_capacity:      78.9207540
  energy:            103.0376561

- temperature:       840.0000000
  free_energy:        38.3321647
  entropy:            77.9722168
  heat_capacity:      79.3117047
  energy:            103.8288268

- temperature:       850.0000000
  free_energy:        37.5477326
  entropy:            78.9130876
  heat_capacity:      79.6927362
  energy:            104.6238571

- temperature:       860.0000000
  free_energy:        36.7539249
  entropy:            79.8473540
  heat_capacity:      80.0641420
  energy:            105.4226494

- temperature:       870.0000000
  free_energy:        35.9508074
  entropy:            80.7750591
  heat_capacity:      80.4262066
  energy:            106.2251088

- temperature:       880.0000000
  free_energy:        35.1384455
  entropy:            81.6962476
  heat_capacity:      80.7792062
  energy:            107.0311433

- temperature:       890.0000000
  free_energy:        34.3169040
  entropy:            82.6109658
  heat_capacity:      81.1234085
  energy:            107.8406636

- temperature:       900.0000000
  free_energy:        33.4862476
  entropy:            83.5192616
  heat_capacity:      81.4590732
  energy:            108.6535830

- temperature:       910.0000000
  free_energy:        32.6465400
  entropy:            84.4211840
  heat_capacity:      81.7864516
  energy:            109.4698175

- temperature:       920.0000000
  free_energy:        31.7978450
  entropy:            85.3167829
  heat_capacity:      82.1057878
  energy:            110.2892853

- temperature:       930.0000000
  free_energy:        30.9402253
  entropy:            86.2061096
  heat_capacity:      82.4173177
  energy:            111.1119072

- temperature:       940.0000000
  free_energy:        30.0737435
  entropy:            87.0892158
  heat_capacity:      82.7212704
  energy:            111.9376064

- temperature:       950.0000000
  free_energy:        29.1984615
  entropy:            87.9661543
  heat_capacity:      83.0178673
  energy:            112.7663081

- temperature:       960.0000000
  free_energy:        28.3144408
  entropy:            88.8369782
  heat_capacity:      83.3073231
  energy:            113.5979399

- temperature:       970.0000000
  free_energy:        27.4217422
  entropy:            89.7017415
  heat_capacity:      83.5898458
  energy:            114.4324314

- temperature:       980.0000000
  free_energy:        26.5204260
  entropy:            90.5604984
  heat_capacity:      83.8656364
  energy:            115.2697144

- temperature:       990.0000000
  free_energy:        25.6105520
  entropy:            91.4133034
  heat_capacity:      84.1348900
  energy:            116.1097224

- temperature:      1000.0000000
  free_energy:        24.6921796
  entropy:            92.2602114
  heat_capacity:      84.3977952
  energy:            116.9523910
