# Thermal properties / unit cell (natom)

unit:
  temperature:   K
  free_energy:   kJ/mol
  entropy:       J/K/mol
  heat_capacity: J/K/mol

natom:     4
num_modes: 3888
num_integrated_modes: 2472

zero_point_energy:      19.0218840
high_T_entropy:        196.0027000

thermal_properties:
- temperature:         0.0000000
  free_energy:        19.0218840
  entropy:             0.0000000
  heat_capacity:       0.0000000
  energy:             19.0218840

- temperature:        10.0000000
  free_energy:        19.0218424
  entropy:             0.0203348
  heat_capacity:       0.0717588
  energy:             19.0220457

- temperature:        20.0000000
  free_energy:        19.0209133
  entropy:             0.2073650
  heat_capacity:       0.6323416
  energy:             19.0250606

- temperature:        30.0000000
  free_energy:        19.0168576
  entropy:             0.6412990
  heat_capacity:       1.6254641
  energy:             19.0360966

- temperature:        40.0000000
  free_energy:        19.0074215
  entropy:             1.2757543
  heat_capacity:       2.8836823
  energy:             19.0584517

- temperature:        50.0000000
  free_energy:        18.9908054
  entropy:             2.0713999
  heat_capacity:       4.3231180
  energy:             19.0943754

- temperature:        60.0000000
  free_energy:        18.9655702
  entropy:             2.9942099
  heat_capacity:       5.8571024
  energy:             19.1452228

- temperature:        70.0000000
  free_energy:        18.9305932
  entropy:             4.0157600
  heat_capacity:       7.4463548
  energy:             19.2116964

- temperature:        80.0000000
  free_energy:        18.8849904
  entropy:             5.1170072
  heat_capacity:       9.0963644
  energy:             19.2943509

- temperature:        90.0000000
  free_energy:        18.8280229
  entropy:             6.2874751
  heat_capacity:      10.8276481
  energy:             19.3938957

- temperature:       100.0000000
  free_energy:        18.7590278
  entropy:             7.5219213
  heat_capacity:      12.6531832
  energy:             19.5112199

- temperature:       110.0000000
  free_energy:        18.6773819
  entropy:             8.8171297
  heat_capacity:      14.5702949
  energy:             19.6472662

- temperature:       120.0000000
  free_energy:        18.5824934
  entropy:            10.1698572
  heat_capacity:      16.5622349
  energy:             19.8028762

- temperature:       130.0000000
  free_energy:        18.4738069
  entropy:            11.5759148
  heat_capacity:      18.6035503
  energy:             19.9786758

- temperature:       140.0000000
  free_energy:        18.3508148
  entropy:            13.0300093
  heat_capacity:      20.6655783
  energy:             20.1750162

- temperature:       150.0000000
  free_energy:        18.2130671
  entropy:            14.5259761
  heat_capacity:      22.7205540
  energy:             20.3919635

- temperature:       160.0000000
  free_energy:        18.0601780
  entropy:            16.0571497
  heat_capacity:      24.7440847
  energy:             20.6293219

- temperature:       170.0000000
  free_energy:        17.8918294
  entropy:            17.6167302
  heat_capacity:      26.7162838
  energy:             20.8866735

- temperature:       180.0000000
  free_energy:        17.7077708
  entropy:            19.1980812
  heat_capacity:      28.6219899
  energy:             21.1634254

- temperature:       190.0000000
  free_energy:        17.5078162
  entropy:            20.7949435
  heat_capacity:      30.4504444
  energy:             21.4588554

- temperature:       200.0000000
  free_energy:        17.2918395
  entropy:            22.4015693
  heat_capacity:      32.1947041
  energy:             21.7721533

- temperature:       210.0000000
  free_energy:        17.0597695
  entropy:            24.0127923
  heat_capacity:      33.8509657
  energy:             22.1024559

- temperature:       220.0000000
  free_energy:        16.8115836
  entropy:            25.6240506
  heat_capacity:      35.4179060
  energy:             22.4488747

- temperature:       230.0000000
  free_energy:        16.5473017
  entropy:            27.2313754
  heat_capacity:      36.8960910
  energy:             22.8105180

- temperature:       240.0000000
  free_energy:        16.2669806
  entropy:            28.8313603
  heat_capacity:      38.2874742
  energy:             23.1865071

- temperature:       250.0000000
  free_energy:        15.9707086
  entropy:            30.4211170
  heat_capacity:      39.5949865
  energy:             23.5759879

- temperature:       260.0000000
  free_energy:        15.6586005
  entropy:            31.9982257
  heat_capacity:      40.8222107
  energy:             23.9781391

- temperature:       270.0000000
  free_energy:        15.3307930
  entropy:            33.5606842
  heat_capacity:      41.9731297
  energy:             24.3921777

- temperature:       280.0000000
  free_energy:        14.9874411
  entropy:            35.1068580
  heat_capacity:      43.0519349
  energy:             24.8173613

- temperature:       290.0000000
  free_energy:        14.6287145
  entropy:            36.6354335
  heat_capacity:      44.0628850
  energy:             25.2529902

- temperature:       300.0000000
  free_energy:        14.2547946
  entropy:            38.1453746
  heat_capacity:      45.0102034
  energy:             25.6984069

- temperature:       310.0000000
  free_energy:        13.8658718
  entropy:            39.6358842
  heat_capacity:      45.8980062
  energy:             26.1529959

- temperature:       320.0000000
  free_energy:        13.4621437
  entropy:            41.1063696
  heat_capacity:      46.7302534
  energy:             26.6161819

- temperature:       330.0000000
  free_energy:        13.0438126
  entropy:            42.5564116
  heat_capacity:      47.5107178
  energy:             27.0874284

- temperature:       340.0000000
  free_energy:        12.6110845
  entropy:            43.9857385
  heat_capacity:      48.2429673
  energy:             27.5662356

- temperature:       350.0000000
  free_energy:        12.1641674
  entropy:            45.3942025
  heat_capacity:      48.9303564
  energy:             28.0521382

- temperature:       360.0000000
  free_energy:        11.7032701
  entropy:            46.7817598
  heat_capacity:      49.5760249
  energy:             28.5447037

- temperature:       370.0000000
  free_energy:        11.2286017
  entropy:            48.1484533
  heat_capacity:      50.1829012
  energy:             29.0435294

- temperature:       380.0000000
  free_energy:        10.7403702
  entropy:            49.4943980
  heat_capacity:      50.7537096
  energy:             29.5482415

- temperature:       390.0000000
  free_energy:        10.2387823
  entropy:            50.8197680
  heat_capacity:      51.2909789
  energy:             30.0584919

- temperature:       400.0000000
  free_energy:         9.7240427
  entropy:            52.1247859
  heat_capacity:      51.7970528
  energy:             30.5739571

- temperature:       410.0000000
  free_energy:         9.1963536
  entropy:            53.4097136
  heat_capacity:      52.2741012
  energy:             31.0943362

- temperature:       420.0000000
  free_energy:         8.6559144
  entropy:            54.6748443
  heat_capacity:      52.7241312
  energy:             31.6193491

- temperature:       430.0000000
  free_energy:         8.1029216
  entropy:            55.9204961
  heat_capacity:      53.1489982
  energy:             32.1487349

- temperature:       440.0000000
  free_energy:         7.5375683
  entropy:            57.1470058
  heat_capacity:      53.5504172
  energy:             32.6822509

- temperature:       450.0000000
  free_energy:         6.9600442
  entropy:            58.3547250
  heat_capacity:      53.9299729
  energy:             33.2196704

- temperature:       460.0000000
  free_energy:         6.3705353
  entropy:            59.5440154
  heat_capacity:      54.2891297
  energy:             33.7607824

- temperature:       470.0000000
  free_energy:         5.7692241
  entropy:            60.7152457
  heat_capacity:      54.6292410
  energy:             34.3053895

- temperature:       480.0000000
  free_energy:         5.1562893
  entropy:            61.8687887
  heat_capacity:      54.9515582
  energy:             34.8533079

- temperature:       490.0000000
  free_energy:         4.5319060
  entropy:            63.0050189
  heat_capacity:      55.2572384
  energy:             35.4043653

- temperature:       500.0000000
  free_energy:         3.8962454
  entropy:            64.1243108
  heat_capacity:      55.5473522
  energy:             35.9584008

- temperature:       510.0000000
  free_energy:         3.2494750
  entropy:            65.2270367
  heat_capacity:      55.8228906
  energy:             36.5152637

- temperature:       520.0000000
  free_energy:         2.5917586
  entropy:            66.3135662
  heat_capacity:      56.0847715
  energy:             37.0748131

- temperature:       530.0000000
  free_energy:         1.9232564
  entropy:            67.3842642
  heat_capacity:      56.3338455
  energy:             37.6369165

- temperature:       540.0000000
  free_energy:         1.2441249
  entropy:            68.4394907
  heat_capacity:      56.5709010
  energy:             38.2014499

- temperature:       550.0000000
  free_energy:         0.5545170
  entropy:            69.4795997
  heat_capacity:      56.7966700
  energy:             38.7682969

- temperature:       560.0000000
  free_energy:        -0.1454178
  entropy:            70.5049389
  heat_capacity:      57.0118317
  energy:             39.3373480

- temperature:       570.0000000
  free_energy:        -0.8555337
  entropy:            71.5158490
  heat_capacity:      57.2170173
  energy:             39.9085003

- temperature:       580.0000000
  free_energy:        -1.5756878
  entropy:            72.5126635
  heat_capacity:      57.4128138
  energy:             40.4816570

- temperature:       590.0000000
  free_energy:        -2.3057410
  entropy:            73.4957087
  heat_capacity:      57.5997670
  energy:             41.0567271

- temperature:       600.0000000
  free_energy:        -3.0455572
  entropy:            74.4653029
  heat_capacity:      57.7783853
  energy:             41.6336246

- temperature:       610.0000000
  free_energy:        -3.7950033
  entropy:            75.4217572
  heat_capacity:      57.9491423
  energy:             42.2122686

- temperature:       620.0000000
  free_energy:        -4.5539495
  entropy:            76.3653745
  heat_capacity:      58.1124795
  energy:             42.7925827

- temperature:       630.0000000
  free_energy:        -5.3222690
  entropy:            77.2964505
  heat_capacity:      58.2688090
  energy:             43.3744948

- temperature:       640.0000000
  free_energy:        -6.0998377
  entropy:            78.2152726
  heat_capacity:      58.4185154
  energy:             43.9579368

- temperature:       650.0000000
  free_energy:        -6.8865345
  entropy:            79.1221212
  heat_capacity:      58.5619581
  energy:             44.5428442

- temperature:       660.0000000
  free_energy:        -7.6822411
  entropy:            80.0172687
  heat_capacity:      58.6994732
  energy:             45.1291562

- temperature:       670.0000000
  free_energy:        -8.4868418
  entropy:            80.9009803
  heat_capacity:      58.8313750
  energy:             45.7168150

- temperature:       680.0000000
  free_energy:        -9.3002235
  entropy:            81.7735139
  heat_capacity:      58.9579581
  energy:             46.3057660

- temperature:       690.0000000
  free_energy:       -10.1222756
  entropy:            82.6351203
  heat_capacity:      59.0794981
  energy:             46.8959573

- temperature:       700.0000000
  free_energy:       -10.9528903
  entropy:            83.4860432
  heat_capacity:      59.1962538
  energy:             47.4873400

- temperature:       710.0000000
  free_energy:       -11.7919617
  entropy:            84.3265197
  heat_capacity:      59.3084678
  energy:             48.0798673

- temperature:       720.0000000
  free_energy:       -12.6393866
  entropy:            85.1567799
  heat_capacity:      59.4163678
  energy:             48.6734950

- temperature:       730.0000000
  free_energy:       -13.4950640
  entropy:            85.9770479
  heat_capacity:      59.5201680
  energy:             49.2681810

- temperature:       740.0000000
  free_energy:       -14.3588950
  entropy:            86.7875409
  heat_capacity:      59.6200694
  energy:             49.8638853

- temperature:       750.0000000
  free_energy:       -15.2307829
  entropy:            87.5884705
  heat_capacity:      59.7162613
  energy:             50.4605700

- temperature:       760.0000000
  free_energy:       -16.1106332
  entropy:            88.3800421
  heat_capacity:      59.8089219
  energy:             51.0581988

- temperature:       770.0000000
  free_energy:       -16.9983532
  entropy:            89.1624551
  heat_capacity:      59.8982189
  energy:             51.6567372

- temperature:       780.0000000
  free_energy:       -17.8938524
  entropy:            89.9359037
  heat_capacity:      59.9843104
  energy:             52.2561525

- temperature:       790.0000000
  free_energy:       -18.7970420
  entropy:            90.7005763
  heat_capacity:      60.0673455
  energy:             52.8564132

- temperature:       800.0000000
  free_energy:       -19.7078353
  entropy:            91.4566562
  heat_capacity:      60.1474650
  energy:             53.4574897

- temperature:       810.0000000
  free_energy:       -20.6261471
  entropy:            92.2043215
  heat_capacity:      60.2248015
  energy:             54.0593533

- temperature:       820.0000000
  free_energy:       -21.5518943
  entropy:            92.9437452
  heat_capacity:      60.2994806
  energy:             54.6619768

- temperature:       830.0000000
  free_energy:       -22.4849951
  entropy:            93.6750958
  heat_capacity:      60.3716208
  energy:             55.2653344

- temperature:       840.0000000
  free_energy:       -23.4253698
  entropy:            94.3985369
  heat_capacity:      60.4413344
  energy:             55.8694012

- temperature:       850.0000000
  free_energy:       -24.3729400
  entropy:            95.1142275
  heat_capacity:      60.5087273
  energy:             56.4741534

- temperature:       860.0000000
  free_energy:       -25.3276290
  entropy:            95.8223225
  heat_capacity:      60.5739001
  energy:             57.0795683

- temperature:       870.0000000
  free_energy:       -26.2893617
  entropy:            96.5229723
  heat_capacity:      60.6369480
  energy:             57.6856243

- temperature:       880.0000000
  free_energy:       -27.2580642
  entropy:            97.2163235
  heat_capacity:      60.6979610
  energy:             58.2923005

- temperature:       890.0000000
  free_energy:       -28.2336643
  entropy:            97.9025183
  heat_capacity:      60.7570249
  energy:             58.8995770

- temperature:       900.0000000
  free_energy:       -29.2160911
  entropy:            98.5816954
  heat_capacity:      60.8142205
  energy:             59.5074348

- temperature:       910.0000000
  free_energy:       -30.2052752
  entropy:            99.2539898
  heat_capacity:      60.8696251
  energy:             60.1158555

- temperature:       920.0000000
  free_energy:       -31.2011484
  entropy:            99.9195326
  heat_capacity:      60.9233117
  energy:             60.7248215

- temperature:       930.0000000
  free_energy:       -32.2036438
  entropy:           100.5784516
  heat_capacity:      60.9753498
  energy:             61.3343162

- temperature:       940.0000000
  free_energy:       -33.2126958
  entropy:           101.2308713
  heat_capacity:      61.0258055
  energy:             61.9443233

- temperature:       950.0000000
  free_energy:       -34.2282400
  entropy:           101.8769129
  heat_capacity:      61.0747415
  energy:             62.5548272

- temperature:       960.0000000
  free_energy:       -35.2502132
  entropy:           102.5166942
  heat_capacity:      61.1222176
  energy:             63.1658132

- temperature:       970.0000000
  free_energy:       -36.2785534
  entropy:           103.1503302
  heat_capacity:      61.1682908
  energy:             63.7772669

- temperature:       980.0000000
  free_energy:       -37.3131997
  entropy:           103.7779329
  heat_capacity:      61.2130151
  energy:             64.3891745

- temperature:       990.0000000
  free_energy:       -38.3540923
  entropy:           104.3996113
  heat_capacity:      61.2564423
  energy:             65.0015229

- temperature:      1000.0000000
  free_energy:       -39.4011725
  entropy:           105.0154717
  heat_capacity:      61.2986214
  energy:             65.6142992
