graphite                                
           1
     2.466437   -0.000960    0.000000
    -1.234050    2.135517    0.000000
     0.000000    0.000000    3.979050
   C 
   4
Direct configuration=     1
   0.99934661  0.00065344  0.25000000
   0.00065344  0.99934661  0.75000000
   0.33258492  0.66741506  0.25000000
   0.66741506  0.33258492  0.75000000
Direct configuration=     2
   0.99903797  0.00096208  0.25000000
   0.00096208  0.99903797  0.75000000
   0.33288252  0.66711747  0.25000000
   0.66711747  0.33288252  0.75000000
Direct configuration=     3
   0.99928829  0.00071176  0.25000000
   0.00071176  0.99928829  0.75000000
   0.33264116  0.66735883  0.25000000
   0.66735883  0.33264116  0.75000000
