   32   32    1    1
  0.8468675E+01  0.4932875E-09  0.4932875E-09  0.1286560E-08  0.5000000E-15
  1.000000000000000E-004
  CAR 
 graphite                                
    128     76     84
 
  0.0000000E+00  0.0000000E+00  0.0000000E+00  0.6944444E-02
    1      -14.626737
    2      -14.429770
    3      -14.429191
    4      -14.214009
    5       -9.276977
    6       -9.266881
    7       -9.264594
    8       -9.190650
    9       -9.188799
   10       -9.178640
   11       -9.177118
   12       -9.177053
   13       -9.173099
   14       -9.123069
   15       -9.109793
   16       -9.106360
   17       -8.179850
   18       -8.177800
   19       -8.176059
   20       -8.140958
   21       -8.139949
   22       -8.137952
   23       -8.137418
   24       -8.137321
   25       -8.134692
   26       -8.062334
   27       -8.061744
   28       -8.059789
   29       -3.637618
   30       -2.556585
   31       -2.554663
   32       -1.355541
   33       -1.353096
   34       -1.337484
   35       -1.314988
   36       -1.313871
   37       -1.313857
   38       -1.309781
   39       -1.297233
   40       -1.295174
   41       -1.272787
   42       -1.269969
   43       -1.254707
   44       -1.216625
   45        2.050641
   46        2.059475
   47        2.063496
   48        2.068858
   49        2.074575
   50        2.079594
   51        2.083999
   52        2.092332
   53        2.169395
   54        2.171079
   55        2.172326
   56        2.691829
   57        2.695633
   58        2.702166
   59        2.702693
   60        2.702980
   61        2.707804
   62        3.004602
   63        3.025475
   64        3.028230
   65        6.596564
   66        6.599983
   67        6.608895
   68        6.699629
   69        6.701906
   70        6.704349
   71        6.706414
   72        6.706771
   73        6.709797
   74        7.364239
   75        7.371862
   76        7.374342
   77        9.750435
   78       12.187181
   79       12.191215
   80       12.222793
   81       12.444901
   82       12.448502
   83       12.451993
   84       12.479257
 
  0.1666667E+00  0.0000000E+00  0.0000000E+00  0.1388889E-01
    1      -14.460594
    2      -14.265416
    3      -14.264845
    4      -14.051798
    5      -10.593824
    6      -10.441871
    7      -10.441374
    8      -10.279529
    9       -9.717081
   10       -9.709900
   11       -9.582711
   12       -9.581912
   13       -9.574869
   14       -9.573960
   15       -9.441861
   16       -9.433607
   17       -7.584259
   18       -7.578555
   19       -7.478034
   20       -7.475911
   21       -7.471036
   22       -7.470197
   23       -7.358893
   24       -7.352565
   25       -6.742221
   26       -6.631448
   27       -6.629881
   28       -6.512516
   29       -3.435857
   30       -2.361170
   31       -2.359250
   32       -1.849918
   33       -1.833201
   34       -1.800003
   35       -1.799837
   36       -1.784062
   37       -1.782053
   38       -1.748655
   39       -1.731942
   40       -1.190702
   41       -1.151517
   42       -1.148539
   43       -1.108942
   44       -1.030453
   45        1.046964
   46        1.395254
   47        1.418971
   48        1.423580
   49        1.446906
   50        1.709323
   51        1.728754
   52        1.733803
   53        1.753951
   54        1.855356
   55        1.858097
   56        1.926755
   57        1.930398
   58        2.584381
   59        2.587952
   60        2.593396
   61        2.595113
   62        2.725952
   63        3.150074
   64        3.165899
   65        6.727722
   66        6.732632
   67        6.981621
   68        6.984895
   69        6.987378
   70        6.990696
   71        7.343855
   72        7.643361
   73        7.649926
   74        7.804807
   75        7.808525
   76        8.555218
   77        9.945975
   78       12.283102
   79       12.534051
   80       12.535577
   81       12.790993
   82       12.874180
   83       12.882746
   84       12.924645
 
  0.3333333E+00  0.0000000E+00  0.0000000E+00  0.1388889E-01
    1      -13.963984
    2      -13.774117
    3      -13.773568
    4      -13.566914
    5      -12.009379
    6      -11.840489
    7      -11.840000
    8      -11.658297
    9      -10.143050
   10      -10.139376
   11       -9.996991
   12       -9.996277
   13       -9.993089
   14       -9.991893
   15       -9.840788
   16       -9.836844
   17       -6.409203
   18       -6.400236
   19       -6.308719
   20       -6.306553
   21       -6.299075
   22       -6.297934
   23       -6.200708
   24       -6.191901
   25       -4.620504
   26       -4.528109
   27       -4.526274
   28       -4.429921
   29       -3.011898
   30       -2.997894
   31       -2.948223
   32       -2.947709
   33       -2.934829
   34       -2.932706
   35       -2.880659
   36       -2.866540
   37       -2.834760
   38       -1.780322
   39       -1.778418
   40       -0.716071
   41       -0.678561
   42       -0.675350
   43       -0.637455
   44       -0.517381
   45       -0.478889
   46       -0.265862
   47       -0.220480
   48       -0.217009
   49       -0.171269
   50        0.433346
   51        0.435506
   52        0.906985
   53        0.935322
   54        0.939791
   55        0.968647
   56        1.570200
   57        1.604528
   58        1.607606
   59        2.395734
   60        2.399181
   61        2.401961
   62        2.403423
   63        3.254938
   64        3.262889
   65        7.166447
   66        7.168983
   67        7.558999
   68        7.561259
   69        7.563823
   70        7.567587
   71        8.089767
   72        8.092941
   73        9.460038
   74        9.944939
   75        9.948125
   76       10.533801
   77       10.588526
   78       12.504922
   79       12.772716
   80       12.774658
   81       12.787793
   82       13.157560
   83       13.159727
   84       13.218744
 
  0.5000000E+00  0.5551115E-16  0.0000000E+00  0.6944444E-02
    1      -13.144308
    2      -13.141397
    3      -12.964316
    4      -12.961584
    5      -12.961553
    6      -12.958406
    7      -12.766502
    8      -12.763507
    9      -10.292412
   10      -10.290656
   11      -10.144019
   12      -10.142519
   13      -10.142456
   14      -10.140358
   15       -9.984428
   16       -9.982580
   17       -5.484034
   18       -5.482154
   19       -5.427176
   20       -5.427158
   21       -5.426417
   22       -5.422195
   23       -5.374029
   24       -5.371549
   25       -3.886461
   26       -3.884736
   27       -3.853930
   28       -3.851210
   29       -3.850058
   30       -3.850042
   31       -3.805095
   32       -3.803881
   33       -2.392969
   34       -2.389555
   35       -2.325156
   36       -2.319566
   37       -2.319536
   38       -2.318911
   39       -2.249226
   40       -2.246342
   41       -1.850525
   42       -1.848165
   43       -0.833687
   44       -0.831230
   45       -0.831119
   46       -0.827423
   47        0.018521
   48        0.022577
   49        0.053686
   50        0.054998
   51        0.055013
   52        0.063403
   53        0.090548
   54        0.097184
   55        0.410898
   56        0.413696
   57        1.479428
   58        1.481442
   59        2.311558
   60        2.315451
   61        2.316002
   62        2.317475
   63        3.267193
   64        3.269808
   65        7.476940
   66        7.479407
   67        7.865135
   68        7.866456
   69        7.867071
   70        7.872202
   71        8.256212
   72        8.259203
   73       11.503715
   74       11.505009
   75       11.910128
   76       11.913791
   77       12.224691
   78       12.229798
   79       12.231192
   80       12.233815
   81       12.724572
   82       12.728057
   83       12.956557
   84       12.959528
 
  0.1355253E-19  0.1666667E+00  0.0000000E+00  0.1388889E-01
    1      -14.460590
    2      -14.265413
    3      -14.264838
    4      -14.051793
    5      -10.593837
    6      -10.441883
    7      -10.441410
    8      -10.279567
    9       -9.717195
   10       -9.709635
   11       -9.582934
   12       -9.581933
   13       -9.574858
   14       -9.573286
   15       -9.441893
   16       -9.433285
   17       -7.584626
   18       -7.579471
   19       -7.478066
   20       -7.477372
   21       -7.471190
   22       -7.470848
   23       -7.359221
   24       -7.353275
   25       -6.741255
   26       -6.629957
   27       -6.629495
   28       -6.511598
   29       -3.435868
   30       -2.361181
   31       -2.359264
   32       -1.848681
   33       -1.833149
   34       -1.799921
   35       -1.797312
   36       -1.784118
   37       -1.782052
   38       -1.747324
   39       -1.731965
   40       -1.191901
   41       -1.151531
   42       -1.151151
   43       -1.110397
   44       -1.030470
   45        1.046387
   46        1.398460
   47        1.423573
   48        1.423833
   49        1.448904
   50        1.707374
   51        1.728736
   52        1.728921
   53        1.750440
   54        1.854945
   55        1.856938
   56        1.926849
   57        1.931283
   58        2.584814
   59        2.587881
   60        2.593592
   61        2.597055
   62        2.724835
   63        3.150197
   64        3.167311
   65        6.725670
   66        6.732431
   67        6.981045
   68        6.983135
   69        6.987096
   70        6.988995
   71        7.345810
   72        7.642776
   73        7.648343
   74        7.807161
   75        7.809351
   76        8.556676
   77        9.945961
   78       12.282437
   79       12.533790
   80       12.534461
   81       12.790261
   82       12.873927
   83       12.882325
   84       12.923822
 
  0.1666667E+00  0.1666667E+00  0.0000000E+00  0.1388889E-01
    1      -14.128991
    2      -13.937342
    3      -13.936785
    4      -13.728025
    5      -11.218372
    6      -11.215320
    7      -11.059600
    8      -11.056785
    9      -11.056752
   10      -11.053410
   11      -10.886633
   12      -10.883490
   13       -8.850309
   14       -8.767137
   15       -8.765820
   16       -8.702272
   17       -7.771906
   18       -7.740131
   19       -7.736401
   20       -7.670686
   21       -5.629443
   22       -5.625822
   23       -5.530339
   24       -5.526282
   25       -5.526249
   26       -5.523190
   27       -5.422419
   28       -5.418847
   29       -3.185348
   30       -3.119099
   31       -3.117136
   32       -3.047918
   33       -3.034106
   34       -1.972664
   35       -1.970753
   36       -1.521028
   37       -1.518226
   38       -1.473711
   39       -1.472130
   40       -1.472117
   41       -1.467758
   42       -1.423681
   43       -1.420468
   44       -0.661219
   45        0.360228
   46        0.381912
   47        0.388707
   48        0.392458
   49        0.393751
   50        0.409941
   51        1.035056
   52        1.049744
   53        1.054792
   54        1.072734
   55        1.280413
   56        1.282938
   57        1.283131
   58        1.286661
   59        2.314562
   60        2.317226
   61        2.766888
   62        3.289107
   63        3.292335
   64        3.583546
   65        6.488874
   66        6.493550
   67        6.558453
   68        6.859405
   69        8.270504
   70        8.273348
   71        8.756579
   72        8.760635
   73        8.761050
   74        8.763162
   75        9.403930
   76        9.406565
   77       10.340162
   78       13.094163
   79       13.098269
   80       13.171372
   81       13.174630
   82       13.347702
   83       13.349722
   84       13.350484
 
  0.3333333E+00  0.1666667E+00  0.0000000E+00  0.1388889E-01
    1      -13.469883
    2      -13.285271
    3      -13.284747
    4      -13.084410
    5      -12.493855
    6      -12.319724
    7      -12.319208
    8      -12.131347
    9      -11.534909
   10      -11.371369
   11      -11.370790
   12      -11.195287
   13       -8.845093
   14       -8.721177
   15       -8.720731
   16       -8.592519
   17       -6.934954
   18       -6.852581
   19       -6.849551
   20       -6.762618
   21       -4.618236
   22       -4.555446
   23       -4.553340
   24       -4.481824
   25       -4.459260
   26       -4.386107
   27       -4.384293
   28       -4.310301
   29       -3.478904
   30       -3.401946
   31       -3.400151
   32       -3.320675
   33       -2.421204
   34       -2.372209
   35       -2.370730
   36       -2.316925
   37       -2.239812
   38       -1.378095
   39       -1.333823
   40       -1.330024
   41       -1.278431
   42       -1.203115
   43       -1.200767
   44       -1.078165
   45       -0.879028
   46       -0.837248
   47       -0.834376
   48       -0.791289
   49       -0.094985
   50       -0.092998
   51        0.022690
   52        0.048026
   53        0.052621
   54        0.058785
   55        0.062391
   56        0.089575
   57        0.975299
   58        0.977200
   59        1.096657
   60        2.077277
   61        3.040513
   62        3.696704
   63        3.699569
   64        4.275340
   65        6.085978
   66        6.348162
   67        6.352240
   68        6.777324
   69        9.087954
   70        9.475149
   71        9.477714
   72        9.888579
   73       10.571187
   74       10.966347
   75       10.969270
   76       11.128937
   77       11.453904
   78       12.287410
   79       12.857923
   80       13.065168
   81       13.071342
   82       13.440487
   83       13.462116
   84       13.600786
 
  0.5000000E+00  0.1666667E+00  0.0000000E+00  0.1388889E-01
    1      -13.471075
    2      -13.286470
    3      -13.285933
    4      -13.085597
    5      -12.492170
    6      -12.318035
    7      -12.317533
    8      -12.129669
    9      -11.536127
   10      -11.372596
   11      -11.372011
   12      -11.196520
   13       -8.842346
   14       -8.718005
   15       -8.717632
   16       -8.588847
   17       -6.930629
   18       -6.847099
   19       -6.845891
   20       -6.758032
   21       -4.626172
   22       -4.563078
   23       -4.562492
   24       -4.490581
   25       -4.468651
   26       -4.395775
   27       -4.392505
   28       -4.318672
   29       -3.482587
   30       -3.406062
   31       -3.403523
   32       -3.324458
   33       -2.410318
   34       -2.361723
   35       -2.358566
   36       -2.305280
   37       -2.241097
   38       -1.376027
   39       -1.330928
   40       -1.329113
   41       -1.276475
   42       -1.204316
   43       -1.201988
   44       -1.076442
   45       -0.875431
   46       -0.834101
   47       -0.830340
   48       -0.787693
   49       -0.093310
   50       -0.091266
   51        0.020616
   52        0.046412
   53        0.051397
   54        0.055634
   55        0.061231
   56        0.086804
   57        0.973862
   58        0.975805
   59        1.098280
   60        2.075349
   61        3.040950
   62        3.700597
   63        3.702708
   64        4.286387
   65        6.080536
   66        6.348646
   67        6.351232
   68        6.776425
   69        9.084096
   70        9.471828
   71        9.474991
   72        9.888064
   73       10.572244
   74       10.964845
   75       10.968381
   76       11.127164
   77       11.450557
   78       12.289813
   79       12.854487
   80       13.066103
   81       13.071985
   82       13.443150
   83       13.458260
   84       13.557120
 
 -0.3333333E+00  0.1666667E+00  0.0000000E+00  0.1388889E-01
    1      -14.129707
    2      -13.938059
    3      -13.937492
    4      -13.728733
    5      -11.220459
    6      -11.214672
    7      -11.060608
    8      -11.060046
    9      -11.054740
   10      -11.054268
   11      -10.888843
   12      -10.882988
   13       -8.840244
   14       -8.754926
   15       -8.754577
   16       -8.688741
   17       -7.773251
   18       -7.738713
   19       -7.738392
   20       -7.669996
   21       -5.637144
   22       -5.631680
   23       -5.537168
   24       -5.534782
   25       -5.531577
   26       -5.529788
   27       -5.430001
   28       -5.424929
   29       -3.198701
   30       -3.131711
   31       -3.131332
   32       -3.061346
   33       -3.034903
   34       -1.973451
   35       -1.971551
   36       -1.516315
   37       -1.503608
   38       -1.469749
   39       -1.466628
   40       -1.456767
   41       -1.454211
   42       -1.418922
   43       -1.406285
   44       -0.662020
   45        0.355412
   46        0.379197
   47        0.381087
   48        0.389195
   49        0.394534
   50        0.405440
   51        1.040711
   52        1.057237
   53        1.057422
   54        1.076557
   55        1.277617
   56        1.279665
   57        1.284391
   58        1.286807
   59        2.309542
   60        2.317914
   61        2.767426
   62        3.297807
   63        3.299929
   64        3.603819
   65        6.490477
   66        6.492777
   67        6.548842
   68        6.862384
   69        8.267563
   70        8.270962
   71        8.752768
   72        8.756327
   73        8.756501
   74        8.759822
   75        9.401082
   76        9.402052
   77       10.339043
   78       13.094253
   79       13.125831
   80       13.170305
   81       13.173317
   82       13.347945
   83       13.350306
   84       13.380918
 
 -0.1666667E+00  0.1666667E+00  0.0000000E+00  0.1388889E-01
    1      -14.460828
    2      -14.265652
    3      -14.265073
    4      -14.052027
    5      -10.600106
    6      -10.448267
    7      -10.447794
    8      -10.286084
    9       -9.708584
   10       -9.706577
   11       -9.574183
   12       -9.572533
   13       -9.572473
   14       -9.569859
   15       -9.432533
   16       -9.430236
   17       -7.582937
   18       -7.580997
   19       -7.476538
   20       -7.473870
   21       -7.473825
   22       -7.472791
   23       -7.357070
   24       -7.355262
   25       -6.748405
   26       -6.637944
   27       -6.635727
   28       -6.518654
   29       -3.436130
   30       -2.361443
   31       -2.359529
   32       -1.849458
   33       -1.847221
   34       -1.799895
   35       -1.799083
   36       -1.799065
   37       -1.795058
   38       -1.748362
   39       -1.745736
   40       -1.174903
   41       -1.135475
   42       -1.133094
   43       -1.093339
   44       -1.030742
   45        1.041336
   46        1.387567
   47        1.410962
   48        1.416062
   49        1.439809
   50        1.716745
   51        1.736696
   52        1.741479
   53        1.761025
   54        1.848029
   55        1.850339
   56        1.931362
   57        1.933103
   58        2.593503
   59        2.594751
   60        2.595048
   61        2.599590
   62        2.714308
   63        3.165416
   64        3.168188
   65        6.725859
   66        6.729152
   67        6.981324
   68        6.986633
   69        6.986990
   70        6.988513
   71        7.344210
   72        7.644691
   73        7.647341
   74        7.800822
   75        7.804830
   76        8.551622
   77        9.945572
   78       12.315217
   79       12.566267
   80       12.567558
   81       12.822948
   82       12.873343
   83       12.896549
   84       12.922774
 
  0.2710505E-19  0.3333333E+00  0.0000000E+00  0.1388889E-01
    1      -13.963967
    2      -13.774107
    3      -13.773542
    4      -13.566895
    5      -12.009343
    6      -11.840469
    7      -11.839948
    8      -11.658261
    9      -10.143400
   10      -10.139072
   11       -9.997802
   12       -9.996319
   13       -9.993082
   14       -9.991028
   15       -9.841063
   16       -9.836507
   17       -6.409728
   18       -6.401142
   19       -6.308752
   20       -6.308180
   21       -6.299171
   22       -6.298859
   23       -6.201215
   24       -6.192666
   25       -4.619424
   26       -4.526334
   27       -4.525927
   28       -4.428874
   29       -3.010641
   30       -2.997558
   31       -2.947734
   32       -2.945686
   33       -2.934189
   34       -2.932701
   35       -2.879328
   36       -2.866273
   37       -2.834802
   38       -1.780366
   39       -1.778480
   40       -0.717400
   41       -0.678578
   42       -0.678269
   43       -0.639100
   44       -0.517604
   45       -0.479001
   46       -0.263756
   47       -0.217028
   48       -0.216618
   49       -0.169493
   50        0.433119
   51        0.435048
   52        0.905201
   53        0.935308
   54        0.935609
   55        0.966055
   56        1.569685
   57        1.604533
   58        1.608497
   59        2.396142
   60        2.399062
   61        2.402013
   62        2.405291
   63        3.255231
   64        3.264053
   65        7.164983
   66        7.168350
   67        7.557346
   68        7.559752
   69        7.563825
   70        7.566329
   71        8.088038
   72        8.092188
   73        9.461328
   74        9.946414
   75        9.948761
   76       10.533776
   77       10.589546
   78       12.504197
   79       12.772423
   80       12.773352
   81       12.787272
   82       13.157274
   83       13.157577
   84       13.218295
 
  0.1666667E+00  0.3333333E+00  0.0000000E+00  0.1388889E-01
    1      -13.469868
    2      -13.285261
    3      -13.284725
    4      -13.084392
    5      -12.493820
    6      -12.319704
    7      -12.319152
    8      -12.131307
    9      -11.534956
   10      -11.371388
   11      -11.370864
   12      -11.195333
   13       -8.845027
   14       -8.721064
   15       -8.720692
   16       -8.592433
   17       -6.935319
   18       -6.852585
   19       -6.850456
   20       -6.763175
   21       -4.617758
   22       -4.554648
   23       -4.553335
   24       -4.481502
   25       -4.460664
   26       -4.387228
   27       -4.386095
   28       -4.311813
   29       -3.477489
   30       -3.400167
   31       -3.399105
   32       -3.319255
   33       -2.419481
   34       -2.370732
   35       -2.368802
   36       -2.315221
   37       -2.239847
   38       -1.376873
   39       -1.331922
   40       -1.330020
   41       -1.277602
   42       -1.203120
   43       -1.200769
   44       -1.078389
   45       -0.880638
   46       -0.837760
   47       -0.837241
   48       -0.793082
   49       -0.095201
   50       -0.093280
   51        0.021826
   52        0.047880
   53        0.052618
   54        0.056845
   55        0.062424
   56        0.087909
   57        0.975649
   58        0.977622
   59        1.096294
   60        2.077808
   61        3.040968
   62        3.697506
   63        3.699754
   64        4.275696
   65        6.085879
   66        6.348026
   67        6.350927
   68        6.776154
   69        9.086777
   70        9.474194
   71        9.476266
   72        9.887259
   73       10.572324
   74       10.967588
   75       10.970073
   76       11.128938
   77       11.455006
   78       12.287298
   79       12.858292
   80       13.065274
   81       13.071369
   82       13.440163
   83       13.460628
   84       13.592815
 
  0.3333333E+00  0.3333333E+00  0.0000000E+00  0.1388889E-01
    1      -12.658811
    2      -12.656047
    3      -12.653497
    4      -12.484497
    5      -12.481075
    6      -12.481041
    7      -12.479486
    8      -12.478174
    9      -12.475471
   10      -12.292425
   11      -12.289664
   12      -12.287044
   13       -7.633908
   14       -7.507009
   15       -7.505320
   16       -7.497629
   17       -7.495150
   18       -7.489632
   19       -7.487651
   20       -7.363736
   21       -5.454251
   22       -5.453942
   23       -5.445256
   24       -5.444074
   25       -2.705720
   26       -2.702379
   27       -2.700484
   28       -2.666932
   29       -2.661940
   30       -2.661904
   31       -2.661360
   32       -2.661061
   33       -2.655808
   34       -2.625480
   35       -2.622990
   36       -2.619341
   37       -1.338193
   38       -1.334148
   39       -1.331582
   40       -1.313894
   41       -1.309796
   42       -1.308179
   43       -1.307360
   44       -1.307347
   45       -1.302010
   46       -1.278342
   47       -1.276493
   48       -1.273536
   49       -1.268603
   50       -1.265012
   51       -1.264165
   52       -0.277492
   53       -0.273628
   54       -0.273383
   55       -0.272184
   56       -0.270989
   57       -0.267510
   58        0.932353
   59        0.934865
   60        0.937682
   61        4.250522
   62        5.010839
   63        5.021777
   64        5.039148
   65        5.043016
   66        5.070781
   67        5.071736
   68        5.968512
   69       11.108154
   70       11.111416
   71       11.116835
   72       11.409394
   73       11.414296
   74       11.414658
   75       11.415489
   76       11.416353
   77       11.419637
   78       11.732544
   79       11.738813
   80       11.741438
   81       12.112751
   82       12.114193
   83       12.118097
   84       14.544566
 
  0.5000000E+00  0.3333333E+00  0.0000000E+00  0.1388889E-01
    1      -13.471774
    2      -13.287178
    3      -13.286620
    4      -13.086291
    5      -12.495707
    6      -12.321612
    7      -12.321007
    8      -12.133192
    9      -11.531125
   10      -11.367535
   11      -11.367061
   12      -11.191507
   13       -8.834951
   14       -8.710742
   15       -8.710204
   16       -8.581650
   17       -6.938678
   18       -6.855748
   19       -6.855082
   20       -6.767822
   21       -4.624244
   22       -4.561606
   23       -4.560478
   24       -4.489018
   25       -4.467063
   26       -4.394608
   27       -4.391989
   28       -4.318699
   29       -3.489273
   30       -3.412687
   31       -3.409593
   32       -3.330423
   33       -2.415319
   34       -2.367515
   35       -2.363798
   36       -2.311158
   37       -2.241916
   38       -1.385014
   39       -1.339462
   40       -1.337175
   41       -1.284559
   42       -1.205447
   43       -1.203117
   44       -1.080385
   45       -0.865494
   46       -0.823803
   47       -0.820587
   48       -0.777689
   49       -0.097377
   50       -0.095441
   51        0.030178
   52        0.052099
   53        0.060259
   54        0.062905
   55        0.063639
   56        0.096643
   57        0.979248
   58        0.981430
   59        1.093764
   60        2.081402
   61        3.046361
   62        3.705424
   63        3.707749
   64        4.288009
   65        6.087737
   66        6.344541
   67        6.346929
   68        6.763012
   69        9.089969
   70        9.471682
   71        9.474763
   72        9.879347
   73       10.565239
   74       10.961651
   75       10.964643
   76       11.126220
   77       11.452826
   78       12.285314
   79       12.850266
   80       13.063185
   81       13.069155
   82       13.442698
   83       13.488477
   84       13.600470
 
 -0.3333333E+00  0.3333333E+00  0.0000000E+00  0.1388889E-01
    1      -13.964918
    2      -13.775061
    3      -13.774483
    4      -13.567838
    5      -12.013170
    6      -11.844331
    7      -11.843750
    8      -11.662101
    9      -10.135790
   10      -10.133977
   11       -9.989951
   12       -9.988367
   13       -9.988309
   14       -9.986162
   15       -9.833354
   16       -9.831427
   17       -6.408483
   18       -6.406498
   19       -6.308539
   20       -6.305566
   21       -6.305535
   22       -6.304611
   23       -6.200521
   24       -6.198599
   25       -4.629338
   26       -4.537075
   27       -4.534656
   28       -4.438406
   29       -3.009166
   30       -3.007304
   31       -2.945468
   32       -2.945301
   33       -2.945236
   34       -2.941346
   35       -2.878253
   36       -2.876052
   37       -2.835854
   38       -1.781420
   39       -1.779546
   40       -0.701390
   41       -0.663689
   42       -0.660982
   43       -0.622971
   44       -0.521547
   45       -0.480058
   46       -0.275561
   47       -0.230296
   48       -0.226130
   49       -0.180387
   50        0.428872
   51        0.430800
   52        0.917284
   53        0.945892
   54        0.949840
   55        0.978736
   56        1.564689
   57        1.610672
   58        1.612546
   59        2.403926
   60        2.405296
   61        2.405602
   62        2.409920
   63        3.264665
   64        3.267345
   65        7.167519
   66        7.170415
   67        7.555973
   68        7.561221
   69        7.561595
   70        7.563074
   71        8.081801
   72        8.084658
   73        9.454095
   74        9.939402
   75        9.942571
   76       10.532365
   77       10.586080
   78       12.527540
   79       12.801334
   80       12.803341
   81       12.803990
   82       13.162271
   83       13.164543
   84       13.236128
 
 -0.1666667E+00  0.3333333E+00  0.0000000E+00  0.1388889E-01
    1      -14.129694
    2      -13.938053
    3      -13.937473
    4      -13.728720
    5      -11.220891
    6      -11.214312
    7      -11.061550
    8      -11.060468
    9      -11.054628
   10      -11.053016
   11      -10.889221
   12      -10.882543
   13       -8.839525
   14       -8.754888
   15       -8.753025
   16       -8.687907
   17       -7.775114
   18       -7.741681
   19       -7.738705
   20       -7.671552
   21       -5.637718
   22       -5.630416
   23       -5.537191
   24       -5.536677
   25       -5.529813
   26       -5.528058
   27       -5.430543
   28       -5.423493
   29       -3.197649
   30       -3.131682
   31       -3.129145
   32       -3.060178
   33       -3.034933
   34       -1.973485
   35       -1.971592
   36       -1.517640
   37       -1.503417
   38       -1.469780
   39       -1.469527
   40       -1.455979
   41       -1.454210
   42       -1.420284
   43       -1.405984
   44       -0.662070
   45        0.357401
   46        0.381089
   47        0.383002
   48        0.389114
   49        0.394686