  32  32   0   0
  0.9079817E+01  0.4932875E-09  0.4932875E-09  0.1379404E-08  0.5000000E-15
  1.000000000000000E-004
  CAR 
 graphite                                
     15.07906934    -17.16833167  301      4.43522587      1.00000000
    -17.168  0.0000E+00  0.0000E+00
    -17.061  0.0000E+00  0.0000E+00
    -16.953  0.0000E+00  0.0000E+00
    -16.846  0.0000E+00  0.0000E+00
    -16.738  0.0000E+00  0.0000E+00
    -16.631  0.0000E+00  0.0000E+00
    -16.523  0.0000E+00  0.0000E+00
    -16.416  0.0000E+00  0.0000E+00
    -16.308  0.0000E+00  0.0000E+00
    -16.201  0.0000E+00  0.0000E+00
    -16.093  0.0000E+00  0.0000E+00
    -15.986  0.0000E+00  0.0000E+00
    -15.878  0.0000E+00  0.0000E+00
    -15.771  0.0000E+00  0.0000E+00
    -15.663  0.0000E+00  0.0000E+00
    -15.556  0.0000E+00  0.0000E+00
    -15.448  0.0000E+00  0.0000E+00
    -15.341  0.0000E+00  0.0000E+00
    -15.233  0.0000E+00  0.0000E+00
    -15.126  0.3667E+00  0.5960E-02
    -15.019  0.2679E+01  0.1552E+00
    -14.911  0.3912E+01  0.4995E+00
    -14.804  0.5168E+01  0.1003E+01
    -14.696  0.4857E+01  0.1523E+01
    -14.589  0.5099E+01  0.2062E+01
    -14.481  0.5012E+01  0.2607E+01
    -14.374  0.4825E+01  0.3136E+01
    -14.266  0.4845E+01  0.3653E+01
    -14.159  0.5078E+01  0.4186E+01
    -14.051  0.5311E+01  0.4744E+01
    -13.944  0.7227E+01  0.5415E+01
    -13.836  0.7820E+01  0.6228E+01
    -13.729  0.6099E+01  0.7065E+01
    -13.621  0.2455E+01  0.7492E+01
    -13.514  0.1871E+01  0.7713E+01
    -13.406  0.2128E+01  0.7924E+01
    -13.299  0.2501E+01  0.8173E+01
    -13.191  0.2897E+01  0.8462E+01
    -13.084  0.8599E+01  0.8957E+01
    -12.976  0.9059E+01  0.1004E+02
    -12.869  0.7038E+01  0.1095E+02
    -12.761  0.4006E+01  0.1144E+02
    -12.654  0.4109E+01  0.1188E+02
    -12.546  0.4213E+01  0.1232E+02
    -12.439  0.4349E+01  0.1278E+02
    -12.331  0.4485E+01  0.1326E+02
    -12.224  0.4611E+01  0.1375E+02
    -12.116  0.4737E+01  0.1425E+02
    -12.009  0.5469E+01  0.1480E+02
    -11.901  0.6323E+01  0.1542E+02
    -11.794  0.6106E+01  0.1611E+02
    -11.686  0.5634E+01  0.1674E+02
    -11.579  0.5429E+01  0.1733E+02
    -11.471  0.5593E+01  0.1792E+02
    -11.364  0.5756E+01  0.1853E+02
    -11.256  0.5920E+01  0.1916E+02
    -11.149  0.5937E+01  0.1980E+02
    -11.041  0.5588E+01  0.2042E+02
    -10.934  0.5368E+01  0.2100E+02
    -10.826  0.5310E+01  0.2158E+02
    -10.719  0.4146E+01  0.2209E+02
    -10.611  0.4445E+01  0.2253E+02
    -10.504  0.4993E+01  0.2305E+02
    -10.396  0.5173E+01  0.2360E+02
    -10.289  0.5353E+01  0.2416E+02
    -10.181  0.8163E+01  0.2489E+02
    -10.074  0.1098E+02  0.2601E+02
     -9.966  0.8686E+01  0.2706E+02
     -9.859  0.6395E+01  0.2787E+02
     -9.751  0.4759E+01  0.2846E+02
     -9.644  0.4300E+01  0.2894E+02
     -9.536  0.3841E+01  0.2938E+02
     -9.429  0.4390E+01  0.2977E+02
     -9.321  0.6604E+01  0.3053E+02
     -9.214  0.2001E+01  0.3093E+02
     -9.106  0.1799E+01  0.3114E+02
     -8.999  0.1597E+01  0.3132E+02
     -8.891  0.1395E+01  0.3148E+02
     -8.784  0.1207E+01  0.3162E+02
     -8.677  0.1610E+01  0.3177E+02
     -8.569  0.2108E+01  0.3197E+02
     -8.462  0.2606E+01  0.3222E+02
     -8.354  0.3649E+01  0.3254E+02
     -8.247  0.8168E+01  0.3316E+02
     -8.139  0.8188E+01  0.3422E+02
     -8.032  0.4660E+01  0.3481E+02
     -7.924  0.5802E+01  0.3538E+02
     -7.817  0.6945E+01  0.3606E+02
     -7.709  0.8087E+01  0.3687E+02
     -7.602  0.9230E+01  0.3780E+02
     -7.494  0.8295E+01  0.3881E+02
     -7.387  0.5593E+01  0.3952E+02
     -7.279  0.5578E+01  0.4012E+02
     -7.172  0.5628E+01  0.4072E+02
     -7.064  0.5477E+01  0.4132E+02
     -6.957  0.5320E+01  0.4190E+02
     -6.849  0.5155E+01  0.4246E+02
     -6.742  0.5037E+01  0.4301E+02
     -6.634  0.4918E+01  0.4355E+02
     -6.527  0.4800E+01  0.4407E+02
     -6.419  0.4681E+01  0.4458E+02
     -6.312  0.4563E+01  0.4508E+02
     -6.204  0.4444E+01  0.4556E+02
     -6.097  0.4378E+01  0.4603E+02
     -5.989  0.4952E+01  0.4653E+02
     -5.882  0.5534E+01  0.4709E+02
     -5.774  0.6116E+01  0.4772E+02
     -5.667  0.6698E+01  0.4841E+02
     -5.559  0.7280E+01  0.4916E+02
     -5.452  0.7862E+01  0.4997E+02
     -5.344  0.8444E+01  0.5085E+02
     -5.237  0.9026E+01  0.5179E+02
     -5.129  0.3828E+01  0.5245E+02
     -5.022  0.6209E+01  0.5296E+02
     -4.914  0.6728E+01  0.5371E+02
     -4.807  0.5291E+01  0.5436E+02
     -4.699  0.3854E+01  0.5485E+02
     -4.592  0.2416E+01  0.5519E+02
     -4.484  0.1076E+01  0.5537E+02
     -4.377  0.2238E+01  0.5554E+02
     -4.269  0.3695E+01  0.5585E+02
     -4.162  0.5152E+01  0.5633E+02
     -4.054  0.8150E+01  0.5699E+02
     -3.947  0.1140E+02  0.5810E+02
     -3.839  0.1092E+02  0.5930E+02
     -3.732  0.1375E+02  0.6059E+02
     -3.624  0.7914E+01  0.6177E+02
     -3.517  0.4782E+01  0.6236E+02
     -3.409  0.5802E+01  0.6293E+02
     -3.302  0.6829E+01  0.6361E+02
     -3.194  0.1097E+02  0.6453E+02
     -3.087  0.1633E+02  0.6599E+02
     -2.979  0.2360E+02  0.6822E+02
     -2.872  0.6676E+01  0.6923E+02
     -2.764  0.6903E+01  0.6996E+02
     -2.657  0.7225E+01  0.7071E+02
     -2.550  0.7948E+01  0.7152E+02
     -2.442  0.1112E+02  0.7252E+02
     -2.335  0.1617E+02  0.7418E+02
     -2.227  0.1273E+02  0.7572E+02
     -2.120  0.1205E+02  0.7693E+02
     -2.012  0.1940E+02  0.7851E+02
     -1.905  0.1457E+02  0.8158E+02
     -1.797  0.2112E+02  0.8356E+02
     -1.690  0.1320E+02  0.8522E+02
     -1.582  0.1493E+02  0.8672E+02
     -1.475  0.1446E+02  0.8841E+02
     -1.367  0.8456E+01  0.8959E+02
     -1.260  0.6738E+01  0.9035E+02
     -1.152  0.7733E+01  0.9114E+02
     -1.045  0.8509E+01  0.9201E+02
     -0.937  0.9704E+01  0.9298E+02
     -0.830  0.1065E+02  0.9410E+02
     -0.722  0.1030E+02  0.9522E+02
     -0.615  0.1102E+02  0.9637E+02
     -0.507  0.1146E+02  0.9815E+02
     -0.400  0.1134E+02  0.9937E+02
     -0.292  0.1209E+02  0.1006E+03
     -0.185  0.1074E+02  0.1019E+03
     -0.077  0.1023E+02  0.1030E+03
      0.030  0.9968E+01  0.1041E+03
      0.138  0.9675E+01  0.1051E+03
      0.245  0.9582E+01  0.1061E+03
      0.353  0.9621E+01  0.1072E+03
      0.460  0.9358E+01  0.1082E+03
      0.568  0.9119E+01  0.1092E+03
      0.675  0.9013E+01  0.1102E+03
      0.783  0.9383E+01  0.1111E+03
      0.890  0.9569E+01  0.1122E+03
      0.998  0.9695E+01  0.1132E+03
      1.105  0.1134E+02  0.1143E+03
      1.213  0.1037E+02  0.1155E+03
      1.320  0.8977E+01  0.1165E+03
      1.428  0.7223E+01  0.1174E+03
      1.535  0.6171E+01  0.1181E+03
      1.643  0.5673E+01  0.1187E+03
      1.750  0.3992E+01  0.1193E+03
      1.858  0.3258E+01  0.1196E+03
      1.965  0.2798E+01  0.1200E+03
      2.073  0.4316E+01  0.1203E+03
      2.180  0.6407E+01  0.1209E+03
      2.288  0.9573E+01  0.1217E+03
      2.395  0.9135E+01  0.1228E+03
      2.503  0.7474E+01  0.1237E+03
      2.610  0.6509E+01  0.1244E+03
      2.718  0.5007E+01  0.1250E+03
      2.825  0.4001E+01  0.1255E+03
      2.933  0.3388E+01  0.1259E+03
      3.040  0.3045E+01  0.1263E+03
      3.148  0.2687E+01  0.1266E+03
      3.255  0.2339E+01  0.1268E+03
      3.363  0.2034E+01  0.1271E+03
      3.470  0.1732E+01  0.1273E+03
      3.577  0.1436E+01  0.1274E+03
      3.685  0.1221E+01  0.1276E+03
      3.792  0.1006E+01  0.1277E+03
      3.900  0.7901E+00  0.1278E+03
      4.007  0.5977E+00  0.1279E+03
      4.115  0.4276E+00  0.1279E+03
      4.222  0.2712E+00  0.1280E+03
      4.330  0.1270E+00  0.1280E+03
      4.437  0.1053E-03  0.1280E+03
      4.545  0.1044E+00  0.1280E+03
      4.652  0.2272E+00  0.1280E+03
      4.760  0.3636E+00  0.1281E+03
      4.867  0.5156E+00  0.1281E+03
      4.975  0.6896E+00  0.1282E+03
      5.082  0.9038E+00  0.1283E+03
      5.190  0.1134E+01  0.1284E+03
      5.297  0.1364E+01  0.1285E+03
      5.405  0.1594E+01  0.1287E+03
      5.512  0.1825E+01  0.1288E+03
      5.620  0.3003E+01  0.1291E+03
      5.727  0.3716E+01  0.1295E+03
      5.835  0.3890E+01  0.1299E+03
      5.942  0.5353E+01  0.1304E+03
      6.050  0.9485E+01  0.1312E+03
      6.157  0.1136E+02  0.1324E+03
      6.265  0.8544E+01  0.1335E+03
      6.372  0.6812E+01  0.1343E+03
      6.480  0.6134E+01  0.1350E+03
      6.587  0.5704E+01  0.1356E+03
      6.695  0.5380E+01  0.1362E+03
      6.802  0.4718E+01  0.1368E+03
      6.910  0.4186E+01  0.1372E+03
      7.017  0.3777E+01  0.1377E+03
      7.125  0.3742E+01  0.1381E+03
      7.232  0.4031E+01  0.1385E+03
      7.340  0.4493E+01  0.1389E+03
      7.447  0.4817E+01  0.1394E+03
      7.555  0.4792E+01  0.1400E+03
      7.662  0.4647E+01  0.1405E+03
      7.770  0.4493E+01  0.1410E+03
      7.877  0.4314E+01  0.1414E+03
      7.985  0.4191E+01  0.1419E+03
      8.092  0.4107E+01  0.1423E+03
      8.200  0.4049E+01  0.1428E+03
      8.307  0.4003E+01  0.1432E+03
      8.415  0.3968E+01  0.1436E+03
      8.522  0.3946E+01  0.1441E+03
      8.630  0.3894E+01  0.1445E+03
      8.737  0.3988E+01  0.1449E+03
      8.845  0.3960E+01  0.1453E+03
      8.952  0.3842E+01  0.1458E+03
      9.060  0.3824E+01  0.1462E+03
      9.167  0.3777E+01  0.1466E+03
      9.275  0.3818E+01  0.1470E+03
      9.382  0.3834E+01  0.1474E+03
      9.490  0.3857E+01  0.1478E+03
      9.597  0.3878E+01  0.1482E+03
      9.705  0.3901E+01  0.1486E+03
      9.812  0.3921E+01  0.1491E+03
      9.919  0.3950E+01  0.1495E+03
     10.027  0.4337E+01  0.1499E+03
     10.134  0.6172E+01  0.1505E+03
     10.242  0.5928E+01  0.1511E+03
     10.349  0.5608E+01  0.1518E+03
     10.457  0.5443E+01  0.1523E+03
     10.564  0.5560E+01  0.1529E+03
     10.672  0.6427E+01  0.1535E+03
     10.779  0.4770E+01  0.1542E+03
     10.887  0.2858E+01  0.1546E+03
     10.994  0.2599E+01  0.1549E+03
     11.102  0.3405E+01  0.1552E+03
     11.209  0.3664E+01  0.1556E+03
     11.317  0.3138E+01  0.1559E+03
     11.424  0.3026E+01  0.1563E+03
     11.532  0.3116E+01  0.1566E+03
     11.639  0.3631E+01  0.1570E+03
     11.747  0.6805E+01  0.1575E+03
     11.854  0.6945E+01  0.1583E+03
     11.962  0.8912E+01  0.1591E+03
     12.069  0.1118E+02  0.1602E+03
     12.177  0.1303E+02  0.1615E+03
     12.284  0.1333E+02  0.1629E+03
     12.392  0.1380E+02  0.1644E+03
     12.499  0.1345E+02  0.1659E+03
     12.607  0.1027E+02  0.1672E+03
     12.714  0.2809E+01  0.1679E+03
     12.822  0.1294E+00  0.1680E+03
     12.929  0.4387E-01  0.1680E+03
     13.037  0.3503E-02  0.1680E+03
     13.144  0.0000E+00  0.1680E+03
     13.252  0.0000E+00  0.1680E+03
     13.359  0.0000E+00  0.1680E+03
     13.467  0.0000E+00  0.1680E+03
     13.574  0.0000E+00  0.1680E+03
     13.682  0.0000E+00  0.1680E+03
     13.789  0.0000E+00  0.1680E+03
     13.897  0.0000E+00  0.1680E+03
     14.004  0.0000E+00  0.1680E+03
     14.112  0.0000E+00  0.1680E+03
     14.219  0.0000E+00  0.1680E+03
     14.327  0.0000E+00  0.1680E+03
     14.434  0.0000E+00  0.1680E+03
     14.542  0.0000E+00  0.1680E+03
     14.649  0.0000E+00  0.1680E+03
     14.757  0.0000E+00  0.1680E+03
     14.864  0.0000E+00  0.1680E+03
     14.972  0.0000E+00  0.1680E+03
     15.079  0.0000E+00  0.1680E+03
