   32   32    1    1
  0.8643287E+01  0.4932875E-09  0.4932875E-09  0.1313087E-08  0.5000000E-15
  1.000000000000000E-004
  CAR 
 graphite                                
    128    163     84
 
  0.0000000E+00  0.0000000E+00  0.0000000E+00  0.3086420E-02
    1      -14.784647
    2      -14.614689
    3      -14.614052
    4      -14.430336
    5       -9.447901
    6       -9.437586
    7       -9.435269
    8       -9.375779
    9       -9.374116
   10       -9.363751
   11       -9.362408
   12       -9.362354
   13       -9.358287
   14       -9.316584
   15       -9.303528
   16       -9.300185
   17       -8.360851
   18       -8.358923
   19       -8.357256
   20       -8.325238
   21       -8.324436
   22       -8.322270
   23       -8.321880
   24       -8.321791
   25       -8.319070
   26       -8.259931
   27       -8.259470
   28       -8.257476
   29       -3.725131
   30       -2.741973
   31       -2.740098
   32       -1.533726
   33       -1.532710
   34       -1.531353
   35       -1.515739
   36       -1.499829
   37       -1.498930
   38       -1.498919
   39       -1.494757
   40       -1.482155
   41       -1.480245
   42       -1.464827
   43       -1.462011
   44       -1.446747
   45        1.868062
   46        1.876229
   47        1.878344
   48        1.883883
   49        1.889435
   50        1.894429
   51        1.897090
   52        1.904720
   53        2.049236
   54        2.051289
   55        2.052717
   56        2.509676
   57        2.513151
   58        2.519889
   59        2.520387
   60        2.520588
   61        2.525345
   62        2.805108
   63        2.824593
   64        2.827296
   65        6.394742
   66        6.398037
   67        6.405776
   68        6.520259
   69        6.522430
   70        6.524832
   71        6.526882
   72        6.527150
   73        6.530015
   74        7.116690
   75        7.124123
   76        7.126611
   77        9.367181
   78       12.037453
   79       12.041470
   80       12.073051
   81       12.178185
   82       12.185219
   83       12.263442
   84       12.268517
 
  0.1111111E+00  0.6938894E-17  0.0000000E+00  0.6172840E-02
    1      -14.710870
    2      -14.541541
    3      -14.540909
    4      -14.358056
    5      -10.241411
    6      -10.119006
    7      -10.118301
    8       -9.990245
    9       -9.700878
   10       -9.692111
   11       -9.595286
   12       -9.594402
   13       -9.585652
   14       -9.584649
   15       -9.488148
   16       -9.477826
   17       -8.066315
   18       -8.062436
   19       -7.983993
   20       -7.981644
   21       -7.978573
   22       -7.977458
   23       -7.887605
   24       -7.882793
   25       -7.554290
   26       -7.458356
   27       -7.456856
   28       -7.355093
   29       -3.635526
   30       -2.654936
   31       -2.653062
   32       -1.760529
   33       -1.743451
   34       -1.722859
   35       -1.722598
   36       -1.706399
   37       -1.704528
   38       -1.684273
   39       -1.667146
   40       -1.459064
   41       -1.449577
   42       -1.426518
   43       -1.423461
   44       -1.390749
   45        1.447369
   46        1.572343
   47        1.587697
   48        1.592026
   49        1.606493
   50        1.713162
   51        1.726145
   52        1.731099
   53        1.745287
   54        1.927069
   55        1.930587
   56        2.093092
   57        2.096221
   58        2.458092
   59        2.461442
   60        2.467701
   61        2.469422
   62        2.721241
   63        2.873475
   64        2.890632
   65        6.460710
   66        6.466724
   67        6.652299
   68        6.655837
   69        6.657909
   70        6.661066
   71        6.724391
   72        7.064388
   73        7.068234
   74        7.253098
   75        7.261160
   76        7.731269
   77        9.454995
   78       12.081226
   79       12.249799
   80       12.255333
   81       12.302769
   82       12.304086
   83       12.375206
   84       12.409390
 
  0.2222222E+00  0.1387779E-16  0.0000000E+00  0.6172840E-02
    1      -14.489864
    2      -14.322596
    3      -14.321975
    4      -14.141561
    5      -11.255451
    6      -11.119412
    7      -11.118874
    8      -10.974673
    9      -10.049926
   10      -10.044017
   11       -9.929969
   12       -9.929444
   13       -9.923826
   14       -9.922731
   15       -9.803623
   16       -9.797159
   17       -7.388466
   18       -7.381245
   19       -7.296171
   20       -7.293954
   21       -7.287972
   22       -7.287007
   23       -7.195653
   24       -7.188208
   25       -6.227412
   26       -6.137274
   27       -6.135863
   28       -6.041812
   29       -3.367466
   30       -2.394957
   31       -2.393092
   32       -2.369438
   33       -2.353357
   34       -2.323349
   35       -2.323160
   36       -2.307931
   37       -2.306104
   38       -2.275551
   39       -2.259447
   40       -1.243896
   41       -1.211974
   42       -1.208832
   43       -1.201103
   44       -1.176761
   45        0.415722
   46        0.744323
   47        0.769411
   48        0.773474
   49        0.798284
   50        1.203394
   51        1.205880
   52        1.291446
   53        1.309914
   54        1.314837
   55        1.333923
   56        1.697297
   57        1.701242
   58        2.100991
   59        2.337178
   60        2.340368
   61        2.345110
   62        2.346699
   63        2.960743
   64        2.972967
   65        6.682429
   66        6.684968
   67        6.987199
   68        6.990242
   69        6.992909
   70        6.996103
   71        7.558317
   72        7.563655
   73        7.826453
   74        8.287974
   75        8.291114
   76        8.942813
   77        9.719202
   78       12.200054
   79       12.413351
   80       12.415119
   81       12.461461
   82       12.465136
   83       12.614895
   84       13.251424
 
  0.3333333E+00  0.2775558E-16  0.0000000E+00  0.6172840E-02
    1      -14.122676
    2      -13.958937
    3      -13.958336
    4      -13.781955
    5      -12.170347
    6      -12.025217
    7      -12.024679
    8      -11.869718
    9      -10.307170
   10      -10.303490
   11      -10.181772
   12      -10.181223
   13      -10.178038
   14      -10.176717
   15      -10.049159
   16      -10.045250
   17       -6.579069
   18       -6.570110
   19       -6.493778
   20       -6.491464
   21       -6.484154
   22       -6.482879
   23       -6.402249
   24       -6.393426
   25       -4.791283
   26       -4.713053
   27       -4.711401
   28       -4.630250
   29       -3.186961
   30       -3.172969
   31       -3.133250
   32       -3.132903
   33       -3.119796
   34       -3.117851
   35       -3.076750
   36       -3.062634
   37       -2.923504
   38       -1.965208
   39       -1.963342
   40       -0.894454
   41       -0.863879
   42       -0.860565
   43       -0.829463
   44       -0.791386
   45       -0.612029
   46       -0.443345
   47       -0.405581
   48       -0.402341
   49       -0.364351
   50        0.249796
   51        0.251942
   52        0.727016
   53        0.750071
   54        0.754589
   55        0.778125
   56        1.274453
   57        1.500022
   58        1.503187
   59        2.213499
   60        2.216666
   61        2.219517
   62        2.220941
   63        2.991004
   64        2.998406
   65        7.020882
   66        7.023614
   67        7.379418
   68        7.381735
   69        7.384168
   70        7.387843
   71        7.855242
   72        7.858521
   73        9.329777
   74        9.766576
   75        9.769535
   76       10.159879
   77       10.342303
   78       12.306600
   79       12.529812
   80       12.584343
   81       12.586468
   82       12.763093
   83       12.765108
   84       12.948592
 
  0.4444444E+00  0.2775558E-16  0.0000000E+00  0.6172840E-02
    1      -13.611230
    2      -13.452357
    3      -13.451791
    4      -13.281085
    5      -12.958786
    6      -12.806084
    7      -12.805510
    8      -12.641964
    9      -10.439404
   10      -10.437372
   11      -10.312303
   12      -10.311382
   13      -10.310339
   14      -10.308524
   15      -10.176941
   16      -10.174808
   17       -5.823729
   18       -5.816839
   19       -5.761654
   20       -5.759121
   21       -5.754895
   22       -5.752190
   23       -5.697208
   24       -5.691103
   25       -3.933241
   26       -3.925625
   27       -3.890385
   28       -3.888723
   29       -3.882466
   30       -3.880171
   31       -3.839398
   32       -3.830925
   33       -3.307659
   34       -3.242739
   35       -3.240700
   36       -3.173772
   37       -2.308764
   38       -1.832477
   39       -1.782092
   40       -1.779435
   41       -1.726161
   42       -1.532406
   43       -1.370692
   44       -1.368655
   45       -0.625502
   46       -0.623501
   47       -0.427595
   48       -0.398604
   49       -0.395042
   50       -0.365615
   51       -0.228759
   52        0.128666
   53        0.155301
   54        0.159418
   55        0.186419
   56        0.470819
   57        1.391428
   58        1.393608
   59        2.139218
   60        2.142673
   61        2.143726
   62        2.145113
   63        2.990966
   64        2.994370
   65        7.298272
   66        7.301003
   67        7.647724
   68        7.649070
   69        7.650223
   70        7.654888
   71        8.014804
   72        8.017677
   73       10.773713
   74       10.960167
   75       11.306613
   76       11.310049
   77       11.549479
   78       11.786735
   79       12.564235
   80       12.667512
   81       12.685377
   82       12.697678
   83       12.792440
   84       12.794644
 
  0.6776264E-20  0.1111111E+00  0.0000000E+00  0.6172840E-02
    1      -14.710868
    2      -14.541541
    3      -14.540905
    4      -14.358054
    5      -10.241515
    6      -10.119032
    7      -10.118531
    8       -9.990404
    9       -9.700890
   10       -9.691775
   11       -9.595219
   12       -9.594408
   13       -9.585647
   14       -9.583934
   15       -9.488102
   16       -9.477423
   17       -8.066671
   18       -8.063488
   19       -7.984014
   20       -7.983262
   21       -7.978635
   22       -7.978274
   23       -7.887939
   24       -7.883593
   25       -7.553245
   26       -7.456906
   27       -7.456313
   28       -7.354133
   29       -3.635530
   30       -2.654940
   31       -2.653069
   32       -1.759291
   33       -1.743390
   34       -1.722843
   35       -1.719997
   36       -1.706562
   37       -1.704528
   38       -1.682953
   39       -1.667228
   40       -1.460190
   41       -1.449584
   42       -1.426524
   43       -1.425967
   44       -1.392175
   45        1.446626
   46        1.576131
   47        1.592025
   48        1.592491
   49        1.608323
   50        1.711409
   51        1.726138
   52        1.726428
   53        1.741150
   54        1.927199
   55        1.931474
   56        2.092695
   57        2.094620
   58        2.458532
   59        2.461389
   60        2.467870
   61        2.471448
   62        2.719903
   63        2.873572
   64        2.892046
   65        6.458639
   66        6.466543
   67        6.651923
   68        6.654144
   69        6.657444
   70        6.659288
   71        6.726572
   72        7.067099
   73        7.069111
   74        7.252873
   75        7.259330
   76        7.732927
   77        9.454989
   78       12.080571
   79       12.249768
   80       12.257380
   81       12.302466
   82       12.302895
   83       12.374630
   84       12.407747
 
  0.1111111E+00  0.1111111E+00  0.0000000E+00  0.6172840E-02
    1      -14.563377
    2      -14.395423
    3      -14.394798
    4      -14.213559
    5      -10.708387
    6      -10.705333
    7      -10.579777
    8      -10.577147
    9      -10.577118
   10      -10.573584
   11      -10.441055
   12      -10.437903
   13       -9.258501
   14       -9.187153
   15       -9.186064
   16       -9.129421
   17       -8.173673
   18       -8.141339
   19       -8.137588
   20       -8.079397
   21       -6.870655
   22       -6.867290
   23       -6.778069
   24       -6.774350
   25       -6.774321
   26       -6.771426
   27       -6.676985
   28       -6.673668
   29       -3.456605
   30       -2.481359
   31       -2.479487
   32       -2.428893
   33       -2.383072
   34       -2.381142
   35       -2.334102
   36       -1.615721
   37       -1.613231
   38       -1.579049
   39       -1.577996
   40       -1.577985
   41       -1.573628
   42       -1.540720
   43       -1.537692
   44       -1.283658
   45        1.003871
   46        1.007032
   47        1.043703
   48        1.058904
   49        1.062973
   50        1.076466
   51        1.399754
   52        1.410184
   53        1.415252
   54        1.428646
   55        1.732637
   56        1.734561
   57        1.734669
   58        1.738578
   59        2.316186
   60        2.520663
   61        2.523285
   62        2.776078
   63        2.779018
   64        3.065080
   65        6.393893
   66        6.448719
   67        6.453839
   68        6.928968
   69        7.188130
   70        7.191093
   71        7.606645
   72        7.610929
   73        7.611297
   74        7.613019
   75        8.256463
   76        8.259082
   77        9.631369
   78       12.394638
   79       12.398598
   80       12.453829
   81       12.457927
   82       12.673448
   83       12.676244
   84       12.677138
 
  0.2222222E+00  0.1111111E+00  0.0000000E+00  0.6172840E-02
    1      -14.269179
    2      -14.104000
    3      -14.103393
    4      -13.925408
    5      -11.675865
    6      -11.535677
    7      -11.535146
    8      -11.386038
    9      -11.050056
   10      -10.916321
   11      -10.915684
   12      -10.773874
   13       -9.314205
   14       -9.212260
   15       -9.211784
   16       -9.109494
   17       -7.717984
   18       -7.641543
   19       -7.638405
   20       -7.551525
   21       -6.082771
   22       -5.996266
   23       -5.995502
   24       -5.905324
   25       -5.485288
   26       -5.401856
   27       -5.400447
   28       -5.313470
   29       -3.339272
   30       -3.283795
   31       -3.281927
   32       -3.224313
   33       -3.100323
   34       -2.144082
   35       -2.136254
   36       -2.134379
   37       -2.099461
   38       -2.099302
   39       -2.053464
   40       -1.327291
   41       -1.292543
   42       -1.289473
   43       -1.254198
   44       -0.954314
   45       -0.044974
   46        0.086350
   47        0.112059
   48        0.116560
   49        0.141135
   50        0.665620
   51        0.782893
   52        0.785067
   53        0.853688
   54        0.870602
   55        0.876199
   56        0.894933
   57        1.445795
   58        1.447593
   59        1.751806
   60        2.334761
   61        2.446414
   62        2.978313
   63        2.981146
   64        3.391536
   65        6.352059
   66        6.457895
   67        6.462703
   68        6.868114
   69        7.757091
   70        8.181056
   71        8.183218
   72        8.529561
   73        8.735014
   74        8.979633
   75        8.982350
   76        9.572064
   77        9.985100
   78       12.595306
   79       12.678413
   80       12.681602
   81       12.817795
   82       12.819549
   83       12.919375
   84       13.415132
 
  0.3333333E+00  0.1111111E+00  0.0000000E+00  0.6172840E-02
    1      -13.829735
    2      -13.668754
    3      -13.668173
    4      -13.495064
    5      -12.528160
    6      -12.379555
    7      -12.378996
    8      -12.220233
    9      -11.259507
   10      -11.123355
   11      -11.122705
   12      -10.978424
   13       -9.459913
   14       -9.346069
   15       -9.345713
   16       -9.227239
   17       -6.953123
   18       -6.875005
   19       -6.872045
   20       -6.790130
   21       -5.279632
   22       -5.208276
   23       -5.206789
   24       -5.133571
   25       -4.278017
   26       -4.221076
   27       -4.219020
   28       -4.157693
   29       -4.032827
   30       -3.962375
   31       -3.960731
   32       -3.888101
   33       -2.844025
   34       -2.796818
   35       -2.796030
   36       -2.745723
   37       -2.570692
   38       -1.624533
   39       -1.622719
   40       -1.163076
   41       -1.121772
   42       -1.118003
   43       -1.077640
   44       -1.024617
   45       -0.910252
   46       -0.877490
   47       -0.874300
   48       -0.840981
   49       -0.467535
   50       -0.140529
   51       -0.138512
   52        0.226684
   53        0.251128
   54        0.255997
   55        0.281394
   56        0.453347
   57        0.920873
   58        1.261578
   59        1.263360
   60        2.204587
   61        2.436937
   62        3.068852
   63        3.071291
   64        3.695586
   65        6.303500
   66        6.577873
   67        6.581954
   68        6.969445
   69        8.266323
   70        8.636430
   71        8.638894
   72        9.046813
   73       10.098331
   74       10.484778
   75       10.488885
   76       10.516950
   77       10.982662
   78       12.065671
   79       12.867162
   80       12.985940
   81       12.991186
   82       13.002180
   83       13.004563
   84       13.218789
 
  0.4444444E+00  0.1111111E+00  0.0000000E+00  0.6172840E-02
    1      -13.249744
    2      -13.246725
    3      -13.095178
    4      -13.093087
    5      -13.092116
    6      -13.089287
    7      -12.926971
    8      -12.923875
    9      -11.330173
   10      -11.193467
   11      -11.192809
   12      -11.047726
   13       -9.515082
   14       -9.398940
   15       -9.398470
   16       -9.277072
   17       -6.437973
   18       -6.387442
   19       -6.384671
   20       -6.337084
   21       -4.800099
   22       -4.794011
   23       -4.765405
   24       -4.763375
   25       -4.757924
   26       -4.754517
   27       -4.724066
   28       -4.715116
   29       -3.255417
   30       -3.228672
   31       -3.225961
   32       -3.192007
   33       -2.571442
   34       -2.567303
   35       -2.516726
   36       -2.512090
   37       -2.510182
   38       -2.510039
   39       -2.455192
   40       -2.451501
   41       -1.876171
   42       -1.873645
   43       -0.955211
   44       -0.953158
   45       -0.952414
   46       -0.949034
   47       -0.383371
   48       -0.378802
   49       -0.352417
   50       -0.352194
   51       -0.349974
   52       -0.342707
   53       -0.320091
   54       -0.312985
   55        0.163344
   56        0.166246
   57        0.380643
   58        1.197739
   59        1.199542
   60        2.157471
   61        2.422696
   62        3.092513
   63        3.094557
   64        3.813763
   65        6.292877
   66        6.645691
   67        6.648893
   68        7.023982
   69        8.487823
   70        8.813794
   71        8.816711
   72        9.140476
   73       11.213700
   74       11.215517
   75       11.699641
   76       11.703328
   77       11.979118
   78       11.984113
   79       11.985031
   80       11.987955
   81       12.384500
   82       12.388242
   83       13.104419
   84       13.131000
 
 -0.4444444E+00  0.1111111E+00  0.0000000E+00  0.6172840E-02
    1      -13.830479
    2      -13.669502
    3      -13.668907
    4      -13.495802
    5      -12.526975
    6      -12.378373
    7      -12.377829
    8      -12.219042
    9      -11.261270
   10      -11.125135
   11      -11.124482
   12      -10.980221
   13       -9.457027
   14       -9.342980
   15       -9.342458
   16       -9.223866
   17       -6.946622
   18       -6.867559
   19       -6.866382
   20       -6.783674
   21       -5.289516
   22       -5.218644
   23       -5.215612
   24       -5.142822
   25       -4.288462
   26       -4.230905
   27       -4.230548
   28       -4.168556
   29       -4.035315
   30       -3.965130
   31       -3.963121
   32       -3.890731
   33       -2.831423
   34       -2.784893
   35       -2.782263
   36       -2.732701
   37       -2.571500
   38       -1.625320
   39       -1.623529
   40       -1.161599
   41       -1.119710
   42       -1.117361
   43       -1.076381
   44       -1.023421
   45       -0.907758
   46       -0.875200
   47       -0.871543
   48       -0.838442
   49       -0.468335
   50       -0.139391
   51       -0.137312
   52        0.225147
   53        0.250112
   54        0.253450
   55        0.279211
   56        0.451651
   57        0.921996
   58        1.259442
   59        1.261302
   60        2.201653
   61        2.438285
   62        3.072780
   63        3.074625
   64        3.704254
   65        6.301181
   66        6.579705
   67        6.582172
   68        6.969558
   69        8.262339
   70        8.632410
   71        8.635783
   72        9.045627
   73       10.098460
   74       10.483542
   75       10.488152
   76       10.515827
   77       10.980681
   78       12.067273
   79       12.864592
   80       12.986332
   81       12.991880
   82       12.999548
   83       13.002678
   84       13.269574
 
 -0.3333333E+00  0.1111111E+00  0.0000000E+00  0.6172840E-02
    1      -14.269700
    2      -14.104535
    3      -14.103917
    4      -13.925929
    5      -11.674475
    6      -11.534280
    7      -11.533755
    8      -11.384642
    9      -11.053625
   10      -10.919919
   11      -10.919296
   12      -10.777531
   13       -9.307827
   14       -9.205187
   15       -9.204666
   16       -9.101364
   17       -7.713930
   18       -7.635632
   19       -7.634987
   20       -7.546373
   21       -6.092609
   22       -6.006970
   23       -6.004429
   24       -5.914920
   25       -5.487765
   26       -5.404459
   27       -5.402847
   28       -5.316105
   29       -3.353021
   30       -3.296904
   31       -3.296550
   32       -3.238142
   33       -3.100909
   34       -2.136841
   35       -2.135000
   36       -2.128018
   37       -2.084385
   38       -2.082109
   39       -2.037374
   40       -1.325358
   41       -1.290697
   42       -1.287414
   43       -1.252272
   44       -0.954900
   45       -0.043648
   46        0.085432
   47        0.111945
   48        0.113624
   49        0.139359
   50        0.662384
   51        0.784114
   52        0.786348
   53        0.855630
   54        0.873207
   55        0.876052
   56        0.894823
   57        1.441573
   58        1.443530
   59        1.752927
   60        2.328741
   61        2.448056
   62        2.985543
   63        2.987413
   64        3.407333
   65        6.346097
   66        6.460784
   67        6.462914
   68        6.871189
   69        7.752804
   70        8.174792
   71        8.178523
   72        8.529209
   73        8.731332
   74        8.978189
   75        8.981276
   76        9.569973
   77        9.984281
   78       12.593471
   79       12.677474
   80       12.680601
   81       12.815720
   82       12.817951
   83       12.919105
   84       13.387423
 
 -0.2222222E+00  0.1111111E+00  0.0000000E+00  0.6172840E-02
    1      -14.563699
    2      -14.395749
    3      -14.395118
    4      -14.213884
    5      -10.712258
    6      -10.705252
    7      -10.582725
    8      -10.582177
    9      -10.575624
   10      -10.575045
   11      -10.445187
   12      -10.437983
   13       -9.247808
   14       -9.174700
   15       -9.174225
   16       -9.115693
   17       -8.174195
   18       -8.139255
   19       -8.138779
   20       -8.078042
   21       -6.876524
   22       -6.871613
   23       -6.783298
   24       -6.780912
   25       -6.777944
   26       -6.776492
   27       -6.682942
   28       -6.678142
   29       -3.456959
   30       -2.481711
   31       -2.479846
   32       -2.444361
   33       -2.397849
   34       -2.397362
   35       -2.349613
   36       -1.612645
   37       -1.597884
   38       -1.576796
   39       -1.573713
   40       -1.561735
   41       -1.559544
   42       -1.537376
   43       -1.522868
   44       -1.284014
   45        1.000678
   46        1.007095
   47        1.037014
   48        1.053066
   49        1.054051
   50        1.068967
   51        1.407976
   52        1.419973
   53        1.420296
   54        1.433735
   55        1.727480
   56        1.729608
   57        1.735390
   58        1.738166
   59        2.317660
   60        2.512046
   61        2.523346
   62        2.785155
   63        2.787126
   64        3.084607
   65        6.385777
   66        6.452320
   67        6.454403
   68        6.935555
   69        7.188361
   70        7.188451
   71        7.603360
   72        7.606899
   73        7.607424
   74        7.610464
   75        8.253014
   76        8.255007
   77        9.630857
   78       12.393838
   79       12.398361
   80       12.455033
   81       12.488121
   82       12.675732
   83       12.682988
   84       12.709275
 
 -0.1111111E+00  0.1111111E+00  0.0000000E+00  0.6172840E-02
    1      -14.710983
    2      -14.541647
    3      -14.541010
    4      -14.358162
    5      -10.249025
    6      -10.126743
    7      -10.126351
    8       -9.998410
    9       -9.691702
   10       -9.689571
   11       -9.585725
   12       -9.584204
   13       -9.584152
   14       -9.581038
   15       -9.477761
   16       -9.475198
   17       -8.065886
   18       -8.063807
   19       -7.982828
   20       -7.980171
   21       -7.980130
   22       -7.978994
   23       -7.886112
   24       -7.884319
   25       -7.558863
   26       -7.463593
   27       -7.461094
   28       -7.359899
   29       -3.635650
   30       -2.655058
   31       -2.653188
   32       -1.760604
   33       -1.758358
   34       -1.723200
   35       -1.722447
   36       -1.722435
   37       -1.718277
   38       -1.684552
   39       -1.681800
   40       -1.449705
   41       -1.443025
   42       -1.410082
   43       -1.407963
   44       -1.374917
   45        1.441681
   46        1.565544
   47        1.579941
   48        1.585085
   49        1.600439
   50        1.719571
   51        1.733800
   52        1.738259
   53        1.751328
   54        1.930842
   55        1.932557
   56        2.084733
   57        2.087109
   58        2.467428
   59        2.468502
   60        2.468701
   61        2.473292
   62        2.706815
   63        2.889979
   64        2.892701
   65        6.458380
   66        6.461690
   67        6.652735
   68        6.657838
   69        6.658097
   70        6.659533
   71        6.727919
   72        7.061218
   73        7.065652
   74        7.257539
   75        7.260091
   76        7.726588
   77        9.454812
   78       12.113923
   79       12.249466
   80       12.255158
   81       12.335658
   82       12.337372
   83       12.371988
   84       12.375762
 
  0.1355253E-19  0.2222222E+00  0.0000000E+00  0.6172840E-02
    1      -14.489856
    2      -14.322594
    3      -14.321963
    4      -14.141553
    5      -11.255431
    6      -11.119407
    7      -11.118847
    8      -10.974662
    9      -10.050108
   10      -10.043779
   11       -9.930389
   12       -9.929485
   13       -9.923820
   14       -9.922038
   15       -9.803732
   16       -9.796869
   17       -7.388841
   18       -7.382110
   19       -7.296187
   20       -7.295315
   21       -7.288066
   22       -7.287760
   23       -7.195968
   24       -7.188896
   25       -6.226459
   26       -6.135912
   27       -6.135359
   28       -6.040893
   29       -3.367484
   30       -2.394974
   31       -2.393114
   32       -2.368255
   33       -2.353255
   34       -2.323308
   35       -2.320719
   36       -2.307819
   37       -2.306103
   38       -2.274241
   39       -2.259400
   40       -1.245085
   41       -1.211981
   42       -1.211480
   43       -1.201132
   44       -1.178273
   45        0.415275
   46        0.747129
   47        0.773469
   48        0.773892
   49        0.800178
   50        1.203113
   51        1.204995
   52        1.289642
   53        1.309907
   54        1.310289
   55        1.330618
   56        1.697347
   57        1.702133
   58        2.100165
   59        2.337600
   60        2.340295
   61        2.345235
   62        2.348598
   63        2.960917
   64        2.974271
   65        6.680629
   66        6.684580
   67        6.986551
   68        6.988370
   69        6.992770
   70        6.994502
   71        7.557422
   72        7.562344
   73        7.828093
   74        8.289920
   75        8.291879
   76        8.944087
   77        9.719184
   78       12.199364
   79       12.413181
   80       12.413881
   81       12.461265
   82       12.464916
   83       12.614171
   84       13.252665
 
  0.1111111E+00  0.2222222E+00  0.0000000E+00  0.6172840E-02
    1      -14.269174
    2      -14.103998
    3      -14.103383
    4      -13.925403
    5      -11.675825
    6      -11.535665
    7      -11.535079
    8      -11.386000
    9      -11.050086
   10      -10.916327
   11      -10.915731
   12      -10.773896
   13       -9.314194
   14       -9.212239
   15       -9.211781
   16       -9.109481
   17       -7.718049
   18       -7.641544
   19       -7.638575
   20       -7.551631
   21       -6.083812
   22       -5.997596
   23       -5.996231
   24       -5.906348
   25       -5.484251
   26       -5.400481
   27       -5.399771
   28       -5.312452
   29       -3.339176
   30       -3.283633
   31       -3.281926
   32       -3.224244
   33       -3.100337
   34       -2.142807
   35       -2.136267
   36       -2.134402
   37       -2.099416
   38       -2.096655
   39       -2.052025
   40       -1.328580
   41       -1.292558
   42       -1.292278
   43       -1.255764
   44       -0.954337
   45       -0.045339
   46        0.087968
   47        0.114156
   48        0.116562
   49        0.141855