   32   32    1    1
  0.6647258E+01  0.4934311E-09  0.4934311E-09  0.1008861E-08  0.5000000E-15
  1.000000000000000E-004
  CAR 
 graphite                                
    128    163     84
 
  0.0000000E+00  0.0000000E+00  0.0000000E+00  0.3086420E-02
    1      -12.850449
    2      -12.042857
    3      -12.040375
    4      -10.913350
    5       -7.277580
    6       -7.274683
    7       -7.271546
    8       -6.732666
    9       -6.728049
   10       -6.727557
   11       -6.726893
   12       -6.726575
   13       -6.722080
   14       -6.696173
   15       -6.694883
   16       -6.693562
   17       -5.692026
   18       -5.687098
   19       -5.685841
   20       -5.685758
   21       -5.685677
   22       -5.680398
   23       -5.423458
   24       -5.421193
   25       -5.418748
   26       -5.087528
   27       -5.084022
   28       -5.080857
   29       -2.698116
   30        0.293071
   31        0.297142
   32        0.958318
   33        0.961138
   34        0.965667
   35        1.241759
   36        1.246565
   37        1.246729
   38        1.247370
   39        1.249689
   40        1.254180
   41        1.549957
   42        1.552868
   43        1.557598
   44        3.342861
   45        3.345422
   46        3.347998
   47        3.972626
   48        4.513240
   49        4.525891
   50        4.629086
   51        4.636890
   52        4.641584
   53        4.649623
   54        4.752014
   55        4.764380
   56        5.319217
   57        5.321282
   58        5.321901
   59        5.349252
   60        5.352852
   61        5.353686
   62        5.353724
   63        5.354725
   64        5.358897
   65        9.245642
   66        9.256767
   67        9.256817
   68        9.257652
   69        9.258963
   70        9.268984
   71       10.498488
   72       10.499891
   73       10.500813
   74       11.045624
   75       11.049655
   76       11.052945
   77       13.828693
   78       13.833046
   79       13.837853
   80       14.901344
   81       14.906593
   82       14.907670
   83       14.908944
   84       14.911662
 
  0.1111111E+00  0.6938894E-17  0.0000000E+00  0.6172840E-02
    1      -12.774618
    2      -11.968854
    3      -11.966378
    4      -10.843444
    5       -8.159476
    6       -7.574383
    7       -7.571471
    8       -7.495349
    9       -7.493336
   10       -6.956590
   11       -6.954301
   12       -6.953465
   13       -6.950299
   14       -6.688856
   15       -6.455537
   16       -6.454029
   17       -5.567589
   18       -5.564484
   19       -5.342998
   20       -5.339140
   21       -5.337892
   22       -5.336666
   23       -5.309396
   24       -4.809500
   25       -4.806445
   26       -4.645376
   27       -4.642012
   28       -4.096069
   29       -2.607169
   30        0.376627
   31        0.380690
   32        0.713977
   33        0.719117
   34        1.015575
   35        1.016883
   36        1.019748
   37        1.024030
   38        1.033020
   39        1.315806
   40        1.319211
   41        1.346282
   42        1.351562
   43        1.621767
   44        2.676112
   45        3.203370
   46        3.206364
   47        4.046466
   48        4.189845
   49        4.333149
   50        4.338935
   51        4.346244
   52        4.473846
   53        4.480692
   54        4.495806
   55        4.621920
   56        4.945697
   57        4.948756
   58        5.304045
   59        5.305397
   60        5.306201
   61        5.310596
   62        5.566100
   63        5.567731
   64        5.889629
   65        9.370989
   66        9.380718
   67        9.381070
   68        9.386015
   69        9.764789
   70        9.772378
   71       10.002948
   72       10.253955
   73       10.257066
   74       11.243293
   75       11.247134
   76       11.856050
   77       13.883231
   78       14.188583
   79       14.195494
   80       14.958726
   81       14.961676
   82       15.236406
   83       15.238970
   84       15.242426
 
  0.2222222E+00  0.0000000E+00  0.0000000E+00  0.6172840E-02
    1      -12.547239
    2      -11.747227
    3      -11.744769
    4      -10.634072
    5       -9.213812
    6       -8.507227
    7       -8.505070
    8       -7.954290
    9       -7.951846
   10       -7.580779
   11       -7.298006
   12       -7.295844
   13       -7.295053
   14       -7.292399
   15       -6.503244
   16       -6.500860
   17       -5.133242
   18       -5.129618
   19       -4.643919
   20       -4.640455
   21       -4.639120
   22       -4.637621
   23       -4.002749
   24       -3.951759
   25       -3.948343
   26       -3.475139
   27       -3.472219
   28       -2.811937
   29       -2.334790
   30        0.064480
   31        0.069183
   32        0.401055
   33        0.402061
   34        0.404638
   35        0.408832
   36        0.625992
   37        0.630032
   38        0.787654
   39        0.792730
   40        1.251324
   41        1.530739
   42        1.534180
   43        1.565204
   44        1.832045
   45        2.930027
   46        2.932707
   47        3.292152
   48        3.511893
   49        3.517720
   50        3.743135
   51        3.874120
   52        4.056787
   53        4.062679
   54        4.096317
   55        4.099267
   56        4.250836
   57        4.266104
   58        5.191417
   59        5.192625
   60        5.193950
   61        5.198581
   62        6.137291
   63        6.138249
   64        6.415368
   65        9.684550
   66        9.693295
   67        9.693817
   68        9.697868
   69        9.842116
   70        9.845663
   71       10.047702
   72       10.911545
   73       10.917555
   74       11.498104
   75       11.501330
   76       13.003961
   77       14.037251
   78       15.121937
   79       15.124964
   80       15.171479
   81       15.178134
   82       15.617788
   83       15.815341
   84       15.822250
 
  0.3333333E+00  0.0000000E+00  0.0000000E+00  0.6172840E-02
    1      -12.169472
    2      -11.379155
    3      -11.376727
    4      -10.286261
    5      -10.158779
    6       -9.423078
    7       -9.420821
    8       -8.439194
    9       -8.226130
   10       -8.223882
   11       -7.554170
   12       -7.552050
   13       -7.551264
   14       -7.548835
   15       -6.697183
   16       -6.694846
   17       -4.329972
   18       -4.326304
   19       -3.830298
   20       -3.826621
   21       -3.825230
   22       -3.823868
   23       -3.208365
   24       -3.205021
   25       -2.521868
   26       -2.037051
   27       -2.034061
   28       -1.882954
   29       -1.446430
   30       -0.773215
   31       -0.769360
   32       -0.426142
   33       -0.425228
   34       -0.423248
   35       -0.418999
   36        0.015872
   37        0.020423
   38        0.489456
   39        1.033967
   40        1.038027
   41        1.606915
   42        1.879178
   43        1.882935
   44        2.026627
   45        2.172625
   46        2.329784
   47        2.334638
   48        2.643991
   49        2.695598
   50        2.698224
   51        3.181990
   52        3.185181
   53        3.277351
   54        3.495633
   55        3.500745
   56        3.729073
   57        4.623663
   58        5.075728
   59        5.077104
   60        5.078685
   61        5.083528
   62        6.204562
   63        6.799394
   64        6.800573
   65        9.411556
   66        9.415290
   67       10.046332
   68       10.053466
   69       10.054030
   70       10.056720
   71       11.096694
   72       11.644239
   73       11.647103
   74       12.276001
   75       12.280592
   76       14.219201
   77       14.284854
   78       15.342723
   79       15.397201
   80       15.400017
   81       15.476550
   82       15.481833
   83       15.838396
   84       16.282432
 
  0.4444444E+00  0.0000000E+00  0.0000000E+00  0.6172840E-02
    1      -11.643180
    2      -10.971349
    3      -10.866553
    4      -10.864168
    5      -10.212766
    6      -10.210437
    7       -9.801947
    8       -9.184354
    9       -8.365220
   10       -8.363058
   11       -7.686769
   12       -7.684671
   13       -7.683882
   14       -7.681541
   15       -6.811909
   16       -6.809630
   17       -3.504756
   18       -3.501372
   19       -3.088437
   20       -3.083776
   21       -3.082944
   22       -3.082071
   23       -2.725980
   24       -2.723554
   25       -1.360796
   26       -1.359232
   27       -1.256005
   28       -1.200118
   29       -1.198808
   30       -1.198179
   31       -1.193741
   32       -0.980148
   33       -0.772221
   34       -0.768765
   35       -0.554126
   36       -0.550609
   37       -0.460630
   38       -0.043218
   39        0.562583
   40        0.906243
   41        0.910281
   42        1.345220
   43        1.639998
   44        1.643181
   45        2.083959
   46        2.342070
   47        2.344696
   48        2.345649
   49        2.349145
   50        2.567039
   51        2.569906
   52        2.625666
   53        2.656467
   54        2.899885
   55        2.904159
   56        3.161303
   57        5.005911
   58        5.007479
   59        5.009150
   60        5.014046
   61        5.102314
   62        5.663627
   63        7.320033
   64        7.322493
   65        9.054387
   66        9.058172
   67       10.289411
   68       10.295573
   69       10.295887
   70       10.296958
   71       11.690234
   72       11.692851
   73       12.647325
   74       13.632745
   75       13.636277
   76       14.301445
   77       14.609055
   78       14.763435
   79       14.767617
   80       14.979549
   81       15.449595
   82       15.800490
   83       15.803873
   84       16.357439
 
 -0.8470329E-21  0.1111111E+00  0.0000000E+00  0.6172840E-02
    1      -12.774619
    2      -11.968856
    3      -11.966380
    4      -10.843446
    5       -8.159422
    6       -7.574679
    7       -7.571531
    8       -7.495176
    9       -7.493168
   10       -6.956987
   11       -6.954306
   12       -6.953492
   13       -6.950686
   14       -6.688451
   15       -6.455251
   16       -6.454840
   17       -5.567572
   18       -5.562820
   19       -5.343451
   20       -5.339127
   21       -5.337743
   22       -5.333547
   23       -5.310784
   24       -4.810023
   25       -4.808331
   26       -4.645744
   27       -4.640313
   28       -4.097181
   29       -2.607164
   30        0.376635
   31        0.380697
   32        0.712679
   33        0.718828
   34        1.013325
   35        1.016837
   36        1.019752
   37        1.022889
   38        1.034821
   39        1.318631
   40        1.319560
   41        1.344978
   42        1.351328
   43        1.623447
   44        2.677086
   45        3.202370
   46        3.205929
   47        4.046482
   48        4.186462
   49        4.332266
   50        4.338959
   51        4.343545
   52        4.479077
   53        4.480677
   54        4.494281
   55        4.625366
   56        4.947504
   57        4.949299
   58        5.302089
   59        5.305353
   60        5.306146
   61        5.309628
   62        5.565940
   63        5.568059
   64        5.890109
   65        9.372208
   66        9.380712
   67        9.381380
   68        9.389679
   69        9.763311
   70        9.769480
   71       10.000991
   72       10.253420
   73       10.258751
   74       11.242983
   75       11.249506
   76       11.854591
   77       13.883875
   78       14.188632
   79       14.194723
   80       14.959496
   81       14.961984
   82       15.236509
   83       15.240758
   84       15.242532
 
  0.1111111E+00  0.1111111E+00  0.0000000E+00  0.6172840E-02
    1      -12.622993
    2      -11.821021
    3      -11.818558
    4      -10.703769
    5       -8.646588
    6       -8.642923
    7       -7.960951
    8       -7.957147
    9       -7.956868
   10       -7.952856
   11       -7.079424
   12       -7.076581
   13       -7.073117
   14       -6.537893
   15       -6.535559
   16       -6.500474
   17       -5.505210
   18       -5.501134
   19       -5.241839
   20       -4.922868
   21       -4.654534
   22       -4.650747
   23       -4.123074
   24       -4.120121
   25       -4.119995
   26       -4.114626
   27       -3.435267
   28       -3.431087
   29       -2.425375
   30       -0.010256
   31        0.329283
   32        0.332470
   33        0.543140
   34        0.547188
   35        0.719729
   36        0.860998
   37        0.864309
   38        1.157460
   39        1.162237
   40        1.162403
   41        1.164293
   42        1.485764
   43        1.489158
   44        2.191030
   45        2.193979
   46        3.602612
   47        3.634186
   48        3.803412
   49        3.809685
   50        3.857322
   51        4.133649
   52        4.157932
   53        4.163816
   54        4.193197
   55        4.317421
   56        4.603066
   57        4.607441
   58        4.608318
   59        4.610311
   60        5.558068
   61        5.610418
   62        5.614204
   63        6.301718
   64        6.303328
   65        9.178121
   66        9.186434
   67        9.861225
   68        9.864086
   69       10.274051
   70       10.276805
   71       10.278090
   72       10.285255
   73       10.512415
   74       10.560566
   75       12.310891
   76       12.314129
   77       14.290574
   78       14.295459
   79       15.124704
   80       15.341304
   81       15.347338
   82       15.347699
   83       15.351545
   84       15.801864
 
  0.2222222E+00  0.1111111E+00  0.0000000E+00  0.6172840E-02
    1      -12.320424
    2      -11.526149
    3      -11.523709
    4      -10.425202
    5       -9.647884
    6       -9.000123
    7       -8.927363
    8       -8.925149
    9       -8.300128
   10       -8.297993
   11       -7.973264
   12       -7.386298
   13       -7.171548
   14       -6.567684
   15       -6.565650
   16       -6.079420
   17       -5.211281
   18       -4.994134
   19       -4.990661
   20       -4.343931
   21       -3.847099
   22       -3.334657
   23       -3.333038
   24       -3.237646
   25       -2.733006
   26       -2.730379
   27       -2.701919
   28       -2.112772
   29       -2.063268
   30       -0.957300
   31       -0.588406
   32       -0.585222
   33       -0.132520
   34        0.302493
   35        0.626387
   36        0.627600
   37        0.872729
   38        0.876772
   39        1.003241
   40        1.079627
   41        1.155761
   42        1.445171
   43        1.448536
   44        1.764845
   45        1.822220
   46        2.616067
   47        2.851463
   48        2.857967
   49        3.028690
   50        3.496324
   51        3.611972
   52        3.618961
   53        3.694959
   54        3.697799
   55        3.707962
   56        3.817055
   57        4.334064
   58        4.336636
   59        4.482200
   60        5.807635
   61        5.811220
   62        6.042774
   63        6.441312
   64        6.658405
   65        9.175216
   66        9.182522
   67        9.704111
   68        9.890233
   69       10.439790
   70       10.808633
   71       10.812757
   72       10.816428
   73       11.558791
   74       11.563741
   75       12.568166
   76       13.480442
   77       14.494474
   78       15.326045
   79       15.560013
   80       15.562835
   81       15.750091
   82       15.803872
   83       15.811373
   84       16.327488
 
  0.3333333E+00  0.1111111E+00  0.0000000E+00  0.6172840E-02
    1      -11.868378
    2      -11.085832
    3      -11.083429
    4      -10.527024
    5      -10.009165
    6       -9.780819
    7       -9.778532
    8       -9.215967
    9       -8.776629
   10       -8.508787
   11       -8.506625
   12       -7.579511
   13       -7.340622
   14       -6.706417
   15       -6.704458
   16       -5.948556
   17       -4.656639
   18       -4.214040
   19       -4.210722
   20       -3.658297
   21       -2.990263
   22       -2.536494
   23       -2.534658
   24       -2.035578
   25       -1.853365
   26       -1.730966
   27       -1.541438
   28       -1.538103
   29       -1.523807
   30       -1.280124
   31       -1.277025
   32       -1.053483
   33       -0.741214
   34       -0.371020
   35       -0.087350
   36       -0.085417
   37        0.062062
   38        0.323660
   39        1.284343
   40        1.318343
   41        1.322680
   42        1.584585
   43        1.593262
   44        1.652459
   45        1.656979
   46        1.860771
   47        1.864239
   48        1.925092
   49        2.167747
   50        2.785140
   51        2.809183
   52        2.812464
   53        2.990199
   54        2.995774
   55        3.242587
   56        3.663088
   57        4.160192
   58        4.162989
   59        4.901920
   60        5.898085
   61        5.901135
   62        6.000385
   63        6.857881
   64        6.873478
   65        8.802085
   66        9.273505
   67        9.278706
   68       10.041097
   69       10.980732
   70       11.235102
   71       11.238345
   72       11.799981
   73       12.627544
   74       12.937816
   75       12.941469
   76       14.683077
   77       14.780738
   78       14.984727
   79       15.248843
   80       15.254322
   81       15.476743
   82       15.877462
   83       15.880265
   84       16.572109
 
  0.4444444E+00  0.1111111E+00  0.0000000E+00  0.6172840E-02
    1      -11.271007
    2      -11.267614
    3      -10.505441
    4      -10.501734
    5      -10.501361
    6      -10.497646
    7       -9.459951
    8       -9.456402
    9       -9.288339
   10       -8.578677
   11       -8.576509
   12       -7.644846
   13       -7.402673
   14       -6.761695
   15       -6.759743
   16       -5.965986
   17       -4.097899
   18       -3.718829
   19       -3.715836
   20       -3.494885
   21       -2.413319
   22       -2.093145
   23       -2.090393
   24       -2.077934
   25       -2.074502
   26       -2.071849
   27       -1.882903
   28       -1.693260
   29       -0.813622
   30       -0.810684
   31       -0.559649
   32       -0.533142
   33       -0.528800
   34       -0.201629
   35       -0.198265
   36       -0.183128
   37        0.180562
   38        0.180944
   39        0.181145
   40        0.188587
   41        0.627811
   42        0.632009
   43        1.514385
   44        2.023939
   45        2.028607
   46        2.030302
   47        2.034005
   48        2.133909
   49        2.139957
   50        2.383907
   51        2.393764
   52        2.393840
   53        2.395578
   54        2.670019
   55        2.675723
   56        3.633339
   57        4.100698
   58        4.103636
   59        5.426377
   60        5.429407
   61        5.921078
   62        5.923461
   63        6.941200
   64        7.652995
   65        7.994392
   66        9.330877
   67        9.334051
   68       10.132581
   69       11.039241
   70       11.398468
   71       11.401457
   72       12.613599
   73       13.406845
   74       13.410700
   75       14.232215
   76       14.233369
   77       14.236502
   78       14.242246
   79       15.122349
   80       15.126331
   81       15.887178
   82       15.891785
   83       16.299835
   84       16.301937
 
 -0.4444444E+00  0.1111111E+00  0.0000000E+00  0.6172840E-02
    1      -11.868488
    2      -11.085943
    3      -11.083541
    4      -10.526854
    5      -10.009281
    6       -9.780647
    7       -9.778354
    8       -9.216190
    9       -8.776447
   10       -8.509020
   11       -8.506859
   12       -7.579722
   13       -7.340477
   14       -6.706305
   15       -6.704395
   16       -5.948654
   17       -4.653494
   18       -4.210501
   19       -4.208857
   20       -3.656563
   21       -2.993274
   22       -2.539973
   23       -2.536576
   24       -2.037491
   25       -1.855640
   26       -1.731008
   27       -1.543566
   28       -1.542007
   29       -1.523851
   30       -1.280254
   31       -1.276749
   32       -1.056817
   33       -0.740921
   34       -0.368507
   35       -0.084984
   36       -0.080979
   37        0.062106
   38        0.327450
   39        1.283509
   40        1.318172
   41        1.322412
   42        1.584138
   43        1.593360
   44        1.652047
   45        1.655110
   46        1.860252
   47        1.864332
   48        1.922607
   49        2.167751
   50        2.787904
   51        2.809234
   52        2.812493
   53        2.992582
   54        2.996230
   55        3.243436
   56        3.662504
   57        4.160296
   58        4.163319
   59        4.902008
   60        5.897892
   61        5.899632
   62        6.000270
   63        6.858275
   64        6.874184
   65        8.803561
   66        9.276407
   67        9.279954
   68       10.038300
   69       10.980983
   70       11.233105
   71       11.237331
   72       11.800454
   73       12.627793
   74       12.937765
   75       12.941890
   76       14.683639
   77       14.779808
   78       14.983841
   79       15.250879
   80       15.255138
   81       15.478901
   82       15.876427
   83       15.879724
   84       16.575867
 
 -0.3333333E+00  0.1111111E+00  0.0000000E+00  0.6172840E-02
    1      -12.320503
    2      -11.526228
    3      -11.523789
    4      -10.425285
    5       -9.647683
    6       -9.000475
    7       -8.927204
    8       -8.924995
    9       -8.300555
   10       -8.298419
   11       -7.973101
   12       -7.386699
   13       -7.171388
   14       -6.567519
   15       -6.565790
   16       -6.079103
   17       -5.208180
   18       -4.989988
   19       -4.988548
   20       -4.341240
   21       -3.850188
   22       -3.338198
   23       -3.335282
   24       -3.237874
   25       -2.733195
   26       -2.730146
   27       -2.705010
   28       -2.112797
   29       -2.063295
   30       -0.960969
   31       -0.591259
   32       -0.590004
   33       -0.136461
   34        0.306574
   35        0.629480
   36        0.633094
   37        0.872722
   38        0.876762
   39        1.007704
   40        1.079674
   41        1.155602
   42        1.444987
   43        1.448665
   44        1.764895
   45        1.822467
   46        2.613800
   47        2.850051
   48        2.852953
   49        3.023854
   50        3.501536
   51        3.617171
   52        3.620390
   53        3.694633
   54        3.697913
   55        3.706931
   56        3.819300
   57        4.334271
   58        4.337331
   59        4.482283
   60        5.807291
   61        5.808621
   62        6.044143
   63        6.441156
   64        6.659261
   65        9.179925
   66        9.185214
   67        9.706350
   68        9.886088
   69       10.440078
   70       10.807564
   71       10.811315
   72       10.814275
   73       11.558821
   74       11.564147
   75       12.567749
   76       13.480954
   77       14.493880
   78       15.331348
   79       15.559365
   80       15.562393
   81       15.754265
   82       15.809283
   83       15.813635
   84       16.343253
 
 -0.2222222E+00  0.1111111E+00  0.0000000E+00  0.6172840E-02
    1      -12.623041
    2      -11.821069
    3      -11.818606
    4      -10.703819
    5       -8.645380
    6       -8.644525
    7       -7.958955
    8       -7.957444
    9       -7.956859
   10       -7.955359
   11       -7.079404
   12       -7.075823
   13       -7.074268
   14       -6.537485
   15       -6.536249
   16       -6.499024
   17       -5.500201
   18       -5.499316
   19       -5.239936
   20       -4.919705
   21       -4.656258
   22       -4.652181
   23       -4.124325
   24       -4.121546
   25       -4.120458
   26       -4.117478
   27       -3.436501
   28       -3.432759
   29       -2.425392
   30       -0.014446
   31        0.326068
   32        0.327170
   33        0.543138
   34        0.547184
   35        0.715382
   36        0.861829
   37        0.868036
   38        1.159115
   39        1.162472
   40        1.165309
   41        1.168822
   42        1.486667
   43        1.493013
   44        2.192166
   45        2.193336
   46        3.600847
   47        3.628320
   48        3.799967
   49        3.800376
   50        3.855191
   51        4.136315
   52        4.166921
   53        4.167678
   54        4.193216
   55        4.323299
   56        4.604598
   57        4.607564
   58        4.607711
   59        4.610802
   60        5.560014
   61        5.609968
   62        5.611162
   63        6.301958
   64        6.303410
   65        9.183576
   66        9.189966
   67        9.857360
   68        9.863837
   69       10.269985
   70       10.276780
   71       10.276975
   72       10.283744
   73       10.515478
   74       10.561718
   75       12.310424
   76       12.313556
   77       14.292283
   78       14.298544
   79       15.119095
   80       15.344807
   81       15.347718
   82       15.350656
   83       15.353572
   84       15.819227
 
 -0.1111111E+00  0.1111111E+00  0.0000000E+00  0.6172840E-02
    1      -12.774635
    2      -11.968872
    3      -11.966396
    4      -10.843462
    5       -8.160158
    6       -7.574086
    7       -7.571172
    8       -7.495902
    9       -7.493870
   10       -6.956888
   11       -6.953624
   12       -6.953106
   13       -6.950572
   14       -6.688911
   15       -6.455571
   16       -6.454099
   17       -5.564497
   18       -5.562785
   19       -5.339283
   20       -5.338026
   21       -5.337533
   22       -5.333597
   23       -5.313920
   24       -4.813299
   25       -4.810417
   26       -4.643057
   27       -4.640712
   28       -4.099751
   29       -2.607169
   30        0.376633
   31        0.380695
   32        0.712036
   33        0.714958
   34        1.012156
   35        1.016726
   36        1.016906
   37        1.018224
   38        1.039194
   39        1.322184
   40        1.325452
   41        1.344218
   42        1.347452
   43        1.628214
   44        2.677910
   45        3.201995
   46        3.204941
   47        4.046489
   48        4.179718
   49        4.328364
   50        4.335537
   51        4.344619
   52        4.484102
   53        4.484305
   54        4.492188
   55        4.632117
   56        4.947919
   57        4.951191
   58        5.301038
   59        5.305314
   60        5.306090
   61        5.307680
   62        5.567210
   63        5.568110
   64        5.889691
   65        9.377472
   66        9.381545
   67        9.382780
   68        9.391415
   69        9.758356
   70        9.766053
   71        9.997680
   72       10.256087
   73       10.258360
   74       11.246075
   75       11.249446
   76       11.852276
   77       13.889047
   78       14.186660
   79       14.191240
   80       14.964183
   81       14.967014
   82       15.233105
   83       15.238557
   84       15.240520
 
  0.1694066E-20  0.2222222E+00  0.0000000E+00  0.6172840E-02
    1      -12.547246
    2      -11.747234
    3      -11.744777
    4      -10.634080
    5       -9.213863
    6       -8.507272
    7       -8.505115
    8       -7.954823
    9       -7.951350
   10       -7.580796
   11       -7.298963
   12       -7.295747
   13       -7.295092
   14       -7.291664
   15       -6.503648
   16       -6.500805
   17       -5.133448
   18       -5.127834
   19       -4.644741
   20       -4.640425
   21       -4.638892
   22       -4.634445
   23       -4.003979
   24       -3.952155
   25       -3.946571
   26       -3.475612
   27       -3.473967
   28       -2.813086
   29       -2.334769
   30        0.063035
   31        0.068917
   32        0.398518
   33        0.401930
   34        0.404646
   35        0.408170
   36        0.626021
   37        0.630062
   38        0.786251
   39        0.792468
   40        1.253011
   41        1.533710
   42        1.534632
   43        1.565722
   44        1.833789
   45        2.928900
   46        2.932645
   47        3.289366
   48        3.511555
   49        3.512151
   50        3.739949
   51        3.877383
   52        4.062515
   53        4.063156
   54        4.097202
   55        4.099789
   56        4.253871
   57        4.266132
   58        5.189193
   59        5.192819
   60        5.194015
   61        5.197797
   62        6.136811
   63        6.138426
   64        6.416544
   65        9.685720
   66        9.693305
   67        9.694150
   68        9.701393
   69        9.841793
   70        9.847740
   71       10.045203
   72       10.910393
   73       10.915358
   74       11.497556
   75       11.503643
   76       13.002944
   77       14.037993
   78       15.122828
   79       15.125133
   80       15.171069
   81       15.177738
   82       15.620821
   83       15.821077
   84       15.824973
 
  0.1111111E+00  0.2222222E+00  0.0000000E+00  0.6172840E-02
    1      -12.320429
    2      -11.526154
    3      -11.523714
    4      -10.425207
    5       -9.647952
    6       -9.000071
    7       -8.927422
    8       -8.925216
    9       -8.300087
   10       -8.297951
   11       -7.973323
   12       -7.386294
   13       -7.171517
   14       -6.567677
   15       -6.565633
   16       -6.079416
   17       -5.211262
   18       -4.993994
   19       -4.990656
   20       -4.343789
   21       -3.845812
   22       -3.333933
   23       -3.331258
   24       -3.238879
   25       -2.733703
   26       -2.732130
   27       -2.700612
   28       -2.114087
   29       -2.063255
   30       -0.957460
   31       -0.588413
   32       -0.585424
   33       -0.132591
   34        0.300751
   35        0.623764
   36        0.626815
   37        0.872763
   38        0.876800
   39        1.001537
   40        1.080028
   41        1.157566
   42        1.448143
   43        1.449163
   44        1.766648
   45        1.821657
   46        2.614420
   47        2.851459
   48        2.855075
   49        3.028511