  32  32   0   0
  0.8863011E+01  0.4934311E-09  0.4934311E-09  0.1345148E-08  0.5000000E-15
  1.000000000000000E-004
  CAR 
 graphite                                
     15.59976222    -16.96929349  301      4.64559780      1.00000000
    -16.969  0.0000E+00  0.0000E+00
    -16.861  0.0000E+00  0.0000E+00
    -16.752  0.0000E+00  0.0000E+00
    -16.644  0.0000E+00  0.0000E+00
    -16.535  0.0000E+00  0.0000E+00
    -16.426  0.0000E+00  0.0000E+00
    -16.318  0.0000E+00  0.0000E+00
    -16.209  0.0000E+00  0.0000E+00
    -16.101  0.0000E+00  0.0000E+00
    -15.992  0.0000E+00  0.0000E+00
    -15.884  0.0000E+00  0.0000E+00
    -15.775  0.0000E+00  0.0000E+00
    -15.667  0.0000E+00  0.0000E+00
    -15.558  0.0000E+00  0.0000E+00
    -15.449  0.0000E+00  0.0000E+00
    -15.341  0.0000E+00  0.0000E+00
    -15.232  0.0000E+00  0.0000E+00
    -15.124  0.0000E+00  0.0000E+00
    -15.015  0.0000E+00  0.0000E+00
    -14.907  0.1366E+01  0.3311E-01
    -14.798  0.2510E+01  0.2443E+00
    -14.689  0.3937E+01  0.5938E+00
    -14.581  0.4780E+01  0.1103E+01
    -14.472  0.5053E+01  0.1639E+01
    -14.364  0.4893E+01  0.2175E+01
    -14.255  0.4952E+01  0.2710E+01
    -14.147  0.4921E+01  0.3247E+01
    -14.038  0.4970E+01  0.3785E+01
    -13.930  0.4980E+01  0.4325E+01
    -13.821  0.5021E+01  0.4868E+01
    -13.712  0.5642E+01  0.5446E+01
    -13.604  0.5887E+01  0.6076E+01
    -13.495  0.6826E+01  0.6801E+01
    -13.387  0.4538E+01  0.7374E+01
    -13.278  0.1830E+01  0.7729E+01
    -13.170  0.3551E+01  0.7987E+01
    -13.061  0.4232E+01  0.8430E+01
    -12.952  0.5030E+01  0.8918E+01
    -12.844  0.5807E+01  0.9678E+01
    -12.735  0.6583E+01  0.1036E+02
    -12.627  0.4373E+01  0.1092E+02
    -12.518  0.4561E+01  0.1141E+02
    -12.410  0.4702E+01  0.1191E+02
    -12.301  0.4821E+01  0.1243E+02
    -12.192  0.5154E+01  0.1297E+02
    -12.084  0.5470E+01  0.1354E+02
    -11.975  0.5672E+01  0.1417E+02
    -11.867  0.5495E+01  0.1477E+02
    -11.758  0.5109E+01  0.1534E+02
    -11.650  0.4952E+01  0.1588E+02
    -11.541  0.4957E+01  0.1642E+02
    -11.433  0.5052E+01  0.1696E+02
    -11.324  0.5109E+01  0.1751E+02
    -11.215  0.5296E+01  0.1807E+02
    -11.107  0.5533E+01  0.1866E+02
    -10.998  0.5911E+01  0.1928E+02
    -10.890  0.5804E+01  0.1992E+02
    -10.781  0.5777E+01  0.2054E+02
    -10.673  0.5855E+01  0.2117E+02
    -10.564  0.5108E+01  0.2179E+02
    -10.455  0.4540E+01  0.2229E+02
    -10.347  0.5158E+01  0.2282E+02
    -10.238  0.5336E+01  0.2339E+02
    -10.130  0.5468E+01  0.2398E+02
    -10.021  0.5679E+01  0.2458E+02
     -9.913  0.5934E+01  0.2521E+02
     -9.804  0.7472E+01  0.2595E+02
     -9.696  0.1015E+02  0.2694E+02
     -9.587  0.6751E+01  0.2785E+02
     -9.478  0.7403E+01  0.2853E+02
     -9.370  0.5742E+01  0.2920E+02
     -9.261  0.3570E+01  0.2969E+02
     -9.153  0.3197E+01  0.3006E+02
     -9.044  0.2823E+01  0.3039E+02
     -8.936  0.2450E+01  0.3067E+02
     -8.827  0.2623E+01  0.3093E+02
     -8.718  0.2765E+01  0.3126E+02
     -8.610  0.1705E+01  0.3151E+02
     -8.501  0.1724E+01  0.3167E+02
     -8.393  0.2641E+01  0.3191E+02
     -8.284  0.8156E+01  0.3242E+02
     -8.176  0.4334E+01  0.3310E+02
     -8.067  0.3962E+01  0.3354E+02
     -7.959  0.4312E+01  0.3398E+02
     -7.850  0.7084E+01  0.3466E+02
     -7.741  0.6448E+01  0.3543E+02
     -7.633  0.7516E+01  0.3619E+02
     -7.524  0.8660E+01  0.3707E+02
     -7.416  0.7786E+01  0.3800E+02
     -7.307  0.6255E+01  0.3873E+02
     -7.199  0.5989E+01  0.3939E+02
     -7.090  0.5731E+01  0.4003E+02
     -6.981  0.5508E+01  0.4064E+02
     -6.873  0.5319E+01  0.4123E+02
     -6.764  0.5137E+01  0.4179E+02
     -6.656  0.4938E+01  0.4234E+02
     -6.547  0.4848E+01  0.4287E+02
     -6.439  0.4821E+01  0.4340E+02
     -6.330  0.4788E+01  0.4392E+02
     -6.222  0.4594E+01  0.4443E+02
     -6.113  0.4422E+01  0.4492E+02
     -6.004  0.3691E+01  0.4538E+02
     -5.896  0.4066E+01  0.4579E+02
     -5.787  0.4432E+01  0.4624E+02
     -5.679  0.5120E+01  0.4676E+02
     -5.570  0.5934E+01  0.4736E+02
     -5.462  0.7425E+01  0.4805E+02
     -5.353  0.1047E+02  0.4906E+02
     -5.244  0.8131E+01  0.5007E+02
     -5.136  0.5789E+01  0.5083E+02
     -5.027  0.3448E+01  0.5133E+02
     -4.919  0.2585E+01  0.5163E+02
     -4.810  0.3298E+01  0.5194E+02
     -4.702  0.4622E+01  0.5237E+02
     -4.593  0.5981E+01  0.5294E+02
     -4.484  0.7771E+01  0.5369E+02
     -4.376  0.7791E+01  0.5456E+02
     -4.267  0.6527E+01  0.5533E+02
     -4.159  0.5663E+01  0.5598E+02
     -4.050  0.7691E+01  0.5668E+02
     -3.942  0.7165E+01  0.5748E+02
     -3.833  0.6639E+01  0.5823E+02
     -3.725  0.6734E+01  0.5895E+02
     -3.616  0.6444E+01  0.5966E+02
     -3.507  0.1051E+02  0.6048E+02
     -3.399  0.8832E+01  0.6173E+02
     -3.290  0.8469E+01  0.6267E+02
     -3.182  0.7854E+01  0.6354E+02
     -3.073  0.6870E+01  0.6435E+02
     -2.965  0.7069E+01  0.6509E+02
     -2.856  0.8010E+01  0.6591E+02
     -2.747  0.9144E+01  0.6684E+02
     -2.639  0.1225E+02  0.6798E+02
     -2.530  0.1426E+02  0.6946E+02
     -2.422  0.1142E+02  0.7086E+02
     -2.313  0.1177E+02  0.7212E+02
     -2.205  0.1201E+02  0.7347E+02
     -2.096  0.1551E+02  0.7496E+02
     -1.988  0.1153E+02  0.7644E+02
     -1.879  0.1797E+02  0.7818E+02
     -1.770  0.1028E+02  0.7963E+02
     -1.662  0.2202E+02  0.8124E+02
     -1.553  0.1825E+02  0.8326E+02
     -1.445  0.1685E+02  0.8528E+02
     -1.336  0.1372E+02  0.8689E+02
     -1.228  0.1156E+02  0.8825E+02
     -1.119  0.1075E+02  0.8946E+02
     -1.010  0.8372E+01  0.9044E+02
     -0.902  0.8553E+01  0.9131E+02
     -0.793  0.1288E+02  0.9246E+02
     -0.685  0.1365E+02  0.9394E+02
     -0.576  0.1248E+02  0.9563E+02
     -0.468  0.8617E+01  0.9663E+02
     -0.359  0.9863E+01  0.9767E+02
     -0.251  0.1044E+02  0.9881E+02
     -0.142  0.1093E+02  0.9996E+02
     -0.033  0.1000E+02  0.1011E+03
      0.075  0.9356E+01  0.1022E+03
      0.184  0.9897E+01  0.1032E+03
      0.292  0.9508E+01  0.1043E+03
      0.401  0.9688E+01  0.1054E+03
      0.509  0.9245E+01  0.1064E+03
      0.618  0.9322E+01  0.1074E+03
      0.727  0.9349E+01  0.1084E+03
      0.835  0.9337E+01  0.1094E+03
      0.944  0.9218E+01  0.1104E+03
      1.052  0.9297E+01  0.1114E+03
      1.161  0.9407E+01  0.1124E+03
      1.269  0.9624E+01  0.1135E+03
      1.378  0.9978E+01  0.1145E+03
      1.487  0.9353E+01  0.1155E+03
      1.595  0.8608E+01  0.1166E+03
      1.704  0.6422E+01  0.1174E+03
      1.812  0.6618E+01  0.1181E+03
      1.921  0.5148E+01  0.1187E+03
      2.029  0.4156E+01  0.1192E+03
      2.138  0.4168E+01  0.1197E+03
      2.246  0.5981E+01  0.1202E+03
      2.355  0.7699E+01  0.1210E+03
      2.464  0.7652E+01  0.1219E+03
      2.572  0.5833E+01  0.1226E+03
      2.681  0.8261E+01  0.1234E+03
      2.789  0.5926E+01  0.1242E+03
      2.898  0.4772E+01  0.1248E+03
      3.006  0.4003E+01  0.1252E+03
      3.115  0.3482E+01  0.1256E+03
      3.224  0.3222E+01  0.1260E+03
      3.332  0.2942E+01  0.1263E+03
      3.441  0.2582E+01  0.1266E+03
      3.549  0.2187E+01  0.1269E+03
      3.658  0.1905E+01  0.1271E+03
      3.766  0.1667E+01  0.1273E+03
      3.875  0.1425E+01  0.1275E+03
      3.983  0.1187E+01  0.1276E+03
      4.092  0.9729E+00  0.1277E+03
      4.201  0.7875E+00  0.1278E+03
      4.309  0.5751E+00  0.1279E+03
      4.418  0.3756E+00  0.1280E+03
      4.526  0.1868E+00  0.1280E+03
      4.635  0.7779E-02  0.1280E+03
      4.743  0.1026E+00  0.1280E+03
      4.852  0.2370E+00  0.1280E+03
      4.961  0.3831E+00  0.1281E+03
      5.069  0.5451E+00  0.1281E+03
      5.178  0.7247E+00  0.1282E+03
      5.286  0.9346E+00  0.1283E+03
      5.395  0.1268E+01  0.1284E+03
      5.503  0.1642E+01  0.1285E+03
      5.612  0.1985E+01  0.1287E+03
      5.720  0.2349E+01  0.1290E+03
      5.829  0.2828E+01  0.1293E+03
      5.938  0.3234E+01  0.1296E+03
      6.046  0.4240E+01  0.1300E+03
      6.155  0.6307E+01  0.1306E+03
      6.263  0.8122E+01  0.1317E+03
      6.372  0.8301E+01  0.1326E+03
      6.480  0.7604E+01  0.1334E+03
      6.589  0.8333E+01  0.1343E+03
      6.698  0.6467E+01  0.1351E+03
      6.806  0.5978E+01  0.1357E+03
      6.915  0.5872E+01  0.1364E+03
      7.023  0.4970E+01  0.1370E+03
      7.132  0.4358E+01  0.1375E+03
      7.240  0.3653E+01  0.1379E+03
      7.349  0.3541E+01  0.1383E+03
      7.457  0.3843E+01  0.1387E+03
      7.566  0.4340E+01  0.1391E+03
      7.675  0.4611E+01  0.1396E+03
      7.783  0.4771E+01  0.1401E+03
      7.892  0.4598E+01  0.1406E+03
      8.000  0.4432E+01  0.1411E+03
      8.109  0.4269E+01  0.1416E+03
      8.217  0.4085E+01  0.1421E+03
      8.326  0.3889E+01  0.1425E+03
      8.435  0.3750E+01  0.1429E+03
      8.543  0.3627E+01  0.1433E+03
      8.652  0.3543E+01  0.1437E+03
      8.760  0.3465E+01  0.1441E+03
      8.869  0.3341E+01  0.1445E+03
      8.977  0.3289E+01  0.1448E+03
      9.086  0.3534E+01  0.1452E+03
      9.195  0.3790E+01  0.1456E+03
      9.303  0.4004E+01  0.1460E+03
      9.412  0.4083E+01  0.1464E+03
      9.520  0.3964E+01  0.1469E+03
      9.629  0.3915E+01  0.1473E+03
      9.737  0.3924E+01  0.1477E+03
      9.846  0.3911E+01  0.1482E+03
      9.954  0.3933E+01  0.1486E+03
     10.063  0.3926E+01  0.1490E+03
     10.172  0.3953E+01  0.1494E+03
     10.280  0.3992E+01  0.1499E+03
     10.389  0.4061E+01  0.1503E+03
     10.497  0.4183E+01  0.1508E+03
     10.606  0.5086E+01  0.1513E+03
     10.714  0.5586E+01  0.1519E+03
     10.823  0.5438E+01  0.1524E+03
     10.932  0.4595E+01  0.1530E+03
     11.040  0.4549E+01  0.1535E+03
     11.149  0.3773E+01  0.1540E+03
     11.257  0.3598E+01  0.1544E+03
     11.366  0.3514E+01  0.1548E+03
     11.474  0.3728E+01  0.1551E+03
     11.583  0.4132E+01  0.1556E+03
     11.691  0.2085E+01  0.1559E+03
     11.800  0.3456E+01  0.1562E+03
     11.909  0.6208E+01  0.1567E+03
     12.017  0.7128E+01  0.1574E+03
     12.126  0.1079E+02  0.1584E+03
     12.234  0.1292E+02  0.1597E+03
     12.343  0.1411E+02  0.1611E+03
     12.451  0.1394E+02  0.1627E+03
     12.560  0.1077E+02  0.1640E+03
     12.669  0.7649E+01  0.1650E+03
     12.777  0.6260E+01  0.1658E+03
     12.886  0.5568E+01  0.1664E+03
     12.994  0.5930E+01  0.1670E+03
     13.103  0.3332E+01  0.1675E+03
     13.211  0.1967E+01  0.1678E+03
     13.320  0.6781E+00  0.1680E+03
     13.428  0.2091E-01  0.1680E+03
     13.537  0.1163E-02  0.1680E+03
     13.646  0.0000E+00  0.1680E+03
     13.754  0.0000E+00  0.1680E+03
     13.863  0.0000E+00  0.1680E+03
     13.971  0.0000E+00  0.1680E+03
     14.080  0.0000E+00  0.1680E+03
     14.188  0.0000E+00  0.1680E+03
     14.297  0.0000E+00  0.1680E+03
     14.406  0.0000E+00  0.1680E+03
     14.514  0.0000E+00  0.1680E+03
     14.623  0.0000E+00  0.1680E+03
     14.731  0.0000E+00  0.1680E+03
     14.840  0.0000E+00  0.1680E+03
     14.948  0.0000E+00  0.1680E+03
     15.057  0.0000E+00  0.1680E+03
     15.166  0.0000E+00  0.1680E+03
     15.274  0.0000E+00  0.1680E+03
     15.383  0.0000E+00  0.1680E+03
     15.491  0.0000E+00  0.1680E+03
     15.600  0.0000E+00  0.1680E+03
