  32  32   0   0
  0.8419860E+01  0.4934311E-09  0.4934311E-09  0.1277891E-08  0.5000000E-15
  1.000000000000000E-004
  CAR 
 graphite                                
     16.67295086    -16.57040735  301      5.09700916      1.00000000
    -16.570  0.0000E+00  0.0000E+00
    -16.460  0.0000E+00  0.0000E+00
    -16.349  0.0000E+00  0.0000E+00
    -16.238  0.0000E+00  0.0000E+00
    -16.127  0.0000E+00  0.0000E+00
    -16.016  0.0000E+00  0.0000E+00
    -15.906  0.0000E+00  0.0000E+00
    -15.795  0.0000E+00  0.0000E+00
    -15.684  0.0000E+00  0.0000E+00
    -15.573  0.0000E+00  0.0000E+00
    -15.462  0.0000E+00  0.0000E+00
    -15.351  0.0000E+00  0.0000E+00
    -15.241  0.0000E+00  0.0000E+00
    -15.130  0.0000E+00  0.0000E+00
    -15.019  0.0000E+00  0.0000E+00
    -14.908  0.0000E+00  0.0000E+00
    -14.797  0.0000E+00  0.0000E+00
    -14.687  0.0000E+00  0.0000E+00
    -14.576  0.0000E+00  0.0000E+00
    -14.465  0.1455E+01  0.8415E-01
    -14.354  0.2409E+01  0.2959E+00
    -14.243  0.3168E+01  0.6070E+00
    -14.133  0.4476E+01  0.1017E+01
    -14.022  0.4917E+01  0.1560E+01
    -13.911  0.4919E+01  0.2110E+01
    -13.800  0.4916E+01  0.2650E+01
    -13.689  0.5022E+01  0.3201E+01
    -13.579  0.4923E+01  0.3752E+01
    -13.468  0.4953E+01  0.4298E+01
    -13.357  0.5355E+01  0.4861E+01
    -13.246  0.5601E+01  0.5470E+01
    -13.135  0.6554E+01  0.6126E+01
    -13.024  0.6226E+01  0.6855E+01
    -12.914  0.4077E+01  0.7384E+01
    -12.803  0.2734E+01  0.7720E+01
    -12.692  0.3601E+01  0.8068E+01
    -12.581  0.4053E+01  0.8463E+01
    -12.470  0.6328E+01  0.9138E+01
    -12.360  0.5336E+01  0.9771E+01
    -12.249  0.6006E+01  0.1039E+02
    -12.138  0.4457E+01  0.1100E+02
    -12.027  0.4755E+01  0.1151E+02
    -11.916  0.4982E+01  0.1205E+02
    -11.806  0.5002E+01  0.1260E+02
    -11.695  0.5058E+01  0.1316E+02
    -11.584  0.5292E+01  0.1373E+02
    -11.473  0.5810E+01  0.1436E+02
    -11.362  0.5034E+01  0.1495E+02
    -11.251  0.5027E+01  0.1551E+02
    -11.141  0.5047E+01  0.1606E+02
    -11.030  0.5114E+01  0.1662E+02
    -10.919  0.5193E+01  0.1720E+02
    -10.808  0.5285E+01  0.1777E+02
    -10.697  0.5525E+01  0.1837E+02
    -10.587  0.5671E+01  0.1899E+02
    -10.476  0.5990E+01  0.1964E+02
    -10.365  0.5964E+01  0.2030E+02
    -10.254  0.6015E+01  0.2096E+02
    -10.143  0.5355E+01  0.2160E+02
    -10.033  0.4330E+01  0.2213E+02
     -9.922  0.4380E+01  0.2260E+02
     -9.811  0.5117E+01  0.2314E+02
     -9.700  0.5393E+01  0.2372E+02
     -9.589  0.5584E+01  0.2433E+02
     -9.478  0.5842E+01  0.2496E+02
     -9.368  0.7007E+01  0.2569E+02
     -9.257  0.8699E+01  0.2654E+02
     -9.146  0.8406E+01  0.2758E+02
     -9.035  0.6986E+01  0.2840E+02
     -8.924  0.5206E+01  0.2904E+02
     -8.814  0.3671E+01  0.2961E+02
     -8.703  0.3284E+01  0.2999E+02
     -8.592  0.2896E+01  0.3033E+02
     -8.481  0.2509E+01  0.3063E+02
     -8.370  0.2854E+01  0.3092E+02
     -8.260  0.2500E+01  0.3123E+02
     -8.149  0.1986E+01  0.3148E+02
     -8.038  0.1794E+01  0.3167E+02
     -7.927  0.2720E+01  0.3191E+02
     -7.816  0.6498E+01  0.3249E+02
     -7.706  0.4270E+01  0.3310E+02
     -7.595  0.3994E+01  0.3356E+02
     -7.484  0.4696E+01  0.3402E+02
     -7.373  0.6474E+01  0.3472E+02
     -7.262  0.6504E+01  0.3550E+02
     -7.151  0.7595E+01  0.3628E+02
     -7.041  0.8912E+01  0.3720E+02
     -6.930  0.7596E+01  0.3811E+02
     -6.819  0.6205E+01  0.3885E+02
     -6.708  0.5917E+01  0.3952E+02
     -6.597  0.5660E+01  0.4016E+02
     -6.487  0.5451E+01  0.4078E+02
     -6.376  0.5261E+01  0.4137E+02
     -6.265  0.5073E+01  0.4194E+02
     -6.154  0.4897E+01  0.4249E+02
     -6.043  0.4839E+01  0.4303E+02
     -5.933  0.4811E+01  0.4357E+02
     -5.822  0.4683E+01  0.4410E+02
     -5.711  0.4545E+01  0.4461E+02
     -5.600  0.4427E+01  0.4510E+02
     -5.489  0.3592E+01  0.4552E+02
     -5.378  0.4142E+01  0.4596E+02
     -5.268  0.4796E+01  0.4646E+02
     -5.157  0.5568E+01  0.4703E+02
     -5.046  0.6474E+01  0.4769E+02
     -4.935  0.8933E+01  0.4856E+02
     -4.824  0.9438E+01  0.4964E+02
     -4.714  0.6868E+01  0.5055E+02
     -4.603  0.4298E+01  0.5116E+02
     -4.492  0.2471E+01  0.5152E+02
     -4.381  0.2853E+01  0.5180E+02
     -4.270  0.4084E+01  0.5218E+02
     -4.160  0.5565E+01  0.5271E+02
     -4.049  0.7357E+01  0.5342E+02
     -3.938  0.8086E+01  0.5429E+02
     -3.827  0.6988E+01  0.5514E+02
     -3.716  0.5758E+01  0.5584E+02
     -3.605  0.6612E+01  0.5646E+02
     -3.495  0.7942E+01  0.5732E+02
     -3.384  0.7585E+01  0.5818E+02
     -3.273  0.7436E+01  0.5900E+02
     -3.162  0.7736E+01  0.5984E+02
     -3.051  0.9831E+01  0.6072E+02
     -2.941  0.1028E+02  0.6176E+02
     -2.830  0.9148E+01  0.6275E+02
     -2.719  0.8370E+01  0.6373E+02
     -2.608  0.7093E+01  0.6459E+02
     -2.497  0.7301E+01  0.6537E+02
     -2.387  0.8351E+01  0.6623E+02
     -2.276  0.1010E+02  0.6725E+02
     -2.165  0.1219E+02  0.6849E+02
     -2.054  0.1349E+02  0.6990E+02
     -1.943  0.1036E+02  0.7117E+02
     -1.833  0.1177E+02  0.7240E+02
     -1.722  0.1266E+02  0.7375E+02
     -1.611  0.1512E+02  0.7531E+02
     -1.500  0.1316E+02  0.7684E+02
     -1.389  0.1511E+02  0.7852E+02
     -1.278  0.1073E+02  0.7974E+02
     -1.168  0.2034E+02  0.8154E+02
     -1.057  0.1951E+02  0.8365E+02
     -0.946  0.1564E+02  0.8561E+02
     -0.835  0.1331E+02  0.8720E+02
     -0.724  0.1127E+02  0.8856E+02
     -0.614  0.1041E+02  0.8977E+02
     -0.503  0.7794E+01  0.9075E+02
     -0.392  0.9788E+01  0.9168E+02
     -0.281  0.1461E+02  0.9304E+02
     -0.170  0.1495E+02  0.9463E+02
     -0.060  0.8921E+01  0.9609E+02
      0.051  0.8803E+01  0.9705E+02
      0.162  0.9544E+01  0.9807E+02
      0.273  0.1005E+02  0.9915E+02
      0.384  0.1088E+02  0.1003E+03
      0.495  0.1172E+02  0.1016E+03
      0.605  0.9633E+01  0.1027E+03
      0.716  0.9412E+01  0.1038E+03
      0.827  0.9360E+01  0.1048E+03
      0.938  0.9467E+01  0.1059E+03
      1.049  0.9870E+01  0.1070E+03
      1.159  0.9234E+01  0.1080E+03
      1.270  0.9199E+01  0.1090E+03
      1.381  0.9330E+01  0.1101E+03
      1.492  0.9688E+01  0.1111E+03
      1.603  0.9508E+01  0.1122E+03
      1.713  0.8919E+01  0.1132E+03
      1.824  0.8953E+01  0.1142E+03
      1.935  0.9356E+01  0.1152E+03
      2.046  0.8847E+01  0.1163E+03
      2.157  0.6562E+01  0.1171E+03
      2.267  0.5657E+01  0.1178E+03
      2.378  0.5650E+01  0.1184E+03
      2.489  0.5296E+01  0.1190E+03
      2.600  0.4672E+01  0.1196E+03
      2.711  0.6698E+01  0.1202E+03
      2.822  0.8194E+01  0.1210E+03
      2.932  0.6989E+01  0.1219E+03
      3.043  0.5008E+01  0.1226E+03
      3.154  0.6700E+01  0.1232E+03
      3.265  0.6156E+01  0.1238E+03
      3.376  0.5888E+01  0.1246E+03
      3.486  0.4608E+01  0.1251E+03
      3.597  0.3775E+01  0.1256E+03
      3.708  0.3223E+01  0.1260E+03
      3.819  0.2910E+01  0.1263E+03
      3.930  0.2597E+01  0.1266E+03
      4.040  0.2195E+01  0.1269E+03
      4.151  0.1859E+01  0.1271E+03
      4.262  0.1603E+01  0.1273E+03
      4.373  0.1365E+01  0.1275E+03
      4.484  0.1162E+01  0.1276E+03
      4.595  0.9890E+00  0.1277E+03
      4.705  0.8650E+00  0.1278E+03
      4.816  0.6040E+00  0.1279E+03
      4.927  0.3504E+00  0.1280E+03
      5.038  0.1038E+00  0.1280E+03
      5.149  0.4702E-01  0.1280E+03
      5.259  0.1908E+00  0.1280E+03
      5.370  0.3436E+00  0.1280E+03
      5.481  0.5056E+00  0.1281E+03
      5.592  0.6814E+00  0.1282E+03
      5.703  0.8723E+00  0.1282E+03
      5.813  0.1079E+01  0.1283E+03
      5.924  0.1352E+01  0.1285E+03
      6.035  0.1668E+01  0.1287E+03
      6.146  0.2041E+01  0.1289E+03
      6.257  0.2434E+01  0.1291E+03
      6.368  0.3322E+01  0.1294E+03
      6.478  0.4572E+01  0.1299E+03
      6.589  0.8102E+01  0.1304E+03
      6.700  0.1365E+02  0.1314E+03
      6.811  0.8245E+01  0.1324E+03
      6.922  0.7327E+01  0.1333E+03
      7.032  0.7419E+01  0.1341E+03
      7.143  0.7598E+01  0.1349E+03
      7.254  0.6016E+01  0.1357E+03
      7.365  0.5401E+01  0.1363E+03
      7.476  0.4989E+01  0.1369E+03
      7.586  0.4072E+01  0.1374E+03
      7.697  0.3567E+01  0.1378E+03
      7.808  0.3486E+01  0.1382E+03
      7.919  0.3847E+01  0.1386E+03
      8.030  0.4151E+01  0.1391E+03
      8.140  0.4552E+01  0.1395E+03
      8.251  0.4842E+01  0.1401E+03
      8.362  0.4862E+01  0.1406E+03
      8.473  0.4602E+01  0.1411E+03
      8.584  0.4334E+01  0.1416E+03
      8.695  0.4077E+01  0.1421E+03
      8.805  0.3948E+01  0.1425E+03
      8.916  0.3789E+01  0.1430E+03
      9.027  0.3652E+01  0.1434E+03
      9.138  0.3568E+01  0.1438E+03
      9.249  0.3467E+01  0.1442E+03
      9.359  0.3316E+01  0.1445E+03
      9.470  0.3215E+01  0.1449E+03
      9.581  0.3180E+01  0.1453E+03
      9.692  0.3188E+01  0.1456E+03
      9.803  0.3241E+01  0.1460E+03
      9.913  0.3126E+01  0.1463E+03
     10.024  0.3253E+01  0.1467E+03
     10.135  0.3444E+01  0.1470E+03
     10.246  0.3512E+01  0.1474E+03
     10.357  0.3582E+01  0.1478E+03
     10.468  0.3680E+01  0.1482E+03
     10.578  0.3753E+01  0.1486E+03
     10.689  0.3710E+01  0.1490E+03
     10.800  0.3669E+01  0.1495E+03
     10.911  0.3945E+01  0.1499E+03
     11.022  0.4286E+01  0.1503E+03
     11.132  0.4398E+01  0.1508E+03
     11.243  0.4361E+01  0.1513E+03
     11.354  0.4367E+01  0.1518E+03
     11.465  0.4234E+01  0.1522E+03
     11.576  0.5666E+01  0.1528E+03
     11.686  0.4240E+01  0.1534E+03
     11.797  0.3192E+01  0.1537E+03
     11.908  0.2888E+01  0.1541E+03
     12.019  0.2653E+01  0.1544E+03
     12.130  0.3328E+01  0.1547E+03
     12.241  0.3616E+01  0.1551E+03
     12.351  0.5286E+01  0.1556E+03
     12.462  0.7595E+01  0.1563E+03
     12.573  0.8790E+01  0.1572E+03
     12.684  0.1223E+02  0.1584E+03
     12.795  0.1225E+02  0.1597E+03
     12.905  0.1257E+02  0.1611E+03
     13.016  0.1076E+02  0.1624E+03
     13.127  0.1073E+02  0.1636E+03
     13.238  0.9874E+01  0.1647E+03
     13.349  0.8551E+01  0.1658E+03
     13.459  0.7373E+01  0.1666E+03
     13.570  0.4624E+01  0.1673E+03
     13.681  0.2727E+01  0.1677E+03
     13.792  0.1089E+01  0.1679E+03
     13.903  0.2729E+00  0.1680E+03
     14.013  0.1404E+00  0.1680E+03
     14.124  0.6990E-01  0.1680E+03
     14.235  0.4452E-01  0.1680E+03
     14.346  0.2484E-01  0.1680E+03
     14.457  0.1086E-01  0.1680E+03
     14.568  0.2580E-02  0.1680E+03
     14.678  0.0000E+00  0.1680E+03
     14.789  0.0000E+00  0.1680E+03
     14.900  0.0000E+00  0.1680E+03
     15.011  0.0000E+00  0.1680E+03
     15.122  0.0000E+00  0.1680E+03
     15.232  0.0000E+00  0.1680E+03
     15.343  0.0000E+00  0.1680E+03
     15.454  0.0000E+00  0.1680E+03
     15.565  0.0000E+00  0.1680E+03
     15.676  0.0000E+00  0.1680E+03
     15.786  0.0000E+00  0.1680E+03
     15.897  0.0000E+00  0.1680E+03
     16.008  0.0000E+00  0.1680E+03
     16.119  0.0000E+00  0.1680E+03
     16.230  0.0000E+00  0.1680E+03
     16.341  0.0000E+00  0.1680E+03
     16.451  0.0000E+00  0.1680E+03
     16.562  0.0000E+00  0.1680E+03
     16.673  0.0000E+00  0.1680E+03
