   32   32    1    1
  0.8643287E+01  0.4932875E-09  0.4932875E-09  0.1313087E-08  0.5000000E-15
  1.000000000000000E-004
  CAR 
 graphite                                
    128    163     84
 
  0.0000000E+00  0.0000000E+00  0.0000000E+00  0.3086420E-02
    1      -14.784466
    2      -14.614543
    3      -14.613832
    4      -14.430150
    5       -9.447884
    6       -9.437694
    7       -9.434646
    8       -9.375499
    9       -9.373973
   10       -9.363505
   11       -9.362238
   12       -9.362221
   13       -9.357950
   14       -9.316288
   15       -9.303007
   16       -9.300535
   17       -8.360110
   18       -8.358549
   19       -8.357649
   20       -8.325085
   21       -8.324302
   22       -8.321964
   23       -8.321713
   24       -8.321693
   25       -8.318881
   26       -8.260193
   27       -8.259292
   28       -8.256757
   29       -3.725028
   30       -2.741886
   31       -2.739978
   32       -1.533497
   33       -1.532610
   34       -1.531135
   35       -1.515509
   36       -1.499538
   37       -1.498764
   38       -1.498756
   39       -1.494481
   40       -1.481870
   41       -1.480079
   42       -1.464599
   43       -1.461785
   44       -1.446521
   45        1.868272
   46        1.876378
   47        1.878511
   48        1.884119
   49        1.889670
   50        1.894599
   51        1.897208
   52        1.904928
   53        2.048939
   54        2.051614
   55        2.053543
   56        2.510399
   57        2.512945
   58        2.520275
   59        2.520559
   60        2.520710
   61        2.524817
   62        2.805648
   63        2.824912
   64        2.826556
   65        6.395798
   66        6.397929
   67        6.405271
   68        6.519335
   69        6.522582
   70        6.524751
   71        6.526966
   72        6.527339
   73        6.531203
   74        7.117054
   75        7.123672
   76        7.127062
   77        9.367387
   78       12.037575
   79       12.041587
   80       12.073171
   81       12.178635
   82       12.206692
   83       12.263719
   84       12.269155
 
  0.1111111E+00  0.6938894E-17  0.0000000E+00  0.6172840E-02
    1      -14.710688
    2      -14.541396
    3      -14.540688
    4      -14.357870
    5      -10.241216
    6      -10.118858
    7      -10.118066
    8       -9.990057
    9       -9.700729
   10       -9.691896
   11       -9.595041
   12       -9.594257
   13       -9.585512
   14       -9.584397
   15       -9.487912
   16       -9.477656
   17       -8.066107
   18       -8.062257
   19       -7.983840
   20       -7.981414
   21       -7.978422
   22       -7.977202
   23       -7.887416
   24       -7.882574
   25       -7.554085
   26       -7.458106
   27       -7.456702
   28       -7.354891
   29       -3.635422
   30       -2.654849
   31       -2.652943
   32       -1.760305
   33       -1.743223
   34       -1.722691
   35       -1.722318
   36       -1.706116
   37       -1.704363
   38       -1.684048
   39       -1.666922
   40       -1.458843
   41       -1.449477
   42       -1.426354
   43       -1.423177
   44       -1.390520
   45        1.447517
   46        1.572625
   47        1.588017
   48        1.592194
   49        1.606736
   50        1.713383
   51        1.726311
   52        1.731351
   53        1.745462
   54        1.926925
   55        1.930932
   56        2.093403
   57        2.096126
   58        2.458702
   59        2.461202
   60        2.468097
   61        2.469088
   62        2.721115
   63        2.873923
   64        2.890657
   65        6.461008
   66        6.466328
   67        6.652056
   68        6.656011
   69        6.657553
   70        6.661919
   71        6.724781
   72        7.064199
   73        7.068634
   74        7.253360
   75        7.261358
   76        7.731242
   77        9.455200
   78       12.081393
   79       12.250118
   80       12.253987
   81       12.302683
   82       12.304234
   83       12.373891
   84       12.407794
 
  0.2222222E+00  0.1387779E-16  0.0000000E+00  0.6172840E-02
    1      -14.489682
    2      -14.322450
    3      -14.321755
    4      -14.141375
    5      -11.255260
    6      -11.119258
    7      -11.118647
    8      -10.974482
    9      -10.049750
   10      -10.043817
   11       -9.929738
   12       -9.929286
   13       -9.923684
   14       -9.922488
   15       -9.803413
   16       -9.796972
   17       -7.388270
   18       -7.381042
   19       -7.296020
   20       -7.293710
   21       -7.287817
   22       -7.286758
   23       -7.195453
   24       -7.188007
   25       -6.227207
   26       -6.137019
   27       -6.135708
   28       -6.041604
   29       -3.367362
   30       -2.394869
   31       -2.392972
   32       -2.369218
   33       -2.353133
   34       -2.323170
   35       -2.322897
   36       -2.307653
   37       -2.305940
   38       -2.275330
   39       -2.259226
   40       -1.243675
   41       -1.211810
   42       -1.208548
   43       -1.201004
   44       -1.176532
   45        0.415858
   46        0.744561
   47        0.769709
   48        0.773640
   49        0.798517
   50        1.203645
   51        1.205844
   52        1.291672
   53        1.310080
   54        1.315117
   55        1.334148
   56        1.697262
   57        1.701431
   58        2.101022
   59        2.337729
   60        2.340186
   61        2.345416
   62        2.346446
   63        2.961063
   64        2.973021
   65        6.682760
   66        6.684800
   67        6.987082
   68        6.990481
   69        6.992713
   70        6.996639
   71        7.558401
   72        7.563745
   73        7.826669
   74        8.287815
   75        8.291509
   76        8.942894
   77        9.719406
   78       12.200213
   79       12.413527
   80       12.415306
   81       12.461597
   82       12.465425
   83       12.615085
   84       13.248826
 
  0.3333333E+00  0.2775558E-16  0.0000000E+00  0.6172840E-02
    1      -14.122494
    2      -13.958789
    3      -13.958115
    4      -13.781768
    5      -12.170159
    6      -12.025065
    7      -12.024455
    8      -11.869528
    9      -10.306989
   10      -10.303294
   11      -10.181541
   12      -10.181067
   13      -10.177895
   14      -10.176476
   15      -10.048955
   16      -10.045060
   17       -6.578867
   18       -6.569903
   19       -6.493627
   20       -6.491214
   21       -6.484002
   22       -6.482627
   23       -6.402051
   24       -6.393229
   25       -4.791075
   26       -4.712791
   27       -4.711244
   28       -4.630039
   29       -3.186742
   30       -3.172747
   31       -3.132989
   32       -3.132729
   33       -3.119525
   34       -3.117689
   35       -3.076535
   36       -3.062418
   37       -2.923399
   38       -1.965125
   39       -1.963217
   40       -0.894232
   41       -0.863715
   42       -0.860280
   43       -0.829233
   44       -0.791287
   45       -0.611913
   46       -0.443118
   47       -0.405292
   48       -0.402179
   49       -0.364123
   50        0.249996
   51        0.251952
   52        0.727241
   53        0.750237
   54        0.754875
   55        0.778357
   56        1.274528
   57        1.500041
   58        1.503333
   59        2.213997
   60        2.216556
   61        2.219714
   62        2.220779
   63        2.991236
   64        2.998476
   65        7.021109
   66        7.023849
   67        7.379531
   68        7.381993
   69        7.384177
   70        7.387932
   71        7.855202
   72        7.858441
   73        9.329927
   74        9.766451
   75        9.769899
   76       10.160055
   77       10.342453
   78       12.306665
   79       12.530153
   80       12.584565
   81       12.586613
   82       12.762127
   83       12.766367
   84       12.948756
 
  0.4444444E+00  0.2775558E-16  0.0000000E+00  0.6172840E-02
    1      -13.611046
    2      -13.452207
    3      -13.451570
    4      -13.280897
    5      -12.958601
    6      -12.805934
    7      -12.805287
    8      -12.641775
    9      -10.439223
   10      -10.437175
   11      -10.312061
   12      -10.311236
   13      -10.310197
   14      -10.308284
   15      -10.176738
   16      -10.174619
   17       -5.823511
   18       -5.816613
   19       -5.761504
   20       -5.758865
   21       -5.754745
   22       -5.751933
   23       -5.697025
   24       -5.690930
   25       -3.933004
   26       -3.925392
   27       -3.890118
   28       -3.888560
   29       -3.882202
   30       -3.880009
   31       -3.839199
   32       -3.830720
   33       -3.307446
   34       -3.242470
   35       -3.240542
   36       -3.173556
   37       -2.308657
   38       -1.832258
   39       -1.781817
   40       -1.779270
   41       -1.725941
   42       -1.532297
   43       -1.370452
   44       -1.368687
   45       -0.625331
   46       -0.623464
   47       -0.427372
   48       -0.398440
   49       -0.394755
   50       -0.365383
   51       -0.228663
   52        0.128890
   53        0.155466
   54        0.159703
   55        0.186650
   56        0.470910
   57        1.391466
   58        1.393747
   59        2.139692
   60        2.142667
   61        2.143763
   62        2.145033
   63        2.991167
   64        2.994439
   65        7.298577
   66        7.301449
   67        7.648302
   68        7.649270
   69        7.650197
   70        7.654611
   71        8.014727
   72        8.017330
   73       10.773923
   74       10.960265
   75       11.306572
   76       11.310330
   77       11.549647
   78       11.786902
   79       12.564099
   80       12.667544
   81       12.684986
   82       12.694161
   83       12.791341
   84       12.792759
 
  0.6776264E-20  0.1111111E+00  0.0000000E+00  0.6172840E-02
    1      -14.710687
    2      -14.541395
    3      -14.540685
    4      -14.357868
    5      -10.241324
    6      -10.118877
    7      -10.118301
    8       -9.990209
    9       -9.700710
   10       -9.691568
   11       -9.594980
   12       -9.594256
   13       -9.585505
   14       -9.583696
   15       -9.487888
   16       -9.477252
   17       -8.066483
   18       -8.063276
   19       -7.983856
   20       -7.983023
   21       -7.978455
   22       -7.978052
   23       -7.887731
   24       -7.883396
   25       -7.553046
   26       -7.456750
   27       -7.456069
   28       -7.353931
   29       -3.635427
   30       -2.654853
   31       -2.652949
   32       -1.759071
   33       -1.743163
   34       -1.722680
   35       -1.719715
   36       -1.706278
   37       -1.704363
   38       -1.682726
   39       -1.667003
   40       -1.459966
   41       -1.449484
   42       -1.426359
   43       -1.425683
   44       -1.391948
   45        1.446668
   46        1.576381
   47        1.592195
   48        1.592821
   49        1.608573
   50        1.711618
   51        1.726309
   52        1.726672
   53        1.741356
   54        1.927198
   55        1.931864
   56        2.093247
   57        2.094298
   58        2.459073
   59        2.461199
   60        2.468120
   61        2.471271
   62        2.719997
   63        2.873976
   64        2.891762
   65        6.459184
   66        6.466255
   67        6.651419
   68        6.654478
   69        6.657295
   70        6.660077
   71        6.726652
   72        7.066713
   73        7.069739
   74        7.253197
   75        7.259246
   76        7.733050
   77        9.455193
   78       12.080741
   79       12.250065
   80       12.253924
   81       12.302463
   82       12.303073
   83       12.374539
   84       12.407743
 
  0.1111111E+00  0.1111111E+00  0.0000000E+00  0.6172840E-02
    1      -14.563195
    2      -14.395277
    3      -14.394577
    4      -14.213373
    5      -10.708185
    6      -10.705151
    7      -10.579511
    8      -10.576997
    9      -10.576977
   10      -10.573376
   11      -10.440839
   12      -10.437737
   13       -9.258362
   14       -9.186904
   15       -9.185919
   16       -9.129157
   17       -8.173531
   18       -8.141188
   19       -8.137354
   20       -8.079152
   21       -6.870433
   22       -6.867104
   23       -6.777788
   24       -6.774193
   25       -6.774172
   26       -6.771203
   27       -6.676765
   28       -6.673483
   29       -3.456501
   30       -2.481271
   31       -2.479368
   32       -2.428670
   33       -2.382793
   34       -2.380978
   35       -2.333880
   36       -1.615495
   37       -1.613012
   38       -1.578758
   39       -1.577830
   40       -1.577822
   41       -1.573354
   42       -1.540490
   43       -1.537470
   44       -1.283559
   45        1.003820
   46        1.007197
   47        1.044022
   48        1.059261
   49        1.063140
   50        1.076720
   51        1.399983
   52        1.410349
   53        1.415536
   54        1.428891
   55        1.733219
   56        1.734572
   57        1.734686
   58        1.738395
   59        2.316029
   60        2.520838
   61        2.523191
   62        2.776558
   63        2.778750
   64        3.065598
   65        6.393567
   66        6.448623
   67        6.454137
   68        6.929372
   69        7.188543
   70        7.191109
   71        7.606244
   72        7.611026
   73        7.611603
   74        7.613481
   75        8.256395
   76        8.259272
   77        9.631573
   78       12.394792
   79       12.398758
   80       12.453953
   81       12.458068
   82       12.673821
   83       12.676262
   84       12.677695
 
  0.2222222E+00  0.1111111E+00  0.0000000E+00  0.6172840E-02
    1      -14.268997
    2      -14.103853
    3      -14.103172
    4      -13.925222
    5      -11.675677
    6      -11.535524
    7      -11.534921
    8      -11.385847
    9      -11.049867
   10      -10.916171
   11      -10.915453
   12      -10.773680
   13       -9.314027
   14       -9.212028
   15       -9.211626
   16       -9.109276
   17       -7.717796
   18       -7.641393
   19       -7.638161
   20       -7.551321
   21       -6.082565
   22       -5.996111
   23       -5.995249
   24       -5.905121
   25       -5.485082
   26       -5.401597
   27       -5.400291
   28       -5.313261
   29       -3.339053
   30       -3.283522
   31       -3.281764
   32       -3.224096
   33       -3.100218
   34       -2.143860
   35       -2.136167
   36       -2.134259
   37       -2.099279
   38       -2.099042
   39       -2.053243
   40       -1.327070
   41       -1.292380
   42       -1.289190
   43       -1.253970
   44       -0.954215
   45       -0.044856
   46        0.086579
   47        0.112356
   48        0.116725
   49        0.141371
   50        0.665720
   51        0.783127
   52        0.785043
   53        0.853914
   54        0.870767
   55        0.876486
   56        0.895175
   57        1.446155
   58        1.447445
   59        1.751866
   60        2.334861
   61        2.446348
   62        2.978769
   63        2.980904
   64        3.391944
   65        6.352018
   66        6.457907
   67        6.462921
   68        6.868213
   69        7.757298
   70        8.180968
   71        8.183543
   72        8.529739
   73        8.735025
   74        8.979517
   75        8.982705
   76        9.572162
   77        9.985303
   78       12.595413
   79       12.678208
   80       12.682240
   81       12.817994
   82       12.819720
   83       12.919642
   84       13.343308
 
  0.3333333E+00  0.1111111E+00  0.0000000E+00  0.6172840E-02
    1      -13.829551
    2      -13.668605
    3      -13.667952
    4      -13.494876
    5      -12.527973
    6      -12.379404
    7      -12.378772
    8      -12.220043
    9      -11.259319
   10      -11.123205
   11      -11.122475
   12      -10.978231
   13       -9.459725
   14       -9.345898
   15       -9.345494
   16       -9.227035
   17       -6.952917
   18       -6.874856
   19       -6.871796
   20       -6.789940
   21       -5.279418
   22       -5.208123
   23       -5.206531
   24       -5.133374
   25       -4.277795
   26       -4.220809
   27       -4.218858
   28       -4.157483
   29       -4.032616
   30       -3.962109
   31       -3.960574
   32       -3.887888
   33       -2.843802
   34       -2.796547
   35       -2.795866
   36       -2.745508
   37       -2.570586
   38       -1.624504
   39       -1.622537
   40       -1.162856
   41       -1.121494
   42       -1.117844
   43       -1.077417
   44       -1.024493
   45       -0.910030
   46       -0.877327
   47       -0.874016
   48       -0.840753
   49       -0.467438
   50       -0.140339
   51       -0.138492
   52        0.226905
   53        0.251292
   54        0.256278
   55        0.281624
   56        0.453454
   57        0.920959
   58        1.261893
   59        1.263255
   60        2.204698
   61        2.436963
   62        3.069292
   63        3.071064
   64        3.695837
   65        6.303787
   66        6.578051
   67        6.582012
   68        6.969262
   69        8.266628
   70        8.636648
   71        8.638913
   72        9.046704
   73       10.098479
   74       10.484803
   75       10.489110
   76       10.517119
   77       10.982801
   78       12.065837
   79       12.867424
   80       12.984544
   81       12.992796
   82       13.002358
   83       13.004566
   84       13.208713
 
  0.4444444E+00  0.1111111E+00  0.0000000E+00  0.6172840E-02
    1      -13.249545
    2      -13.246554
    3      -13.094923
    4      -13.092942
    5      -13.091974
    6      -13.089085
    7      -12.926766
    8      -12.923705
    9      -11.329985
   10      -11.193317
   11      -11.192578
   12      -11.047532
   13       -9.514891
   14       -9.398782
   15       -9.398239
   16       -9.276872
   17       -6.437733
   18       -6.387294
   19       -6.384416
   20       -6.336934
   21       -4.799859
   22       -4.793759
   23       -4.765144
   24       -4.763212
   25       -4.757772
   26       -4.754253
   27       -4.723881
   28       -4.714957
   29       -3.255162
   30       -3.228407
   31       -3.225797
   32       -3.191815
   33       -2.571227
   34       -2.567086
   35       -2.516450
   36       -2.511927
   37       -2.509987
   38       -2.509806
   39       -2.454974
   40       -2.451282
   41       -1.876064
   42       -1.873533
   43       -0.955103
   44       -0.953073
   45       -0.952248
   46       -0.948978
   47       -0.383128
   48       -0.378587
   49       -0.352100
   50       -0.352022
   51       -0.349810
   52       -0.342461
   53       -0.319851
   54       -0.312783
   55        0.163471
   56        0.166309
   57        0.380740
   58        1.198041
   59        1.199452
   60        2.157593
   61        2.422770
   62        3.092991
   63        3.094293
   64        3.813909
   65        6.293294
   66        6.646021
   67        6.648796
   68        7.023736
   69        8.488211
   70        8.814143
   71        8.816602
   72        9.140258
   73       11.213897
   74       11.215718
   75       11.699859
   76       11.703253
   77       11.978198
   78       11.984480
   79       11.985479
   80       11.988551
   81       12.384587
   82       12.388551
   83       13.104507
   84       13.117208
 
 -0.4444444E+00  0.1111111E+00  0.0000000E+00  0.6172840E-02
    1      -13.830295
    2      -13.669353
    3      -13.668686
    4      -13.495614
    5      -12.526789
    6      -12.378221
    7      -12.377606
    8      -12.218853
    9      -11.261082
   10      -11.124985
   11      -11.124251
   12      -10.980027
   13       -9.456835
   14       -9.342825
   15       -9.342224
   16       -9.223668
   17       -6.946410
   18       -6.867408
   19       -6.866131
   20       -6.783485
   21       -5.289304
   22       -5.218493
   23       -5.215355
   24       -5.142626
   25       -4.288244
   26       -4.230652
   27       -4.230375
   28       -4.168346
   29       -4.035106
   30       -3.964864
   31       -3.962964
   32       -3.890516
   33       -2.831196
   34       -2.784618
   35       -2.782100
   36       -2.732486
   37       -2.571394
   38       -1.625290
   39       -1.623349
   40       -1.161376
   41       -1.119432
   42       -1.117204
   43       -1.076163
   44       -1.023295
   45       -0.907538
   46       -0.875036
   47       -0.871260
   48       -0.838212
   49       -0.468237
   50       -0.139206
   51       -0.137287
   52        0.225370
   53        0.250277
   54        0.253734
   55        0.279439
   56        0.451744
   57        0.922080
   58        1.259755
   59        1.261200
   60        2.201792
   61        2.438385
   62        3.073384
   63        3.074234
   64        3.704354
   65        6.301560
   66        6.579948
   67        6.582160
   68        6.969394
   69        8.262617
   70        8.632592
   71        8.635841
   72        9.045509
   73       10.098557
   74       10.483587
   75       10.488362
   76       10.515996
   77       10.980883
   78       12.067442
   79       12.864837
   80       12.984888
   81       12.993060
   82       12.999711
   83       13.002726
   84       13.250994
 
 -0.3333333E+00  0.1111111E+00  0.0000000E+00  0.6172840E-02
    1      -14.269518
    2      -14.104389
    3      -14.103696
    4      -13.925742
    5      -11.674286
    6      -11.534127
    7      -11.533530
    8      -11.384452
    9      -11.053438
   10      -10.919769
   11      -10.919065
   12      -10.777335
   13       -9.307634
   14       -9.205034
   15       -9.204431
   16       -9.101168
   17       -7.713725
   18       -7.635478
   19       -7.634740
   20       -7.546176
   21       -6.092406
   22       -6.006818
   23       -6.004176
   24       -5.914719
   25       -5.487560
   26       -5.404199
   27       -5.402692
   28       -5.315894
   29       -3.352805
   30       -3.296738
   31       -3.296284
   32       -3.237925
   33       -3.100804
   34       -2.136754
   35       -2.134879
   36       -2.127794
   37       -2.084105
   38       -2.081945
   39       -2.037153
   40       -1.325138
   41       -1.290533
   42       -1.287131
   43       -1.252044
   44       -0.954800
   45       -0.043528
   46        0.085663
   47        0.112240
   48        0.113787
   49        0.139587
   50        0.662452
   51        0.784342
   52        0.786331
   53        0.855859
   54        0.873373
   55        0.876347
   56        0.895059
   57        1.441921
   58        1.443394
   59        1.752986
   60        2.328910
   61        2.448173
   62        2.986320
   63        2.986848
   64        3.407417
   65        6.346355
   66        6.460711
   67        6.463217
   68        6.871162
   69        7.752927
   70        8.174775
   71        8.178781
   72        8.529349
   73        8.731369
   74        8.978099
   75        8.981604
   76        9.570120
   77        9.984484
   78       12.593591
   79       12.677262
   80       12.681246
   81       12.815900
   82       12.818122
   83       12.919348
   84       13.344155
 
 -0.2222222E+00  0.1111111E+00  0.0000000E+00  0.6172840E-02
    1      -14.563517
    2      -14.395603
    3      -14.394897
    4      -14.213698
    5      -10.712071
    6      -10.705059
    7      -10.582571
    8      -10.581946
    9      -10.575472
   10      -10.574815
   11      -10.444989
   12      -10.437793
   13       -9.247615
   14       -9.174551
   15       -9.173988
   16       -9.115501
   17       -8.173991
   18       -8.139101
   19       -8.138532
   20       -8.077843
   21       -6.876325
   22       -6.871410
   23       -6.783146
   24       -6.780663
   25       -6.777691
   26       -6.776338
   27       -6.682740
   28       -6.677936
   29       -3.456856
   30       -2.481622
   31       -2.479727
   32       -2.444143
   33       -2.397685
   34       -2.397087
   35       -2.349391
   36       -1.612425
   37       -1.597656
   38       -1.576633
   39       -1.573432
   40       -1.561449
   41       -1.559379
   42       -1.537149
   43       -1.522643
   44       -1.283914
   45        1.000640
   46        1.007191
   47        1.037287
   48        1.053232
   49        1.054424
   50        1.069236
   51        1.408208
   52        1.420143
   53        1.420593
   54        1.433970
   55        1.727940
   56        1.729468
   57        1.735613
   58        1.738053
   59        2.317809
   60        2.512258
   61        2.523325
   62        2.785956
   63        2.786529
   64        3.084677
   65        6.385913
   66        6.452021
   67        6.454931
   68        6.935646
   69        7.188424
   70        7.188629
   71        7.603073
   72        7.606926
   73        7.607617
   74        7.611006
   75        8.253176
   76        8.255084
   77        9.631060
   78       12.394061
   79       12.397900
   80       12.455148
   81       12.488279
   82       12.675676
   83       12.680965
   84       12.708948
 
 -0.1111111E+00  0.1111111E+00  0.0000000E+00  0.6172840E-02
    1      -14.710802
    2      -14.541501
    3      -14.540789
    4      -14.357976
    5      -10.248839
    6      -10.126577
    7      -10.126130
    8       -9.998207
    9       -9.691596
   10       -9.689282
   11       -9.585493
   12       -9.584038
   13       -9.584013
   14       -9.580800
   15       -9.477471
   16       -9.475127
   17       -8.065618
   18       -8.063656
   19       -7.982593
   20       -7.980000
   21       -7.979982
   22       -7.978746
   23       -7.885952
   24       -7.884080
   25       -7.558669
   26       -7.463443
   27       -7.460848
   28       -7.359698
   29       -3.635546
   30       -2.654970
   31       -2.653069
   32       -1.760377
   33       -1.758141
   34       -1.722909
   35       -1.722281
   36       -1.722272
   37       -1.718003
   38       -1.684325
   39       -1.681576
   40       -1.449605
   41       -1.442796
   42       -1.409795
   43       -1.407798
   44       -1.374691
   45        1.441612
   46        1.565783
   47        1.580107
   48        1.585398
   49        1.600709
   50        1.719765
   51        1.734053
   52        1.738428
   53        1.751552
   54        1.930938
   55        1.933075
   56        2.085190
   57        2.086864
   58        2.468092
   59        2.468628
   60        2.468791
   61        2.472847
   62        2.707098
   63        2.890281
   64        2.892187
   65        6.459181
   66        6.461527
   67        6.652218
   68        6.657933
   69        6.658258
   70        6.660212
   71        6.727780
   72        7.061053
   73        7.066042
   74        7.257263
   75        7.260416
   76        7.726856
   77        9.455017
   78       12.114093
   79       12.249796
   80       12.253736
   81       12.335464
   82       12.336675
   83       12.371876
   84       12.375639
 
  0.1355253E-19  0.2222222E+00  0.0000000E+00  0.6172840E-02
    1      -14.489674
    2      -14.322448
    3      -14.321742
    4      -14.141367
    5      -11.255242
    6      -11.119255
    7      -11.118619
    8      -10.974469
    9      -10.049920
   10      -10.043584
   11       -9.930152
   12       -9.929333
   13       -9.923676
   14       -9.921800
   15       -9.803531
   16       -9.796681
   17       -7.388647
   18       -7.381904
   19       -7.296033
   20       -7.295070
   21       -7.287878
   22       -7.287543
   23       -7.195764
   24       -7.188694
   25       -6.226256
   26       -6.135754
   27       -6.135110
   28       -6.040687
   29       -3.367381
   30       -2.394885
   31       -2.392996
   32       -2.368039
   33       -2.353032
   34       -2.323146
   35       -2.320442
   36       -2.307540
   37       -2.305940
   38       -2.274019
   39       -2.259179
   40       -1.244861
   41       -1.211815
   42       -1.211195
   43       -1.201032
   44       -1.178045
   45        0.415374
   46        0.747360
   47        0.773638
   48        0.774186
   49        0.800411
   50        1.203442
   51        1.204878
   52        1.289868
   53        1.310076
   54        1.310573
   55        1.330845
   56        1.697384
   57        1.702361
   58        2.100267
   59        2.338085
   60        2.340164
   61        2.345447
   62        2.348456
   63        2.961204
   64        2.974161
   65        6.681016
   66        6.684432
   67        6.986263
   68        6.988741
   69        6.992606
   70        6.995035
   71        7.557519
   72        7.562485
   73        7.828207
   74        8.289613
   75        8.292429
   76        8.944207
   77        9.719387
   78       12.199529
   79       12.413431
   80       12.413995
   81       12.461402
   82       12.465209
   83       12.614358
   84       13.255896
 
  0.1111111E+00  0.2222222E+00  0.0000000E+00  0.6172840E-02
    1      -14.268991
    2      -14.103851
    3      -14.103162
    4      -13.925216
    5      -11.675637
    6      -11.535514
    7      -11.534851
    8      -11.385807
    9      -11.049896
   10      -10.916176
   11      -10.915502
   12      -10.773706
   13       -9.314015
   14       -9.212008
   15       -9.211622
   16       -9.109264
   17       -7.717865
   18       -7.641394
   19       -7.638330
   20       -7.551423
   21       -6.083607
   22       -5.997339
   23       -5.996076
   24       -5.906141
   25       -5.484045
   26       -5.400325
   27       -5.399517
   28       -5.312247
   29       -3.338958
   30       -3.283361
   31       -3.281764
   32       -3.224026
   33       -3.100233
   34       -2.142589
   35       -2.136179
   36       -2.134283
   37       -2.099255
   38       -2.096378
   39       -2.051802
   40       -1.328357
   41       -1.292390
   42       -1.291997
   43       -1.255538
   44       -0.954237
   45       -0.045244
   46        0.088192
   47        0.114453
   48        0.116726
   49        0.142092