   32   32    1    1
  0.8863011E+01  0.4934311E-09  0.4934311E-09  0.1345148E-08  0.5000000E-15
  1.000000000000000E-004
  CAR 
 graphite                                
    128    163     84
 
  0.0000000E+00  0.0000000E+00  0.0000000E+00  0.3086420E-02
    1      -14.969293
    2      -14.826988
    3      -14.826543
    4      -14.674446
    5       -9.649356
    6       -9.646800
    7       -9.644514
    8       -9.591107
    9       -9.587195
   10       -9.586888
   11       -9.586400
   12       -9.586377
   13       -9.582553
   14       -9.538566
   15       -9.536732
   16       -9.534534
   17       -8.572451
   18       -8.570945
   19       -8.569937
   20       -8.542133
   21       -8.539726
   22       -8.538701
   23       -8.538210
   24       -8.538198
   25       -8.535547
   26       -8.489469
   27       -8.488075
   28       -8.486164
   29       -3.832876
   30       -2.956792
   31       -2.955102
   32       -1.889890
   33       -1.745612
   34       -1.743159
   35       -1.742121
   36       -1.719628
   37       -1.717166
   38       -1.717159
   39       -1.715905
   40       -1.714009
   41       -1.713227
   42       -1.690617
   43       -1.688166
   44       -1.687014
   45        1.643689
   46        1.648408
   47        1.655537
   48        1.655606
   49        1.660145
   50        1.660408
   51        1.667470
   52        1.671607
   53        1.895245
   54        1.897336
   55        1.899135
   56        2.294617
   57        2.298212
   58        2.298377
   59        2.298488
   60        2.298621
   61        2.302056
   62        2.573587
   63        2.575105
   64        2.576571
   65        6.161819
   66        6.163217
   67        6.164357
   68        6.299885
   69        6.304346
   70        6.305882
   71        6.306312
   72        6.306687
   73        6.311327
   74        6.826530
   75        6.828565
   76        6.830645
   77        8.938732
   78       11.555656
   79       11.559059
   80       11.844010
   81       11.847855
   82       11.850906
   83       12.033033
   84       12.037169
 
  0.1111111E+00 -0.2081668E-16  0.0000000E+00  0.6172840E-02
    1      -14.895749
    2      -14.753945
    3      -14.753501
    4      -14.602154
    5      -10.440749
    6      -10.339305
    7      -10.339006
    8      -10.233672
    9       -9.896814
   10       -9.894283
   11       -9.810288
   12       -9.807765
   13       -9.807034
   14       -9.805528
   15       -9.720698
   16       -9.718212
   17       -8.268538
   18       -8.267136
   19       -8.199275
   20       -8.198900
   21       -8.197686
   22       -8.195856
   23       -8.121133
   24       -8.119533
   25       -7.757921
   26       -7.679297
   27       -7.677245
   28       -7.594504
   29       -3.743573
   30       -2.869768
   31       -2.868084
   32       -1.971767
   33       -1.968932
   34       -1.942674
   35       -1.940788
   36       -1.938585
   37       -1.937704
   38       -1.910739
   39       -1.908038
   40       -1.806390
   41       -1.670972
   42       -1.644983
   43       -1.642583
   44       -1.616481
   45        1.305511
   46        1.344561
   47        1.356767
   48        1.361237
   49        1.372240
   50        1.490609
   51        1.500714
   52        1.504935
   53        1.516704
   54        1.779409
   55        1.781882
   56        1.872407
   57        1.874509
   58        2.242981
   59        2.246614
   60        2.246780
   61        2.247713
   62        2.430806
   63        2.625307
   64        2.627292
   65        6.238285
   66        6.239593
   67        6.434321
   68        6.436009
   69        6.437078
   70        6.441552
   71        6.526459
   72        6.842072
   73        6.846747
   74        6.962059
   75        6.964383
   76        7.425848
   77        9.027472
   78       11.632385
   79       11.635774
   80       11.887430
   81       12.073843
   82       12.074748
   83       12.179345
   84       12.185114
 
  0.2222222E+00 -0.1387779E-16  0.0000000E+00  0.6172840E-02
    1      -14.675315
    2      -14.535344
    3      -14.534899
    4      -14.385634
    5      -11.450637
    6      -11.337548
    7      -11.337149
    8      -11.218531
    9      -10.243854
   10      -10.241815
   11      -10.145218
   12      -10.143249
   13      -10.142694
   14      -10.141249
   15      -10.040511
   16      -10.038448
   17       -7.588610
   18       -7.586979
   19       -7.512065
   20       -7.511728
   21       -7.510321
   22       -7.508708
   23       -7.430404
   24       -7.428662
   25       -6.434320
   26       -6.360786
   27       -6.358826
   28       -6.282414
   29       -3.476516
   30       -2.609980
   31       -2.608315
   32       -2.578329
   33       -2.575733
   34       -2.542409
   35       -2.540547
   36       -2.538652
   37       -2.537660
   38       -2.502849
   39       -2.500335
   40       -1.556965
   41       -1.456117
   42       -1.430880
   43       -1.428396
   44       -1.402772
   45        0.286958
   46        0.518589
   47        0.538196
   48        0.542669
   49        0.562174
   50        0.984239
   51        0.985893
   52        1.071280
   53        1.085745
   54        1.089920
   55        1.105037
   56        1.558946
   57        1.561213
   58        1.774978
   59        2.121636
   60        2.125282
   61        2.125472
   62        2.126447
   63        2.681136
   64        2.683309
   65        6.482464
   66        6.484206
   67        6.767863
   68        6.769297
   69        6.770353
   70        6.774630
   71        7.267261
   72        7.269706
   73        7.652352
   74        8.063275
   75        8.067209
   76        8.636837
   77        9.294392
   78       11.861154
   79       11.864529
   80       12.003608
   81       12.183397
   82       12.184501
   83       12.347791
   84       13.021876
 
  0.3333333E+00 -0.2775558E-16  0.0000000E+00  0.6172840E-02
    1      -14.309188
    2      -14.172213
    3      -14.171766
    4      -14.025962
    5      -12.362620
    6      -12.241731
    7      -12.241298
    8      -12.113512
    9      -10.500638
   10      -10.498812
   11      -10.397322
   12      -10.395505
   13      -10.395165
   14      -10.393672
   15      -10.287614
   16      -10.285756
   17       -6.781419
   18       -6.779563
   19       -6.710964
   20       -6.710552
   21       -6.709155
   22       -6.707219
   23       -6.636935
   24       -6.634954
   25       -5.002095
   26       -4.938522
   27       -4.936324
   28       -4.870696
   29       -3.393736
   30       -3.391456
   31       -3.351278
   32       -3.349188
   33       -3.347947
   34       -3.346669
   35       -3.304518
   36       -3.302300
   37       -3.034283
   38       -2.180532
   39       -2.178883
   40       -1.145686
   41       -1.107548
   42       -1.083407
   43       -1.080754
   44       -1.055959
   45       -0.733570
   46       -0.665846
   47       -0.635847
   48       -0.632203
   49       -0.602109
   50        0.031984
   51        0.033502
   52        0.509110
   53        0.527259
   54        0.531069
   55        0.549819
   56        0.933905
   57        1.367628
   58        1.369761
   59        1.997398
   60        2.001031
   61        2.001246
   62        2.002283
   63        2.686191
   64        2.688479
   65        6.838001
   66        6.840184
   67        7.158101
   68        7.159101
   69        7.160015
   70        7.164151
   71        7.571621
   72        7.574165
   73        9.156073
   74        9.539203
   75        9.542998
   76        9.739729
   77       10.042892
   78       12.007677
   79       12.219467
   80       12.223092
   81       12.265663
   82       12.350941
   83       12.352290
   84       12.647234
 
  0.4444444E+00 -0.2775558E-16  0.0000000E+00  0.6172840E-02
    1      -13.799263
    2      -13.666547
    3      -13.666091
    4      -13.525067
    5      -13.148644
    6      -13.021270
    7      -13.020838
    8      -12.885849
    9      -10.633068
   10      -10.631331
   11      -10.528203
   12      -10.526373
   13      -10.526256
   14      -10.524674
   15      -10.416354
   16      -10.414582
   17       -6.033527
   18       -6.031621
   19       -5.982725
   20       -5.982092
   21       -5.981525
   22       -5.978220
   23       -5.931299
   24       -5.929048
   25       -4.142609
   26       -4.140827
   27       -4.108232
   28       -4.105432
   29       -4.105036
   30       -4.103598
   31       -4.065994
   32       -4.064400
   33       -3.522530
   34       -3.470199
   35       -3.467623
   36       -3.413700
   37       -2.421948
   38       -2.051376
   39       -2.010826
   40       -2.007661
   41       -1.965331
   42       -1.649054
   43       -1.586884
   44       -1.585392
   45       -0.842369
   46       -0.840850
   47       -0.641995
   48       -0.618966
   49       -0.616073
   50       -0.592707
   51       -0.580395
   52       -0.087299
   53       -0.066235
   54       -0.062810
   55       -0.041307
   56        0.123279
   57        1.261635
   58        1.263705
   59        1.922621
   60        1.926241
   61        1.926467
   62        1.927551
   63        2.673002
   64        2.675336
   65        7.121966
   66        7.124446
   67        7.424477
   68        7.425003
   69        7.425454
   70        7.429727
   71        7.740274
   72        7.742818
   73       10.360247
   74       10.777843
   75       11.075789
   76       11.080287
   77       11.148566
   78       11.496786
   79       12.369426
   80       12.402389
   81       12.412506
   82       12.460594
   83       12.544080
   84       12.546752
 
 -0.8470329E-21  0.1111111E+00  0.0000000E+00  0.6172840E-02
    1      -14.895747
    2      -14.753943
    3      -14.753499
    4      -14.602152
    5      -10.440858
    6      -10.339470
    7      -10.339089
    8      -10.233815
    9       -9.896733
   10       -9.894022
   11       -9.810042
   12       -9.807766
   13       -9.807040
   14       -9.805019
   15       -9.720571
   16       -9.717930
   17       -8.269736
   18       -8.267315
   19       -8.201511
   20       -8.199249
   21       -8.197672
   22       -8.195729
   23       -8.122204
   24       -8.119556
   25       -7.756902
   26       -7.677427
   27       -7.677174
   28       -7.593572
   29       -3.743577
   30       -2.869773
   31       -2.868089
   32       -1.970272
   33       -1.969164
   34       -1.940803
   35       -1.940676
   36       -1.938180
   37       -1.937702
   38       -1.909325
   39       -1.908229
   40       -1.806397
   41       -1.672061
   42       -1.645064
   43       -1.644953
   44       -1.617887
   45        1.304840
   46        1.348407
   47        1.360997
   48        1.361231
   49        1.373769
   50        1.489153
   51        1.500719
   52        1.500788
   53        1.512373
   54        1.779899
   55        1.782576
   56        1.872097
   57        1.872889
   58        2.243913
   59        2.246605
   60        2.246772
   61        2.249317
   62        2.429721
   63        2.625704
   64        2.628063
   65        6.237150
   66        6.238824
   67        6.431926
   68        6.435315
   69        6.437234
   70        6.440296
   71        6.528293
   72        6.844804
   73        6.847557
   74        6.960637
   75        6.963585
   76        7.427625
   77        9.027466
   78       11.632355
   79       11.635745
   80       11.886792
   81       12.073219
   82       12.074001
   83       12.180495
   84       12.184185
 
  0.1111111E+00  0.1111111E+00  0.0000000E+00  0.6172840E-02
    1      -14.748741
    2      -14.608158
    3      -14.607713
    4      -14.457739
    5      -10.904738
    6      -10.901750
    7      -10.798516
    8      -10.795386
    9      -10.795367
   10      -10.792510
   11      -10.683982
   12      -10.680950
   13       -9.459327
   14       -9.401092
   15       -9.399456
   16       -9.351075
   17       -8.387076
   18       -8.357546
   19       -8.354490
   20       -8.307373
   21       -7.076890
   22       -7.073596
   23       -7.001288
   24       -6.997091
   25       -6.997069
   26       -6.994849
   27       -6.918121
   28       -6.914939
   29       -3.565395
   30       -2.696429
   31       -2.694756
   32       -2.651665
   33       -2.615099
   34       -2.612635
   35       -2.575414
   36       -1.826415
   37       -1.823990
   38       -1.797466
   39       -1.795853
   40       -1.795846
   41       -1.792188
   42       -1.766510
   43       -1.763531
   44       -1.639908
   45        0.812968
   46        0.825745
   47        0.830761
   48        0.841194
   49        0.872244
   50        0.873594
   51        1.178663
   52        1.186910
   53        1.191071
   54        1.202197
   55        1.513088
   56        1.514805
   57        1.514946
   58        1.518048
   59        2.162346
   60        2.209236
   61        2.211547
   62        2.561351
   63        2.564082
   64        2.834549
   65        6.145253
   66        6.230115
   67        6.234859
   68        6.654004
   69        7.005927
   70        7.008456
   71        7.382486
   72        7.387501
   73        7.387818
   74        7.389469
   75        7.951745
   76        7.954553
   77        9.205486
   78       11.786538
   79       11.789918
   80       12.258226
   81       12.262277
   82       12.445703
   83       12.446595
   84       12.450621
 
  0.2222222E+00  0.1111111E+00  0.0000000E+00  0.6172840E-02
    1      -14.455441
    2      -14.317266
    3      -14.316819
    4      -14.169649
    5      -11.869133
    6      -11.752478
    7      -11.752057
    8      -11.629202
    9      -11.244323
   10      -11.133241
   11      -11.132902
   12      -11.016057
   13       -9.510798
   14       -9.426953
   15       -9.425974
   16       -9.341631
   17       -7.922199
   18       -7.858345
   19       -7.855873
   20       -7.785028
   21       -6.292584
   22       -6.221481
   23       -6.221234
   24       -6.147465
   25       -5.695439
   26       -5.627496
   27       -5.625537
   28       -5.555324
   29       -3.558016
   30       -3.513401
   31       -3.510994
   32       -3.465048
   33       -3.210677
   34       -2.352750
   35       -2.351630
   36       -2.349981
   37       -2.317044
   38       -2.316507
   39       -2.280029
   40       -1.538407
   41       -1.510670
   42       -1.508256
   43       -1.480120
   44       -1.309418
   45       -0.169859
   46       -0.138532
   47       -0.118333
   48       -0.113658
   49       -0.094276
   50        0.537093
   51        0.564990
   52        0.566479
   53        0.633604
   54        0.646978
   55        0.651778
   56        0.666966
   57        1.227584
   58        1.228806
   59        1.417812
   60        2.010454
   61        2.298678
   62        2.763036
   63        2.765696
   64        3.143406
   65        6.119934
   66        6.237530
   67        6.241819
   68        6.595172
   69        7.580209
   70        7.955685
   71        7.957872
   72        8.356307
   73        8.440225
   74        8.753176
   75        8.756609
   76        9.271524
   77        9.562544
   78       12.092079
   79       12.095540
   80       12.382496
   81       12.585636
   82       12.586639
   83       12.621302
   84       12.992335
 
  0.3333333E+00  0.1111111E+00  0.0000000E+00  0.6172840E-02
    1      -14.017409
    2      -13.882857
    3      -13.882405
    4      -13.739343
    5      -12.718739
    6      -12.594881
    7      -12.594454
    8      -12.463489
    9      -11.452223
   10      -11.339075
   11      -11.338734
   12      -11.219822
   13       -9.655553
   14       -9.561688
   15       -9.561151
   16       -9.463715
   17       -7.158087
   18       -7.093958
   19       -7.091654
   20       -7.024870
   21       -5.493847
   22       -5.435405
   23       -5.434536
   24       -5.374754
   25       -4.492862
   26       -4.446730
   27       -4.444135
   28       -4.395247
   29       -4.247014
   30       -4.189963
   31       -4.187771
   32       -4.129151
   33       -3.051849
   34       -3.013872
   35       -3.012522
   36       -2.972303
   37       -2.683120
   38       -1.840501
   39       -1.838821
   40       -1.383816
   41       -1.350688
   42       -1.346523
   43       -1.314336
   44       -1.143215
   45       -1.122386
   46       -1.096148
   47       -1.093615
   48       -1.067072
   49       -0.820683
   50       -0.357334
   51       -0.355850
   52        0.008668
   53        0.028012
   54        0.032164
   55        0.052323
   56        0.328325
   57        0.577193
   58        1.044488
   59        1.045862
   60        1.874255
   61        2.297172
   62        2.852613
   63        2.854876
   64        3.412593
   65        6.109891
   66        6.355588
   67        6.358859
   68        6.691800
   69        8.088321
   70        8.410724
   71        8.412441
   72        8.767428
   73        9.919883
   74       10.097000
   75       10.258108
   76       10.261165
   77       10.691011
   78       11.672958
   79       12.496655
   80       12.502338
   81       12.659659
   82       12.761590
   83       12.762834
   84       13.005276
 
  0.4444444E+00  0.1111111E+00  0.0000000E+00  0.6172840E-02
    1      -13.438654
    2      -13.435855
    3      -13.310121
    4      -13.307144
    5      -13.307021
    6      -13.304484
    7      -13.170694
    8      -13.167848
    9      -11.521867
   10      -11.408245
   11      -11.407904
   12      -11.288323
   13       -9.711415
   14       -9.615600
   15       -9.615209
   16       -9.515379
   17       -6.652940
   18       -6.612044
   19       -6.609927
   20       -6.571217
   21       -5.016531
   22       -5.007368
   23       -4.984078
   24       -4.982815
   25       -4.981285
   26       -4.979844
   27       -4.950530
   28       -4.947939
   29       -3.471129
   30       -3.449569
   31       -3.446358
   32       -3.419706
   33       -2.788309
   34       -2.784839
   35       -2.744413
   36       -2.738659
   37       -2.738606
   38       -2.738468
   39       -2.693657
   40       -2.691014
   41       -1.990872
   42       -1.988598
   43       -1.171886
   44       -1.169414
   45       -1.169181
   46       -1.166195
   47       -0.597821
   48       -0.594231
   49       -0.573706
   50       -0.572101
   51       -0.572031
   52       -0.564868
   53       -0.547553
   54       -0.540815
   55       -0.186003
   56       -0.183406
   57        0.257267
   58        0.981672
   59        0.983175
   60        1.826187
   61        2.285361
   62        2.874913
   63        2.876649
   64        3.511206
   65        6.118006
   66        6.422205
   67        6.424311
   68        6.745808
   69        8.309437
   70        8.589249
   71        8.591033
   72        8.869471
   73       10.804969
   74       10.805979
   75       11.510825
   76       11.514077
   77       11.745674
   78       11.752575
   79       11.753049
   80       11.756555
   81       12.103780
   82       12.107280
   83       12.874512
   84       12.886423
 
 -0.4444444E+00  0.1111111E+00  0.0000000E+00  0.6172840E-02
    1      -14.017495
    2      -13.882938
    3      -13.882496
    4      -13.739428
    5      -12.718601
    6      -12.594749
    7      -12.594310
    8      -12.463351
    9      -11.452432
   10      -11.339283
   11      -11.338943
   12      -11.220031
   13       -9.655192
   14       -9.561217
   15       -9.560878
   16       -9.463328
   17       -7.157372
   18       -7.092426
   19       -7.091850
   20       -7.024254
   21       -5.494954
   22       -5.437193
   23       -5.434812
   24       -5.375701
   25       -4.493928
   26       -4.447042
   27       -4.446134
   28       -4.396472
   29       -4.247343
   30       -4.190452
   31       -4.187907
   32       -4.129449
   33       -3.050598
   34       -3.013372
   35       -3.010219
   36       -2.970795
   37       -2.683219
   38       -1.840598
   39       -1.838918
   40       -1.383416
   41       -1.349812
   42       -1.347010
   43       -1.314289
   44       -1.143064
   45       -1.122112
   46       -1.096055
   47       -1.093074
   48       -1.066687
   49       -0.820778
   50       -0.357207
   51       -0.355690
   52        0.008666
   53        0.028513
   54        0.031218
   55        0.051648
   56        0.328077
   57        0.577325
   58        1.044100
   59        1.045719
   60        1.873965
   61        2.297580
   62        2.853627
   63        2.854813
   64        3.413225
   65        6.109799
   66        6.356418
   67        6.358072
   68        6.691792
   69        8.087863
   70        8.409934
   71        8.412524
   72        8.767284
   73        9.919733
   74       10.096870
   75       10.257816
   76       10.261190
   77       10.690918
   78       11.673159
   79       12.496571
   80       12.502243
   81       12.659358
   82       12.760948
   83       12.762999
   84       13.005054
 
 -0.3333333E+00  0.1111111E+00  0.0000000E+00  0.6172840E-02
    1      -14.455502
    2      -14.317324
    3      -14.316883
    4      -14.169710
    5      -11.868965
    6      -11.752311
    7      -11.751885
    8      -11.629030
    9      -11.244754
   10      -11.133671
   11      -11.133328
   12      -11.016484
   13       -9.509972
   14       -9.425754
   15       -9.425456
   16       -9.340730
   17       -7.921750
   18       -7.856790
   19       -7.856588
   20       -7.784602
   21       -6.293656
   22       -6.223334
   23       -6.221439
   24       -6.148448
   25       -5.695756
   26       -5.627904
   27       -5.625747
   28       -5.555626
   29       -3.559439
   30       -3.513858
   31       -3.513528
   32       -3.466601
   33       -3.210749
   34       -2.351858
   35       -2.351023
   36       -2.349990
   37       -2.316419
   38       -2.313618
   39       -2.278176
   40       -1.538196
   41       -1.510546
   42       -1.507926
   43       -1.479869
   44       -1.309488
   45       -0.169624
   46       -0.137992
   47       -0.117156
   48       -0.115108
   49       -0.094793
   50        0.536654
   51        0.565105
   52        0.566609
   53        0.634321
   54        0.648464
   55        0.650765
   56        0.665772
   57        1.226811
   58        1.228546
   59        1.417933
   60        2.009878
   61        2.299479
   62        2.764923
   63        2.765570
   64        3.144437
   65        6.119972
   66        6.238604
   67        6.240746
   68        6.595054
   69        7.579604
   70        7.954579
   71        7.957929
   72        8.356148
   73        8.439916
   74        8.752828
   75        8.756617
   76        9.271385
   77        9.562448
   78       12.091971
   79       12.095423
   80       12.382376
   81       12.585201
   82       12.586687
   83       12.621327
   84       12.992100
 
 -0.2222222E+00  0.1111111E+00  0.0000000E+00  0.6172840E-02
    1      -14.748777
    2      -14.608192
    3      -14.607751
    4      -14.457775
    5      -10.903836
    6      -10.903010
    7      -10.796291
    8      -10.795926
    9      -10.795424
   10      -10.795074
   11      -10.683172
   12      -10.682332
   13       -9.457850
   14       -9.398920
   15       -9.398692
   16       -9.349635
   17       -8.386972
   18       -8.356213
   19       -8.356032
   20       -8.307604
   21       -7.075904
   22       -7.075566
   23       -6.999316
   24       -6.998821
   25       -6.997334
   26       -6.997059
   27       -6.917313
   28       -6.916973
   29       -3.565438
   30       -2.696473
   31       -2.694798
   32       -2.653259
   33       -2.615645
   34       -2.615458
   35       -2.577172
   36       -1.824383
   37       -1.823952
   38       -1.795761
   39       -1.795448
   40       -1.793335
   41       -1.792733
   42       -1.764281
   43       -1.763873
   44       -1.639950
   45        0.814296
   46        0.826674
   47        0.827619
   48        0.839389
   49        0.871656
   50        0.873760
   51        1.180422
   52        1.190021
   53        1.190112
   54        1.200733
   55        1.512967
   56        1.514850
   57        1.514984
   58        1.516833
   59        2.163439
   60        2.209078
   61        2.210964
   62        2.563695
   63        2.563966
   64        2.835675
   65        6.145495
   66        6.231197
   67        6.233825
   68        6.653802
   69        7.006195
   70        7.007517
   71        7.383128
   72        7.385756
   73        7.387353
   74        7.389705
   75        7.952215
   76        7.953609
   77        9.205426
   78       11.786461
   79       11.789841
   80       12.260530
   81       12.263712
   82       12.447143
   83       12.448160
   84       12.449938
 
 -0.1111111E+00  0.1111111E+00  0.0000000E+00  0.6172840E-02
    1      -14.895759
    2      -14.753954
    3      -14.753512
    4      -14.602164
    5      -10.441741
    6      -10.340426
    7      -10.339912
    8      -10.234712
    9       -9.895831
   10       -9.893552
   11       -9.808982
   12       -9.806877
   13       -9.806860
   14       -9.804379
   15       -9.719699
   16       -9.717394
   17       -8.269442
   18       -8.267499
   19       -8.201083
   20       -8.197874
   21       -8.197851
   22       -8.197314
   23       -8.121823
   24       -8.120012
   25       -7.757508
   26       -7.678807
   27       -7.676960
   28       -7.594130
   29       -3.743592
   30       -2.869788
   31       -2.868103
   32       -1.971683
   33       -1.969499
   34       -1.942082
   35       -1.940762
   36       -1.940754
   37       -1.937289
   38       -1.910970
   39       -1.908259
   40       -1.806411
   41       -1.670357
   42       -1.644466
   43       -1.641826
   44       -1.615908
   45        1.303993
   46        1.346594
   47        1.357744
   48        1.362196
   49        1.374787
   50        1.487932
   51        1.499654
   52        1.504240
   53        1.514170
   54        1.780771
   55        1.782937
   56        1.870443
   57        1.872563
   58        2.245554
   59        2.246603
   60        2.246694
   61        2.250145
   62        2.428659
   63        2.626488
   64        2.628443
   65        6.236918
   66        6.239296
   67        6.431346
   68        6.437060
   69        6.437481
   70        6.439108
   71        6.527886
   72        6.843667
   73        6.847953
   74        6.960523
   75        6.963595
   76        7.427427
   77        9.027446
   78       11.632327
   79       11.635718
   80       11.890671
   81       12.076725
   82       12.078322
   83       12.178337
   84       12.182292
 
 -0.1694066E-20  0.2222222E+00  0.0000000E+00  0.6172840E-02
    1      -14.675307
    2      -14.535334
    3      -14.534895
    4      -14.385626
    5      -11.450620
    6      -11.337525
    7      -11.337141
    8      -11.218518
    9      -10.244211
   10      -10.241400
   11      -10.145869
   12      -10.143252
   13      -10.142697
   14      -10.140360
   15      -10.040804
   16      -10.037983
   17       -7.589897
   18       -7.586926
   19       -7.514522
   20       -7.512025
   21       -7.510310
   22       -7.508131
   23       -7.431546
   24       -7.428471
   25       -6.433383
   26       -6.359024
   27       -6.358769
   28       -6.281528
   29       -3.476534
   30       -2.610003
   31       -2.608331
   32       -2.577234
   33       -2.575571
   34       -2.541003
   35       -2.540550
   36       -2.537678
   37       -2.537509
   38       -2.501758
   39       -2.500100
   40       -1.556992
   41       -1.457264
   42       -1.431005
   43       -1.430859
   44       -1.404263
   45        0.286479
   46        0.521499
   47        0.542437
   48        0.542666
   49        0.563898
   50        0.983901
   51        0.985086
   52        1.069619
   53        1.085597
   54        1.085755
   55        1.101656
   56        1.559167
   57        1.562032
   58        1.774263
   59        2.122269
   60        2.125258
   61        2.125408
   62        2.128228
   63        2.681526
   64        2.684175
   65        6.481123
   66        6.483464
   67        6.765153
   68        6.768733
   69        6.770434
   70        6.773639
   71        7.265552
   72        7.269312
   73        7.653838
   74        8.065269
   75        8.067876
   76        8.638130
   77        9.294377
   78       11.861045
   79       11.864423
   80       12.002944
   81       12.183003
   82       12.183521
   83       12.347092
   84       13.022085
 
  0.1111111E+00  0.2222222E+00  0.0000000E+00  0.6172840E-02
    1      -14.455435
    2      -14.317258
    3      -14.316816
    4      -14.169643
    5      -11.869094
    6      -11.752419
    7      -11.752037
    8      -11.629163
    9      -11.244350
   10      -11.133275
   11      -11.132920
   12      -11.016081
   13       -9.510786
   14       -9.426929
   15       -9.425974
   16       -9.341620
   17       -7.922269
   18       -7.858344
   19       -7.856042
   20       -7.785127
   21       -6.293610
   22       -6.223318
   23       -6.221403
   24       -6.148450
   25       -5.694416
   26       -5.625627
   27       -5.625409
   28       -5.554345
   29       -3.557921
   30       -3.513242
   31       -3.510994
   32       -3.464980
   33       -3.210692
   34       -2.351825
   35       -2.351347
   36       -2.349986
   37       -2.316521
   38       -2.314406
   39       -2.278621
   40       -1.539655
   41       -1.511016
   42       -1.510658
   43       -1.481659
   44       -1.309440
   45       -0.170165
   46       -0.136931
   47       -0.116363
   48       -0.113661
   49       -0.093615