 running on    6 total cores
 distrk:  each k-point on    6 cores,    1 groups
 distr:  one band on    1 cores,    6 groups
 using from now: INCAR     
 vasp.5.3.5 31Mar14 (build Nov 02 2014 15:17:37) complex                        
  
 POSCAR found :  1 types and      32 ions
 scaLAPACK will be used

 ----------------------------------------------------------------------------- 
|                                                                             |
|           W    W    AA    RRRRR   N    N  II  N    N   GGGG   !!!           |
|           W    W   A  A   R    R  NN   N  II  NN   N  G    G  !!!           |
|           W    W  A    A  R    R  N N  N  II  N N  N  G       !!!           |
|           W WW W  AAAAAA  RRRRR   N  N N  II  N  N N  G  GGG   !            |
|           WW  WW  A    A  R   R   N   NN  II  N   NN  G    G                |
|           W    W  A    A  R    R  N    N  II  N    N   GGGG   !!!           |
|                                                                             |
|      For optimal performance we recommend to set                            |
|        NCORE= 4 - approx SQRT( number of cores)                             |
|      NCORE specifies how many cores store one orbital (NPAR=cpu/NCORE).     |
|      This setting can  greatly improve the performance of VASP for DFT.     |
|      The default, NPAR=number of cores might be grossly inefficient         |
|      on modern multi-core architectures or massively parallel machines.     |
|      Do your own testing !!!!                                               |
|      Unfortunately you need to use the default for GW and RPA calculations. |
|      (for HF NCORE is supported but not extensively tested yet)             |
|                                                                             |
 ----------------------------------------------------------------------------- 


 ----------------------------------------------------------------------------- 
|                                                                             |
|  ADVICE TO THIS USER RUNNING 'VASP/VAMP'   (HEAR YOUR MASTER'S VOICE ...):  |
|                                                                             |
|      You have a (more or less) 'large supercell' and for larger cells       |
|      it might be more efficient to use real space projection operators      |
|      So try LREAL= Auto  in the INCAR   file.                               |
|      Mind: If you want to do a very accurate calculations keep the          |
|      reciprocal projection scheme          (i.e. LREAL=.FALSE.)             |
|                                                                             |
 ----------------------------------------------------------------------------- 

 LDA part: xc-table for Pade appr. of Perdew
 POSCAR, INCAR and KPOINTS ok, starting setup
 WARNING: small aliasing (wrap around) errors must be expected
 FFT: planning ...
 WAVECAR not read
 WARNING: random wavefunctions but no delay for mixing, default for NELMDL
 entering main loop
       N       E                     dE             d eps       ncg     rms          rms(c)
DAV:   1     0.590718656408E+03    0.59072E+03   -0.71675E+04 27384   0.160E+03
DAV:   2    -0.263099235208E+03   -0.85382E+03   -0.82295E+03 34032   0.311E+02
DAV:   3    -0.312614072841E+03   -0.49515E+02   -0.49043E+02 33444   0.753E+01
DAV:   4    -0.313550638467E+03   -0.93657E+00   -0.93477E+00 34920   0.112E+01
DAV:   5    -0.313577392899E+03   -0.26754E-01   -0.26743E-01 34992   0.178E+00    0.220E+01
DAV:   6    -0.299180801581E+03    0.14397E+02   -0.14855E+01 31296   0.107E+01    0.116E+01
DAV:   7    -0.294619968153E+03    0.45608E+01   -0.15623E+01 30960   0.109E+01    0.194E+00
DAV:   8    -0.294681425700E+03   -0.61458E-01   -0.45812E-01 31656   0.199E+00    0.513E-01
DAV:   9    -0.294683961216E+03   -0.25355E-02   -0.34324E-02 31860   0.644E-01    0.221E-01
DAV:  10    -0.294682912884E+03    0.10483E-02   -0.12871E-02 40608   0.374E-01    0.117E-01
DAV:  11    -0.294683629526E+03   -0.71664E-03   -0.78639E-03 31140   0.215E-01    0.975E-02
DAV:  12    -0.294683931333E+03   -0.30181E-03   -0.61829E-03 31200   0.180E-01    0.876E-02
DAV:  13    -0.294683838687E+03    0.92646E-04   -0.22156E-03 31404   0.118E-01    0.491E-02
DAV:  14    -0.294683807684E+03    0.31003E-04   -0.18891E-04 32052   0.422E-02    0.158E-02
DAV:  15    -0.294683808792E+03   -0.11081E-05   -0.33160E-05 32748   0.118E-02    0.140E-02
DAV:  16    -0.294683815131E+03   -0.63385E-05   -0.10813E-04 19548   0.958E-03    0.345E-02
DAV:  17    -0.294683810426E+03    0.47043E-05   -0.78518E-05 19560   0.841E-03    0.173E-02
DAV:  18    -0.294683829701E+03   -0.19274E-04   -0.29282E-04 21792   0.173E-02    0.423E-02
DAV:  19    -0.294683823978E+03    0.57232E-05   -0.44678E-04 23016   0.261E-02    0.408E-02
DAV:  20    -0.294683833392E+03   -0.94142E-05   -0.61666E-04 21684   0.287E-02    0.446E-02
DAV:  21    -0.294683812393E+03    0.20999E-04   -0.14902E-04 19404   0.184E-02    0.280E-02
DAV:  22    -0.294683809558E+03    0.28349E-05   -0.14112E-05 19332   0.581E-03    0.133E-02
DAV:  23    -0.294683809304E+03    0.25429E-06   -0.22276E-06 18504   0.254E-03
   1 F= -.29774173E+03 E0= -.29774173E+03  d E =0.000000E+00
