  32  32   0   0
  0.8206758E+01  0.4932875E-09  0.4932875E-09  0.1246769E-08  0.5000000E-15
  1.000000000000000E-004
  CAR 
 graphite                                
     17.13041654    -16.38245517  301      5.32934750      1.00000000
    -16.382  0.0000E+00  0.0000E+00
    -16.271  0.0000E+00  0.0000E+00
    -16.159  0.0000E+00  0.0000E+00
    -16.047  0.0000E+00  0.0000E+00
    -15.936  0.0000E+00  0.0000E+00
    -15.824  0.0000E+00  0.0000E+00
    -15.712  0.0000E+00  0.0000E+00
    -15.600  0.0000E+00  0.0000E+00
    -15.489  0.0000E+00  0.0000E+00
    -15.377  0.0000E+00  0.0000E+00
    -15.265  0.0000E+00  0.0000E+00
    -15.154  0.0000E+00  0.0000E+00
    -15.042  0.0000E+00  0.0000E+00
    -14.930  0.0000E+00  0.0000E+00
    -14.819  0.0000E+00  0.0000E+00
    -14.707  0.0000E+00  0.0000E+00
    -14.595  0.0000E+00  0.0000E+00
    -14.483  0.0000E+00  0.0000E+00
    -14.372  0.1960E-01  0.7039E-04
    -14.260  0.1269E+01  0.6031E-01
    -14.148  0.2051E+01  0.2656E+00
    -14.037  0.2729E+01  0.5319E+00
    -13.925  0.3574E+01  0.8818E+00
    -13.813  0.4833E+01  0.1350E+01
    -13.701  0.4715E+01  0.1914E+01
    -13.590  0.4856E+01  0.2448E+01
    -13.478  0.4990E+01  0.2999E+01
    -13.366  0.5041E+01  0.3561E+01
    -13.255  0.5101E+01  0.4125E+01
    -13.143  0.6539E+01  0.4776E+01
    -13.031  0.6958E+01  0.5535E+01
    -12.919  0.6073E+01  0.6279E+01
    -12.808  0.6471E+01  0.6953E+01
    -12.696  0.2992E+01  0.7512E+01
    -12.584  0.1955E+01  0.7770E+01
    -12.473  0.1772E+01  0.7972E+01
    -12.361  0.2309E+01  0.8191E+01
    -12.249  0.8913E+01  0.8614E+01
    -12.137  0.5658E+01  0.9456E+01
    -12.026  0.6265E+01  0.1011E+02
    -11.914  0.6764E+01  0.1085E+02
    -11.802  0.4925E+01  0.1153E+02
    -11.691  0.4254E+01  0.1200E+02
    -11.579  0.4471E+01  0.1249E+02
    -11.467  0.4692E+01  0.1300E+02
    -11.356  0.4905E+01  0.1354E+02
    -11.244  0.5094E+01  0.1410E+02
    -11.132  0.5179E+01  0.1467E+02
    -11.020  0.5290E+01  0.1526E+02
    -10.909  0.5560E+01  0.1586E+02
    -10.797  0.6035E+01  0.1652E+02
    -10.685  0.5831E+01  0.1718E+02
    -10.574  0.5734E+01  0.1783E+02
    -10.462  0.5892E+01  0.1847E+02
    -10.350  0.6078E+01  0.1914E+02
    -10.238  0.5866E+01  0.1981E+02
    -10.127  0.5870E+01  0.2046E+02
    -10.015  0.5844E+01  0.2112E+02
     -9.903  0.4945E+01  0.2173E+02
     -9.792  0.3814E+01  0.2221E+02
     -9.680  0.3731E+01  0.2262E+02
     -9.568  0.4461E+01  0.2308E+02
     -9.456  0.4853E+01  0.2360E+02
     -9.345  0.6160E+01  0.2423E+02
     -9.233  0.7525E+01  0.2498E+02
     -9.121  0.9711E+01  0.2594E+02
     -9.010  0.9024E+01  0.2706E+02
     -8.898  0.6618E+01  0.2793E+02
     -8.786  0.4996E+01  0.2857E+02
     -8.674  0.4422E+01  0.2909E+02
     -8.563  0.7948E+01  0.2965E+02
     -8.451  0.4248E+01  0.3022E+02
     -8.339  0.4280E+01  0.3069E+02
     -8.228  0.1941E+01  0.3105E+02
     -8.116  0.1718E+01  0.3125E+02
     -8.004  0.1496E+01  0.3143E+02
     -7.893  0.1273E+01  0.3159E+02
     -7.781  0.1544E+01  0.3174E+02
     -7.669  0.2043E+01  0.3194E+02
     -7.557  0.2555E+01  0.3220E+02
     -7.446  0.3820E+01  0.3252E+02
     -7.334  0.9761E+01  0.3323E+02
     -7.222  0.6248E+01  0.3418E+02
     -7.111  0.5205E+01  0.3477E+02
     -6.999  0.5749E+01  0.3537E+02
     -6.887  0.7038E+01  0.3609E+02
     -6.775  0.8326E+01  0.3695E+02
     -6.664  0.9594E+01  0.3795E+02
     -6.552  0.7738E+01  0.3888E+02
     -6.440  0.5692E+01  0.3967E+02
     -6.329  0.5558E+01  0.4029E+02
     -6.217  0.5483E+01  0.4091E+02
     -6.105  0.5389E+01  0.4152E+02
     -5.993  0.5197E+01  0.4211E+02
     -5.882  0.5022E+01  0.4268E+02
     -5.770  0.4902E+01  0.4324E+02
     -5.658  0.4783E+01  0.4378E+02
     -5.547  0.4665E+01  0.4430E+02
     -5.435  0.4546E+01  0.4482E+02
     -5.323  0.4426E+01  0.4532E+02
     -5.211  0.4305E+01  0.4581E+02
     -5.100  0.4685E+01  0.4630E+02
     -4.988  0.5350E+01  0.4686E+02
     -4.876  0.5984E+01  0.4749E+02
     -4.765  0.6618E+01  0.4820E+02
     -4.653  0.7252E+01  0.4897E+02
     -4.541  0.7887E+01  0.4982E+02
     -4.430  0.8521E+01  0.5074E+02
     -4.318  0.7528E+01  0.5170E+02
     -4.206  0.5538E+01  0.5242E+02
     -4.094  0.5772E+01  0.5299E+02
     -3.983  0.7005E+01  0.5371E+02
     -3.871  0.5374E+01  0.5440E+02
     -3.759  0.3742E+01  0.5491E+02
     -3.648  0.2110E+01  0.5524E+02
     -3.536  0.1095E+01  0.5540E+02
     -3.424  0.2667E+01  0.5559E+02
     -3.312  0.4961E+01  0.5601E+02
     -3.201  0.7276E+01  0.5668E+02
     -3.089  0.1040E+02  0.5769E+02
     -2.977  0.1329E+02  0.5902E+02
     -2.866  0.1271E+02  0.6050E+02
     -2.754  0.8282E+01  0.6172E+02
     -2.642  0.4963E+01  0.6238E+02
     -2.530  0.5794E+01  0.6297E+02
     -2.419  0.6885E+01  0.6368E+02
     -2.307  0.9173E+01  0.6453E+02
     -2.195  0.1594E+02  0.6593E+02
     -2.084  0.1218E+02  0.6818E+02
     -1.972  0.7632E+01  0.6964E+02
     -1.860  0.7324E+01  0.7047E+02
     -1.749  0.7082E+01  0.7127E+02
     -1.637  0.7382E+01  0.7207E+02
     -1.525  0.9183E+01  0.7297E+02
     -1.413  0.1600E+02  0.7431E+02
     -1.302  0.1221E+02  0.7588E+02
     -1.190  0.8482E+01  0.7702E+02
     -1.078  0.2499E+02  0.7839E+02
     -0.967  0.1896E+02  0.8128E+02
     -0.855  0.1894E+02  0.8362E+02
     -0.743  0.1451E+02  0.8541E+02
     -0.631  0.1430E+02  0.8702E+02
     -0.520  0.1295E+02  0.8854E+02
     -0.408  0.9189E+01  0.8969E+02
     -0.296  0.8035E+01  0.9066E+02
     -0.185  0.7564E+01  0.9150E+02
     -0.073  0.8663E+01  0.9241E+02
      0.039  0.9166E+01  0.9340E+02
      0.151  0.1066E+02  0.9449E+02
      0.262  0.1324E+02  0.9578E+02
      0.374  0.1604E+02  0.9745E+02
      0.486  0.1286E+02  0.9901E+02
      0.597  0.1185E+02  0.1003E+03
      0.709  0.1051E+02  0.1016E+03
      0.821  0.9425E+01  0.1027E+03
      0.933  0.9017E+01  0.1037E+03
      1.044  0.8760E+01  0.1047E+03
      1.156  0.8554E+01  0.1057E+03
      1.268  0.8512E+01  0.1066E+03
      1.379  0.1040E+02  0.1077E+03
      1.491  0.9938E+01  0.1089E+03
      1.603  0.1047E+02  0.1100E+03
      1.714  0.1026E+02  0.1112E+03
      1.826  0.9901E+01  0.1123E+03
      1.938  0.9025E+01  0.1134E+03
      2.050  0.9916E+01  0.1144E+03
      2.161  0.9908E+01  0.1155E+03
      2.273  0.8252E+01  0.1166E+03
      2.385  0.6695E+01  0.1174E+03
      2.496  0.5959E+01  0.1181E+03
      2.608  0.4872E+01  0.1187E+03
      2.720  0.3933E+01  0.1192E+03
      2.832  0.3347E+01  0.1196E+03
      2.943  0.4399E+01  0.1200E+03
      3.055  0.5129E+01  0.1205E+03
      3.167  0.8469E+01  0.1212E+03
      3.278  0.7663E+01  0.1221E+03
      3.390  0.6409E+01  0.1229E+03
      3.502  0.6115E+01  0.1236E+03
      3.614  0.6497E+01  0.1243E+03
      3.725  0.5729E+01  0.1250E+03
      3.837  0.4345E+01  0.1256E+03
      3.949  0.3526E+01  0.1260E+03
      4.060  0.3024E+01  0.1264E+03
      4.172  0.2551E+01  0.1267E+03
      4.284  0.2149E+01  0.1269E+03
      4.396  0.1840E+01  0.1272E+03
      4.507  0.1579E+01  0.1273E+03
      4.619  0.1406E+01  0.1275E+03
      4.731  0.1209E+01  0.1277E+03
      4.842  0.9605E+00  0.1278E+03
      4.954  0.7203E+00  0.1279E+03
      5.066  0.4875E+00  0.1279E+03
      5.177  0.2616E+00  0.1280E+03
      5.289  0.4256E-01  0.1280E+03
      5.401  0.6357E-01  0.1280E+03
      5.513  0.1983E+00  0.1280E+03
      5.624  0.3410E+00  0.1280E+03
      5.736  0.4917E+00  0.1281E+03
      5.848  0.6525E+00  0.1282E+03
      5.959  0.8250E+00  0.1282E+03
      6.071  0.1009E+01  0.1283E+03
      6.183  0.1209E+01  0.1285E+03
      6.295  0.1433E+01  0.1286E+03
      6.406  0.2090E+01  0.1288E+03
      6.518  0.2588E+01  0.1291E+03
      6.630  0.3125E+01  0.1294E+03
      6.741  0.3534E+01  0.1298E+03
      6.853  0.5196E+01  0.1302E+03
      6.965  0.1248E+02  0.1311E+03
      7.077  0.1068E+02  0.1326E+03
      7.188  0.9127E+01  0.1337E+03
      7.300  0.6799E+01  0.1346E+03
      7.412  0.5642E+01  0.1353E+03
      7.523  0.4871E+01  0.1359E+03
      7.635  0.4170E+01  0.1364E+03
      7.747  0.3870E+01  0.1368E+03
      7.859  0.3711E+01  0.1373E+03
      7.970  0.3718E+01  0.1377E+03
      8.082  0.3713E+01  0.1381E+03
      8.194  0.4083E+01  0.1385E+03
      8.305  0.4431E+01  0.1390E+03
      8.417  0.4649E+01  0.1395E+03
      8.529  0.4818E+01  0.1400E+03
      8.640  0.4763E+01  0.1406E+03
      8.752  0.4580E+01  0.1411E+03
      8.864  0.4470E+01  0.1416E+03
      8.976  0.4415E+01  0.1421E+03
      9.087  0.4305E+01  0.1426E+03
      9.199  0.4202E+01  0.1431E+03
      9.311  0.4036E+01  0.1435E+03
      9.422  0.3632E+01  0.1439E+03
      9.534  0.3456E+01  0.1443E+03
      9.646  0.3358E+01  0.1447E+03
      9.758  0.3299E+01  0.1451E+03
      9.869  0.3206E+01  0.1455E+03
      9.981  0.3128E+01  0.1458E+03
     10.093  0.3074E+01  0.1462E+03
     10.204  0.3040E+01  0.1465E+03
     10.316  0.2970E+01  0.1468E+03
     10.428  0.2899E+01  0.1472E+03
     10.540  0.3008E+01  0.1475E+03
     10.651  0.3172E+01  0.1478E+03
     10.763  0.3202E+01  0.1482E+03
     10.875  0.3911E+01  0.1486E+03
     10.986  0.4248E+01  0.1490E+03
     11.098  0.4404E+01  0.1495E+03
     11.210  0.4375E+01  0.1500E+03
     11.322  0.4241E+01  0.1505E+03
     11.433  0.4048E+01  0.1510E+03
     11.545  0.3944E+01  0.1514E+03
     11.657  0.3959E+01  0.1519E+03
     11.768  0.7272E+01  0.1524E+03
     11.880  0.4259E+01  0.1531E+03
     11.992  0.2706E+01  0.1534E+03
     12.103  0.2313E+01  0.1537E+03
     12.215  0.2112E+01  0.1540E+03
     12.327  0.2096E+01  0.1542E+03
     12.439  0.2582E+01  0.1544E+03
     12.550  0.4829E+01  0.1549E+03
     12.662  0.5411E+01  0.1555E+03
     12.774  0.6847E+01  0.1561E+03
     12.885  0.9385E+01  0.1570E+03
     12.997  0.1057E+02  0.1582E+03
     13.109  0.1222E+02  0.1594E+03
     13.221  0.1417E+02  0.1609E+03
     13.332  0.1307E+02  0.1624E+03
     13.444  0.1228E+02  0.1638E+03
     13.556  0.1161E+02  0.1651E+03
     13.667  0.1201E+02  0.1665E+03
     13.779  0.5559E+01  0.1675E+03
     13.891  0.1110E+01  0.1678E+03
     14.003  0.4534E+00  0.1679E+03
     14.114  0.3103E+00  0.1679E+03
     14.226  0.2050E+00  0.1679E+03
     14.338  0.1375E+00  0.1680E+03
     14.449  0.1003E+00  0.1680E+03
     14.561  0.7009E-01  0.1680E+03
     14.673  0.4528E-01  0.1680E+03
     14.785  0.2587E-01  0.1680E+03
     14.896  0.1186E-01  0.1680E+03
     15.008  0.3244E-02  0.1680E+03
     15.120  0.2509E-04  0.1680E+03
     15.231  0.0000E+00  0.1680E+03
     15.343  0.0000E+00  0.1680E+03
     15.455  0.0000E+00  0.1680E+03
     15.566  0.0000E+00  0.1680E+03
     15.678  0.0000E+00  0.1680E+03
     15.790  0.0000E+00  0.1680E+03
     15.902  0.0000E+00  0.1680E+03
     16.013  0.0000E+00  0.1680E+03
     16.125  0.0000E+00  0.1680E+03
     16.237  0.0000E+00  0.1680E+03
     16.348  0.0000E+00  0.1680E+03
     16.460  0.0000E+00  0.1680E+03
     16.572  0.0000E+00  0.1680E+03
     16.684  0.0000E+00  0.1680E+03
     16.795  0.0000E+00  0.1680E+03
     16.907  0.0000E+00  0.1680E+03
     17.019  0.0000E+00  0.1680E+03
     17.130  0.0000E+00  0.1680E+03
