       N       E                     dE             d eps       ncg     rms          rms(c)
DAV:   1     0.468552413492E+03    0.46855E+03   -0.77762E+04 27384   0.171E+03
DAV:   2    -0.215163470965E+03   -0.68372E+03   -0.65256E+03 34464   0.307E+02
DAV:   3    -0.250402527124E+03   -0.35239E+02   -0.34377E+02 33336   0.626E+01
DAV:   4    -0.250991467094E+03   -0.58894E+00   -0.58593E+00 32832   0.844E+00
DAV:   5    -0.251005308628E+03   -0.13842E-01   -0.13817E-01 33972   0.110E+00    0.218E+01
DAV:   6    -0.241178101133E+03    0.98272E+01   -0.70403E+00 31140   0.905E+00    0.116E+01
DAV:   7    -0.237840249866E+03    0.33379E+01   -0.75709E+00 29712   0.960E+00    0.143E+00
DAV:   8    -0.237856693867E+03   -0.16444E-01   -0.32134E-01 33972   0.199E+00    0.914E-01
DAV:   9    -0.237855050335E+03    0.16435E-02   -0.43528E-02 33864   0.796E-01    0.326E-01
DAV:  10    -0.237856519401E+03   -0.14691E-02   -0.12592E-02 32988   0.324E-01    0.191E-01
DAV:  11    -0.237856192905E+03    0.32650E-03   -0.54999E-03 34284   0.170E-01    0.953E-02
DAV:  12    -0.237856216973E+03   -0.24068E-04   -0.12777E-03 35160   0.784E-02    0.424E-02
DAV:  13    -0.237856230266E+03   -0.13293E-04   -0.16480E-04 33732   0.333E-02    0.243E-02
DAV:  14    -0.237856227993E+03    0.22729E-05   -0.82400E-05 35004   0.207E-02    0.207E-02
DAV:  15    -0.237856240684E+03   -0.12691E-04   -0.72645E-05 35100   0.165E-02    0.111E-02
DAV:  16    -0.237856228684E+03    0.12000E-04   -0.32631E-05 24816   0.966E-03    0.876E-03
DAV:  17    -0.237856237147E+03   -0.84632E-05   -0.13181E-05 21156   0.623E-03    0.384E-03
DAV:  18    -0.237856234455E+03    0.26926E-05   -0.14009E-06 19368   0.250E-03    0.601E-04
DAV:  19    -0.237856234678E+03   -0.22306E-06   -0.95795E-08 19332   0.105E-03
   1 F= -.24196273E+03 E0= -.24196273E+03  d E =0.000000E+00
