 vasp.5.3.5 31Mar14 (build Nov 02 2014 15:17:37) complex                        
  
 executed on        ion-Intel-MKL date 2017.02.16  11:18:57
 running on    2 total cores
 distrk:  each k-point on    2 cores,    1 groups
 distr:  one band on NCORES_PER_BAND=   1 cores,    2 groups


--------------------------------------------------------------------------------------------------------


 INCAR:
 POTCAR:   PAW_PBE C 08Apr2002                    
 POTCAR:   PAW_PBE C 08Apr2002                    
   VRHFIN =C: s2p2                                                              
   LEXCH  = PE                                                                  
   EATOM  =   147.1560 eV,   10.8157 Ry                                         
                                                                                
   TITEL  = PAW_PBE C 08Apr2002                                                 
   LULTRA =        F    use ultrasoft PP ?                                      
   IUNSCR =        0    unscreen: 0-lin 1-nonlin 2-no                           
   RPACOR =     .000    partial core radius                                     
   POMASS =   12.011; ZVAL   =    4.000    mass and valenz                      
   RCORE  =    1.500    outmost cutoff radius                                   
   RWIGS  =    1.630; RWIGS  =     .863    wigner-seitz radius (au A)           
   ENMAX  =  400.000; ENMIN  =  300.000 eV                                      
   ICORE  =        2    local potential                                         
   LCOR   =        T    correct aug charges                                     
   LPAW   =        T    paw PP                                                  
   EAUG   =  644.873                                                            
   DEXC   =     .000                                                            
   RMAX   =    2.266    core radius for proj-oper                               
   RAUG   =    1.300    factor for augmentation sphere                          
   RDEP   =    1.501    radius for radial grids                                 
   RDEPT  =    1.300    core radius for aug-charge                              
   QCUT   =   -5.516; QGAM   =   11.032    optimization parameters              
                                                                                
   Description                                                                  
     l     E      TYP  RCUT    TYP  RCUT                                        
     0   .000     23  1.200                                                     
     0   .000     23  1.200                                                     
     1   .000     23  1.500                                                     
     1  2.500     23  1.500                                                     
     2   .000      7  1.500                                                     
  local pseudopotential read in
  atomic valenz-charges read in
  non local Contribution for L=           0  read in
    real space projection operators read in
  non local Contribution for L=           0  read in
    real space projection operators read in
  non local Contribution for L=           1  read in
    real space projection operators read in
  non local Contribution for L=           1  read in
    real space projection operators read in
    PAW grid and wavefunctions read in
 
   number of l-projection  operators is LMAX  =           4
   number of lm-projection operators is LMMAX =           8
 
 PAW_PBE C 08Apr2002                    :
 energy of atom  1       EATOM= -147.1560
 kinetic energy error for atom=    0.0016 (will be added to EATOM!!)
 
 
 POSCAR: C                                       
  positions in direct lattice
  No initial velocities read in
 exchange correlation table for  LEXCH =        8
   RHO(1)=    0.500       N(1)  =     2000
   RHO(2)=  100.500       N(2)  =     4000
 


--------------------------------------------------------------------------------------------------------


 ion  position               nearest neighbor table
   1  0.002  0.000  0.000-   9 1.63  11 1.63  13 1.63  10 1.64
   2  0.500  0.000  0.000-  10 1.63  12 1.63   9 1.63  14 1.63
   3  0.000  0.500  0.000-  11 1.63   9 1.63  12 1.63  15 1.63
   4  0.500  0.500  0.000-  12 1.63  10 1.63  11 1.63  16 1.63
   5  0.000  0.000  0.500-  13 1.63  15 1.63  14 1.63   9 1.63
   6  0.500  0.000  0.500-  14 1.63  16 1.63  13 1.63  10 1.63
   7  0.000  0.500  0.500-  15 1.63  13 1.63  16 1.63  11 1.63
   8  0.500  0.500  0.500-  16 1.63  14 1.63  15 1.63  12 1.63
   9  0.125  0.125  0.125-   1 1.63   3 1.63   2 1.63   5 1.63
  10  0.625  0.125  0.125-   2 1.63   4 1.63   6 1.63   1 1.64
  11  0.125  0.625  0.125-   3 1.63   4 1.63   7 1.63   1 1.63
  12  0.625  0.625  0.125-   4 1.63   2 1.63   3 1.63   8 1.63
  13  0.125  0.125  0.625-   5 1.63   7 1.63   6 1.63   1 1.63
  14  0.625  0.125  0.625-   6 1.63   8 1.63   5 1.63   2 1.63
  15  0.125  0.625  0.625-   7 1.63   5 1.63   8 1.63   3 1.63
  16  0.625  0.625  0.625-   8 1.63   6 1.63   7 1.63   4 1.63
 
  LATTYP: Found a face centered cubic cell.
 ALAT       =     7.5451349082
  
  Lattice vectors:
  
 A1 = (   5.3352160588,   0.0000000000,   0.0000000000)
 A2 = (   2.6676080293,   4.6204326416,   0.0000000000)
 A3 = (   2.6676080293,   1.5401442138,   4.3561856703)


Analysis of symmetry for initial positions (statically):
=====================================================================
 Subroutine PRICEL returns:
 Original cell was already a primitive cell.
 

 Routine SETGRP: Setting up the symmetry group for a 
 face centered cubic supercell.


 Subroutine GETGRP returns: Found  2 space group operations
 (whereof  2 operations were pure point group operations)
 out of a pool of 48 trial point group operations.


The static configuration has the point symmetry C_1h.


Analysis of symmetry for dynamics (positions and initial velocities):
=====================================================================
 Subroutine PRICEL returns:
 Original cell was already a primitive cell.
 

 Routine SETGRP: Setting up the symmetry group for a 
 face centered cubic supercell.


 Subroutine GETGRP returns: Found  2 space group operations
 (whereof  2 operations were pure point group operations)
 out of a pool of 48 trial point group operations.


The dynamic configuration has the point symmetry C_1h.
 
 
 KPOINTS: B4C B11C-CBC                            

Automatic generation of k-mesh.
Space group operators:
 irot       det(A)        alpha          n_x          n_y          n_z        tau_x        tau_y        tau_z
    1     1.000000     0.000000     1.000000     0.000000     0.000000     0.000000     0.000000     0.000000
    2    -1.000000   180.000000     0.000000    -0.577350     0.816497     0.000000     0.000000     0.000000
 
 Subroutine IBZKPT returns following result:
 ===========================================
 
 Found    544 irreducible k-points:
 
 Following reciprocal coordinates:
            Coordinates               Weight
  0.000000  0.000000  0.000000      1.000000
  0.083333 -0.000000  0.000000      2.000000
  0.166667  0.000000  0.000000      2.000000
  0.250000 -0.000000  0.000000      2.000000
  0.333333  0.000000  0.000000      2.000000
  0.416667 -0.000000  0.000000      2.000000
  0.500000 -0.000000  0.000000      1.000000
  0.000000  0.083333  0.000000      2.000000
  0.083333  0.083333  0.000000      2.000000
  0.166667  0.083333  0.000000      2.000000
  0.250000  0.083333  0.000000      2.000000
  0.333333  0.083333  0.000000      2.000000
  0.416667  0.083333  0.000000      2.000000
  0.500000  0.083333  0.000000      2.000000
 -0.416667  0.083333  0.000000      2.000000
 -0.333333  0.083333 -0.000000      2.000000
 -0.250000  0.083333 -0.000000      2.000000
 -0.166667  0.083333 -0.000000      2.000000
 -0.083333  0.083333 -0.000000      2.000000
  0.000000  0.166667  0.000000      2.000000
  0.083333  0.166667  0.000000      2.000000
  0.166667  0.166667  0.000000      2.000000
  0.250000  0.166667  0.000000      2.000000
  0.333333  0.166667  0.000000      2.000000
  0.416667  0.166667  0.000000      2.000000
  0.500000  0.166667  0.000000      2.000000
 -0.416667  0.166667 -0.000000      2.000000
 -0.333333  0.166667 -0.000000      2.000000
 -0.250000  0.166667 -0.000000      2.000000
 -0.166667  0.166667 -0.000000      2.000000
 -0.083333  0.166667  0.000000      2.000000
  0.000000  0.250000  0.000000      4.000000
  0.083333  0.250000  0.000000      4.000000
  0.166667  0.250000  0.000000      4.000000
  0.250000  0.250000  0.000000      4.000000
  0.333333  0.250000  0.000000      4.000000
  0.416667  0.250000  0.000000      4.000000
  0.500000  0.250000  0.000000      4.000000
 -0.416667  0.250000 -0.000000      4.000000
 -0.333333  0.250000 -0.000000      4.000000
 -0.250000  0.250000 -0.000000      4.000000
 -0.166667  0.250000 -0.000000      4.000000
 -0.083333  0.250000  0.000000      4.000000
  0.000000  0.333333  0.000000      2.000000
  0.083333  0.333333  0.000000      2.000000
  0.166667  0.333333  0.000000      2.000000
  0.250000  0.333333  0.000000      2.000000
  0.333333  0.333333  0.000000      2.000000
  0.416667  0.333333  0.000000      2.000000
  0.500000  0.333333  0.000000      2.000000
 -0.416667  0.333333 -0.000000      2.000000
 -0.333333  0.333333 -0.000000      2.000000
 -0.250000  0.333333 -0.000000      2.000000
 -0.166667  0.333333 -0.000000      2.000000
 -0.083333  0.333333  0.000000      2.000000
  0.000000  0.416667  0.000000      2.000000
  0.083333  0.416667  0.000000      2.000000
  0.166667  0.416667  0.000000      2.000000
  0.250000  0.416667  0.000000      2.000000
  0.333333  0.416667  0.000000      2.000000
  0.416667  0.416667  0.000000      2.000000
  0.500000  0.416667  0.000000      2.000000
 -0.416667  0.416667 -0.000000      2.000000
 -0.333333  0.416667 -0.000000      2.000000
 -0.250000  0.416667  0.000000      2.000000
 -0.166667  0.416667  0.000000      2.000000
 -0.083333  0.416667  0.000000      2.000000
  0.000000  0.500000  0.000000      2.000000
  0.083333  0.500000  0.000000      4.000000
  0.166667  0.500000  0.000000      4.000000
  0.250000  0.500000  0.000000      4.000000
  0.333333  0.500000  0.000000      4.000000
  0.416667  0.500000  0.000000      4.000000
  0.500000  0.500000  0.000000      2.000000
  0.000000  0.000000  0.125000      2.000000
  0.083333 -0.000000  0.125000      2.000000
  0.166667  0.000000  0.125000      2.000000
  0.250000 -0.000000  0.125000      2.000000
  0.333333  0.000000  0.125000      2.000000
  0.416667 -0.000000  0.125000      2.000000
  0.500000 -0.000000  0.125000      2.000000
 -0.416667  0.000000  0.125000      2.000000
 -0.333333 -0.000000  0.125000      2.000000
 -0.250000  0.000000  0.125000      2.000000
 -0.166667 -0.000000  0.125000      2.000000
 -0.083333  0.000000  0.125000      2.000000
  0.000000  0.083333  0.125000      2.000000
  0.083333  0.083333  0.125000      2.000000
  0.166667  0.083333  0.125000      2.000000
  0.250000  0.083333  0.125000      2.000000
  0.333333  0.083333  0.125000      2.000000
  0.416667  0.083333  0.125000      2.000000
  0.500000  0.083333  0.125000      2.000000
 -0.416667  0.083333  0.125000      2.000000
 -0.333333  0.083333  0.125000      2.000000
 -0.250000  0.083333  0.125000      2.000000
 -0.166667  0.083333  0.125000      2.000000
 -0.083333  0.083333  0.125000      2.000000
  0.000000  0.166667  0.125000      2.000000
  0.083333  0.166667  0.125000      2.000000
  0.166667  0.166667  0.125000      2.000000
  0.250000  0.166667  0.125000      2.000000
  0.333333  0.166667  0.125000      2.000000
  0.416667  0.166667  0.125000      2.000000
  0.500000  0.166667  0.125000      2.000000
 -0.416667  0.166667  0.125000      2.000000
 -0.333333  0.166667  0.125000      2.000000
 -0.250000  0.166667  0.125000      2.000000
 -0.166667  0.166667  0.125000      2.000000
 -0.083333  0.166667  0.125000      2.000000
  0.000000  0.250000  0.125000      2.000000
  0.083333  0.250000  0.125000      2.000000
  0.166667  0.250000  0.125000      2.000000
  0.250000  0.250000  0.125000      2.000000
  0.333333  0.250000  0.125000      2.000000
  0.416667  0.250000  0.125000      2.000000
  0.500000  0.250000  0.125000      2.000000
 -0.416667  0.250000  0.125000      2.000000
 -0.333333  0.250000  0.125000      2.000000
 -0.250000  0.250000  0.125000      2.000000
 -0.166667  0.250000  0.125000      2.000000
 -0.083333  0.250000  0.125000      2.000000
  0.000000  0.333333  0.125000      2.000000
  0.083333  0.333333  0.125000      2.000000
  0.166667  0.333333  0.125000      2.000000
  0.250000  0.333333  0.125000      2.000000
  0.333333  0.333333  0.125000      2.000000
  0.416667  0.333333  0.125000      2.000000
  0.500000  0.333333  0.125000      2.000000
 -0.416667  0.333333  0.125000      2.000000
 -0.333333  0.333333  0.125000      2.000000
 -0.250000  0.333333  0.125000      2.000000
 -0.166667  0.333333  0.125000      2.000000
 -0.083333  0.333333  0.125000      2.000000
  0.000000  0.416667  0.125000      2.000000
  0.083333  0.416667  0.125000      2.000000
  0.166667  0.416667  0.125000      2.000000
  0.250000  0.416667  0.125000      2.000000
  0.333333  0.416667  0.125000      2.000000
  0.416667  0.416667  0.125000      2.000000
  0.500000  0.416667  0.125000      2.000000
 -0.416667  0.416667  0.125000      2.000000
 -0.333333  0.416667  0.125000      2.000000
 -0.250000  0.416667  0.125000      2.000000
 -0.166667  0.416667  0.125000      2.000000
 -0.083333  0.416667  0.125000      2.000000
  0.000000  0.500000  0.125000      2.000000
  0.083333  0.500000  0.125000      2.000000
  0.166667  0.500000  0.125000      2.000000
  0.250000  0.500000  0.125000      2.000000
  0.333333  0.500000  0.125000      2.000000
  0.416667  0.500000  0.125000      2.000000
  0.500000  0.500000  0.125000      2.000000
 -0.416667  0.500000  0.125000      2.000000
 -0.333333  0.500000  0.125000      2.000000
 -0.250000  0.500000  0.125000      2.000000
 -0.166667  0.500000  0.125000      2.000000
 -0.083333  0.500000  0.125000      2.000000
  0.000000 -0.416667  0.125000      2.000000
  0.083333 -0.416667  0.125000      2.000000
  0.166667 -0.416667  0.125000      2.000000
  0.250000 -0.416667  0.125000      2.000000
  0.333333 -0.416667  0.125000      2.000000
  0.416667 -0.416667  0.125000      2.000000
  0.500000 -0.416667  0.125000      2.000000
 -0.416667 -0.416667  0.125000      2.000000
 -0.333333 -0.416667  0.125000      2.000000
 -0.250000 -0.416667  0.125000      2.000000
 -0.166667 -0.416667  0.125000      2.000000
 -0.083333 -0.416667  0.125000      2.000000
  0.000000 -0.333333  0.125000      2.000000
  0.083333 -0.333333  0.125000      2.000000
  0.166667 -0.333333  0.125000      2.000000
  0.250000 -0.333333  0.125000      2.000000
  0.333333 -0.333333  0.125000      2.000000
  0.416667 -0.333333  0.125000      2.000000
  0.500000 -0.333333  0.125000      2.000000
 -0.416667 -0.333333  0.125000      2.000000
 -0.333333 -0.333333  0.125000      2.000000
 -0.250000 -0.333333  0.125000      2.000000
 -0.166667 -0.333333  0.125000      2.000000
 -0.083333 -0.333333  0.125000      2.000000
  0.000000 -0.250000  0.125000      2.000000
  0.083333 -0.250000  0.125000      2.000000
  0.166667 -0.250000  0.125000      2.000000
  0.250000 -0.250000  0.125000      2.000000
  0.333333 -0.250000  0.125000      2.000000
  0.416667 -0.250000  0.125000      2.000000
  0.500000 -0.250000  0.125000      2.000000
 -0.416667 -0.250000  0.125000      2.000000
 -0.333333 -0.250000  0.125000      2.000000
 -0.250000 -0.250000  0.125000      2.000000
 -0.166667 -0.250000  0.125000      2.000000
 -0.083333 -0.250000  0.125000      2.000000
  0.000000 -0.166667  0.125000      2.000000
  0.083333 -0.166667  0.125000      2.000000
  0.166667 -0.166667  0.125000      2.000000
  0.250000 -0.166667  0.125000      2.000000
  0.333333 -0.166667  0.125000      2.000000
  0.416667 -0.166667  0.125000      2.000000
  0.500000 -0.166667  0.125000      2.000000
 -0.416667 -0.166667  0.125000      2.000000
 -0.333333 -0.166667  0.125000      2.000000
 -0.250000 -0.166667  0.125000      2.000000
 -0.166667 -0.166667  0.125000      2.000000
 -0.083333 -0.166667  0.125000      2.000000
  0.000000 -0.083333  0.125000      2.000000
  0.083333 -0.083333  0.125000      2.000000
  0.166667 -0.083333  0.125000      2.000000
  0.250000 -0.083333  0.125000      2.000000
  0.333333 -0.083333  0.125000      2.000000
  0.416667 -0.083333  0.125000      2.000000
  0.500000 -0.083333  0.125000      2.000000
 -0.416667 -0.083333  0.125000      2.000000
 -0.333333 -0.083333  0.125000      2.000000
 -0.250000 -0.083333  0.125000      2.000000
 -0.166667 -0.083333  0.125000      2.000000
 -0.083333 -0.083333  0.125000      2.000000
  0.000000  0.083333  0.250000      2.000000
  0.083333  0.083333  0.250000      2.000000
  0.166667  0.083333  0.250000      2.000000
  0.250000  0.083333  0.250000      2.000000
  0.333333  0.083333  0.250000      2.000000
  0.416667  0.083333  0.250000      2.000000
  0.500000  0.083333  0.250000      2.000000
 -0.416667  0.083333  0.250000      2.000000
 -0.333333  0.083333  0.250000      2.000000
 -0.250000  0.083333  0.250000      2.000000
 -0.166667  0.083333  0.250000      2.000000
 -0.083333  0.083333  0.250000      2.000000
  0.000000  0.166667  0.250000      2.000000
  0.083333  0.166667  0.250000      2.000000
  0.166667  0.166667  0.250000      2.000000
  0.250000  0.166667  0.250000      2.000000
  0.333333  0.166667  0.250000      2.000000
  0.416667  0.166667  0.250000      2.000000
  0.500000  0.166667  0.250000      2.000000
 -0.416667  0.166667  0.250000      2.000000
 -0.333333  0.166667  0.250000      2.000000
 -0.250000  0.166667  0.250000      2.000000
 -0.166667  0.166667  0.250000      2.000000
 -0.083333  0.166667  0.250000      2.000000
  0.000000  0.250000  0.250000      2.000000
  0.083333  0.250000  0.250000      2.000000
  0.166667  0.250000  0.250000      2.000000
  0.250000  0.250000  0.250000      2.000000
  0.333333  0.250000  0.250000      2.000000
  0.416667  0.250000  0.250000      2.000000
  0.500000  0.250000  0.250000      2.000000
 -0.416667  0.250000  0.250000      2.000000
 -0.333333  0.250000  0.250000      2.000000
 -0.250000  0.250000  0.250000      2.000000
 -0.166667  0.250000  0.250000      2.000000
 -0.083333  0.250000  0.250000      2.000000
  0.000000  0.333333  0.250000      2.000000
  0.083333  0.333333  0.250000      2.000000
  0.166667  0.333333  0.250000      2.000000
  0.250000  0.333333  0.250000      2.000000
  0.333333  0.333333  0.250000      2.000000
  0.416667  0.333333  0.250000      2.000000
  0.500000  0.333333  0.250000      2.000000
 -0.416667  0.333333  0.250000      2.000000
 -0.333333  0.333333  0.250000      2.000000
 -0.250000  0.333333  0.250000      2.000000
 -0.166667  0.333333  0.250000      2.000000
 -0.083333  0.333333  0.250000      2.000000
  0.000000  0.416667  0.250000      2.000000
  0.083333  0.416667  0.250000      2.000000
  0.166667  0.416667  0.250000      2.000000
  0.250000  0.416667  0.250000      2.000000
  0.333333  0.416667  0.250000      2.000000
  0.416667  0.416667  0.250000      2.000000
  0.500000  0.416667  0.250000      2.000000
 -0.416667  0.416667  0.250000      2.000000
 -0.333333  0.416667  0.250000      2.000000
 -0.250000  0.416667  0.250000      2.000000
 -0.166667  0.416667  0.250000      2.000000
 -0.083333  0.416667  0.250000      2.000000
  0.000000  0.500000  0.250000      4.000000
  0.083333  0.500000  0.250000      4.000000
  0.166667  0.500000  0.250000      4.000000
  0.250000  0.500000  0.250000      4.000000
  0.333333  0.500000  0.250000      4.000000
  0.416667  0.500000  0.250000      4.000000
  0.500000  0.500000  0.250000      4.000000
 -0.416667  0.500000  0.250000      4.000000
 -0.333333  0.500000  0.250000      4.000000
 -0.250000  0.500000  0.250000      4.000000
 -0.166667  0.500000  0.250000      4.000000
 -0.083333  0.500000  0.250000      4.000000
  0.000000 -0.416667  0.250000      2.000000
  0.083333 -0.416667  0.250000      2.000000
  0.166667 -0.416667  0.250000      2.000000
  0.250000 -0.416667  0.250000      2.000000
  0.333333 -0.416667  0.250000      2.000000
  0.416667 -0.416667  0.250000      2.000000
  0.500000 -0.416667  0.250000      2.000000
 -0.416667 -0.416667  0.250000      2.000000
 -0.333333 -0.416667  0.250000      2.000000
 -0.250000 -0.416667  0.250000      2.000000
 -0.166667 -0.416667  0.250000      2.000000
 -0.083333 -0.416667  0.250000      2.000000
  0.000000 -0.333333  0.250000      2.000000
  0.083333 -0.333333  0.250000      2.000000
  0.166667 -0.333333  0.250000      2.000000
  0.250000 -0.333333  0.250000      2.000000
  0.333333 -0.333333  0.250000      2.000000
  0.416667 -0.333333  0.250000      2.000000
  0.500000 -0.333333  0.250000      2.000000
 -0.416667 -0.333333  0.250000      2.000000
 -0.333333 -0.333333  0.250000      2.000000
 -0.250000 -0.333333  0.250000      2.000000
 -0.166667 -0.333333  0.250000      2.000000
 -0.083333 -0.333333  0.250000      2.000000
  0.000000 -0.250000  0.250000      2.000000
  0.083333 -0.250000  0.250000      4.000000
  0.166667 -0.250000  0.250000      4.000000
  0.250000 -0.250000  0.250000      4.000000
  0.333333 -0.250000  0.250000      4.000000
  0.416667 -0.250000  0.250000      4.000000
  0.500000 -0.250000  0.250000      2.000000
  0.000000 -0.166667  0.250000      2.000000
  0.083333 -0.166667  0.250000      2.000000
  0.166667 -0.166667  0.250000      2.000000
  0.250000 -0.166667  0.250000      2.000000
  0.333333 -0.166667  0.250000      2.000000
  0.416667 -0.166667  0.250000      2.000000
  0.500000 -0.166667  0.250000      2.000000
 -0.416667 -0.166667  0.250000      2.000000
 -0.333333 -0.166667  0.250000      2.000000
 -0.250000 -0.166667  0.250000      2.000000
 -0.166667 -0.166667  0.250000      2.000000
 -0.083333 -0.166667  0.250000      2.000000
  0.000000 -0.083333  0.250000      2.000000
  0.083333 -0.083333  0.250000      2.000000
  0.166667 -0.083333  0.250000      2.000000
  0.250000 -0.083333  0.250000      2.000000
  0.333333 -0.083333  0.250000      2.000000
  0.416667 -0.083333  0.250000      2.000000
  0.500000 -0.083333  0.250000      2.000000
 -0.416667 -0.083333  0.250000      2.000000
 -0.333333 -0.083333  0.250000      2.000000
 -0.250000 -0.083333  0.250000      2.000000
 -0.166667 -0.083333  0.250000      2.000000
 -0.083333 -0.083333  0.250000      2.000000
  0.000000  0.000000  0.375000      2.000000
  0.083333 -0.000000  0.375000      2.000000
  0.166667  0.000000  0.375000      2.000000
  0.250000 -0.000000  0.375000      2.000000
  0.333333  0.000000  0.375000      2.000000
  0.416667 -0.000000  0.375000      2.000000
  0.500000 -0.000000  0.375000      2.000000
 -0.416667  0.000000  0.375000      2.000000
 -0.333333 -0.000000  0.375000      2.000000
 -0.250000  0.000000  0.375000      2.000000
 -0.166667 -0.000000  0.375000      2.000000
 -0.083333  0.000000  0.375000      2.000000
  0.000000  0.083333  0.375000      2.000000
  0.083333  0.083333  0.375000      2.000000
  0.166667  0.083333  0.375000      2.000000
  0.250000  0.083333  0.375000      2.000000
  0.333333  0.083333  0.375000      2.000000
  0.416667  0.083333  0.375000      2.000000
  0.500000  0.083333  0.375000      2.000000
 -0.416667  0.083333  0.375000      2.000000
 -0.333333  0.083333  0.375000      2.000000
 -0.250000  0.083333  0.375000      2.000000
 -0.166667  0.083333  0.375000      2.000000
 -0.083333  0.083333  0.375000      2.000000
  0.000000  0.166667  0.375000      2.000000
  0.083333  0.166667  0.375000      2.000000
  0.166667  0.166667  0.375000      2.000000
  0.250000  0.166667  0.375000      2.000000
  0.333333  0.166667  0.375000      2.000000
  0.416667  0.166667  0.375000      2.000000
  0.500000  0.166667  0.375000      2.000000
 -0.416667  0.166667  0.375000      2.000000
 -0.333333  0.166667  0.375000      2.000000
 -0.250000  0.166667  0.375000      2.000000
 -0.166667  0.166667  0.375000      2.000000
 -0.083333  0.166667  0.375000      2.000000
  0.000000  0.250000  0.375000      2.000000
  0.083333  0.250000  0.375000      2.000000
  0.166667  0.250000  0.375000      2.000000
  0.250000  0.250000  0.375000      2.000000
  0.333333  0.250000  0.375000      2.000000
  0.416667  0.250000  0.375000      2.000000
  0.500000  0.250000  0.375000      2.000000
 -0.416667  0.250000  0.375000      2.000000
 -0.333333  0.250000  0.375000      2.000000
 -0.250000  0.250000  0.375000      2.000000
 -0.166667  0.250000  0.375000      2.000000
 -0.083333  0.250000  0.375000      2.000000
  0.000000  0.333333  0.375000      2.000000
  0.083333  0.333333  0.375000      2.000000
  0.166667  0.333333  0.375000      2.000000
  0.250000  0.333333  0.375000      2.000000
  0.333333  0.333333  0.375000      2.000000
  0.416667  0.333333  0.375000      2.000000
  0.500000  0.333333  0.375000      2.000000
 -0.416667  0.333333  0.375000      2.000000
 -0.333333  0.333333  0.375000      2.000000
 -0.250000  0.333333  0.375000      2.000000
 -0.166667  0.333333  0.375000      2.000000
 -0.083333  0.333333  0.375000      2.000000
  0.000000  0.416667  0.375000      2.000000
  0.083333  0.416667  0.375000      2.000000
  0.166667  0.416667  0.375000      2.000000
  0.250000  0.416667  0.375000      2.000000
  0.333333  0.416667  0.375000      2.000000
  0.416667  0.416667  0.375000      2.000000
  0.500000  0.416667  0.375000      2.000000
 -0.416667  0.416667  0.375000      2.000000
 -0.333333  0.416667  0.375000      2.000000
 -0.250000  0.416667  0.375000      2.000000
 -0.166667  0.416667  0.375000      2.000000
 -0.083333  0.416667  0.375000      2.000000
  0.000000  0.500000  0.375000      2.000000
  0.083333  0.500000  0.375000      2.000000
  0.166667  0.500000  0.375000      2.000000
  0.250000  0.500000  0.375000      2.000000
  0.333333  0.500000  0.375000      2.000000
  0.416667  0.500000  0.375000      2.000000
  0.500000  0.500000  0.375000      2.000000
 -0.416667  0.500000  0.375000      2.000000
 -0.333333  0.500000  0.375000      2.000000
 -0.250000  0.500000  0.375000      2.000000
 -0.166667  0.500000  0.375000      2.000000
 -0.083333  0.500000  0.375000      2.000000
  0.000000 -0.416667  0.375000      2.000000
  0.083333 -0.416667  0.375000      2.000000
  0.166667 -0.416667  0.375000      2.000000
  0.250000 -0.416667  0.375000      2.000000
  0.333333 -0.416667  0.375000      2.000000
  0.416667 -0.416667  0.375000      2.000000
  0.500000 -0.416667  0.375000      2.000000
 -0.416667 -0.416667  0.375000      2.000000
 -0.333333 -0.416667  0.375000      2.000000
 -0.250000 -0.416667  0.375000      2.000000
 -0.166667 -0.416667  0.375000      2.000000
 -0.083333 -0.416667  0.375000      2.000000
  0.000000 -0.333333  0.375000      2.000000
  0.083333 -0.333333  0.375000      2.000000
  0.166667 -0.333333  0.375000      2.000000
  0.250000 -0.333333  0.375000      2.000000
  0.333333 -0.333333  0.375000      2.000000
  0.416667 -0.333333  0.375000      2.000000
  0.500000 -0.333333  0.375000      2.000000
 -0.416667 -0.333333  0.375000      2.000000
 -0.333333 -0.333333  0.375000      2.000000
 -0.250000 -0.333333  0.375000      2.000000
 -0.166667 -0.333333  0.375000      2.000000
 -0.083333 -0.333333  0.375000      2.000000
  0.000000 -0.250000  0.375000      2.000000
  0.083333 -0.250000  0.375000      2.000000
  0.166667 -0.250000  0.375000      2.000000
  0.250000 -0.250000  0.375000      2.000000
  0.333333 -0.250000  0.375000      2.000000
  0.416667 -0.250000  0.375000      2.000000
  0.500000 -0.250000  0.375000      2.000000
 -0.416667 -0.250000  0.375000      2.000000
 -0.333333 -0.250000  0.375000      2.000000
 -0.250000 -0.250000  0.375000      2.000000
 -0.166667 -0.250000  0.375000      2.000000
 -0.083333 -0.250000  0.375000      2.000000
  0.000000 -0.166667  0.375000      2.000000
  0.083333 -0.166667  0.375000      2.000000
  0.166667 -0.166667  0.375000      2.000000
  0.250000 -0.166667  0.375000      2.000000
  0.333333 -0.166667  0.375000      2.000000
  0.416667 -0.166667  0.375000      2.000000
  0.500000 -0.166667  0.375000      2.000000
 -0.416667 -0.166667  0.375000      2.000000
 -0.333333 -0.166667  0.375000      2.000000
 -0.250000 -0.166667  0.375000      2.000000
 -0.166667 -0.166667  0.375000      2.000000
 -0.083333 -0.166667  0.375000      2.000000
  0.000000 -0.083333  0.375000      2.000000
  0.083333 -0.083333  0.375000      2.000000
  0.166667 -0.083333  0.375000      2.000000
  0.250000 -0.083333  0.375000      2.000000
  0.333333 -0.083333  0.375000      2.000000
  0.416667 -0.083333  0.375000      2.000000
  0.500000 -0.083333  0.375000      2.000000
 -0.416667 -0.083333  0.375000      2.000000
 -0.333333 -0.083333  0.375000      2.000000
 -0.250000 -0.083333  0.375000      2.000000
 -0.166667 -0.083333  0.375000      2.000000
 -0.083333 -0.083333  0.375000      2.000000
  0.000000  0.083333  0.500000      2.000000
  0.083333  0.083333  0.500000      2.000000
  0.166667  0.083333  0.500000      2.000000
  0.250000  0.083333  0.500000      2.000000
  0.333333  0.083333  0.500000      2.000000
  0.416667  0.083333  0.500000      2.000000
  0.500000  0.083333  0.500000      2.000000
 -0.416667  0.083333  0.500000      2.000000
 -0.333333  0.083333  0.500000      2.000000
 -0.250000  0.083333  0.500000      2.000000
 -0.166667  0.083333  0.500000      2.000000
 -0.083333  0.083333  0.500000      2.000000
  0.000000  0.166667  0.500000      2.000000
  0.083333  0.166667  0.500000      2.000000
  0.166667  0.166667  0.500000      2.000000
  0.250000  0.166667  0.500000      2.000000
  0.333333  0.166667  0.500000      2.000000
  0.416667  0.166667  0.500000      2.000000
  0.500000  0.166667  0.500000      2.000000
 -0.416667  0.166667  0.500000      2.000000
 -0.333333  0.166667  0.500000      2.000000
 -0.250000  0.166667  0.500000      2.000000
 -0.166667  0.166667  0.500000      2.000000
 -0.083333  0.166667  0.500000      2.000000
  0.000000  0.333333  0.500000      2.000000
  0.083333  0.333333  0.500000      2.000000
  0.166667  0.333333  0.500000      2.000000
  0.250000  0.333333  0.500000      2.000000
  0.333333  0.333333  0.500000      2.000000
  0.416667  0.333333  0.500000      2.000000
  0.500000  0.333333  0.500000      2.000000
 -0.416667  0.333333  0.500000      2.000000
 -0.333333  0.333333  0.500000      2.000000
 -0.250000  0.333333  0.500000      2.000000
 -0.166667  0.333333  0.500000      2.000000
 -0.083333  0.333333  0.500000      2.000000
  0.000000  0.416667  0.500000      2.000000
  0.083333  0.416667  0.500000      2.000000
  0.166667  0.416667  0.500000      2.000000
  0.250000  0.416667  0.500000      2.000000
  0.333333  0.416667  0.500000      2.000000
  0.416667  0.416667  0.500000      2.000000
  0.500000  0.416667  0.500000      2.000000
 -0.416667  0.416667  0.500000      2.000000
 -0.333333  0.416667  0.500000      2.000000
 -0.250000  0.416667  0.500000      2.000000
 -0.166667  0.416667  0.500000      2.000000
 -0.083333  0.416667  0.500000      2.000000
  0.000000  0.500000  0.500000      1.000000
  0.083333  0.500000  0.500000      2.000000
  0.166667  0.500000  0.500000      2.000000
  0.250000  0.500000  0.500000      2.000000
  0.333333  0.500000  0.500000      2.000000
  0.416667  0.500000  0.500000      2.000000
  0.500000  0.500000  0.500000      1.000000
 
 Following cartesian coordinates:
            Coordinates               Weight
  0.000000  0.000000  0.000000      1.000000
  0.015619 -0.009018 -0.006377      2.000000
  0.031239 -0.018036 -0.012753      2.000000
  0.046858 -0.027054 -0.019130      2.000000
  0.062478 -0.036072 -0.025507      2.000000
  0.078097 -0.045090 -0.031883      2.000000
  0.093717 -0.054107 -0.038260      1.000000
  0.000000  0.018036 -0.006377      2.000000
  0.015619  0.009018 -0.012753      2.000000
  0.031239  0.000000 -0.019130      2.000000
  0.046858 -0.009018 -0.025507      2.000000
  0.062478 -0.018036 -0.031883      2.000000
  0.078097 -0.027054 -0.038260      2.000000
  0.093717 -0.036072 -0.044636      2.000000
 -0.078097  0.063125  0.025507      2.000000
 -0.062478  0.054107  0.019130      2.000000
 -0.046858  0.045090  0.012753      2.000000
 -0.031239  0.036072  0.006377      2.000000
 -0.015619  0.027054  0.000000      2.000000
  0.000000  0.036072 -0.012753      2.000000
  0.015619  0.027054 -0.019130      2.000000
  0.031239  0.018036 -0.025507      2.000000
  0.046858  0.009018 -0.031883      2.000000
  0.062478  0.000000 -0.038260      2.000000
  0.078097 -0.009018 -0.044636      2.000000
  0.093717 -0.018036 -0.051013      2.000000
 -0.078097  0.081161  0.019130      2.000000
 -0.062478  0.072143  0.012753      2.000000
 -0.046858  0.063125  0.006377      2.000000
 -0.031239  0.054107  0.000000      2.000000
 -0.015619  0.045090 -0.006377      2.000000
  0.000000  0.054107 -0.019130      4.000000
  0.015619  0.045090 -0.025507      4.000000
  0.031239  0.036072 -0.031883      4.000000
  0.046858  0.027054 -0.038260      4.000000
  0.062478  0.018036 -0.044636      4.000000
  0.078097  0.009018 -0.051013      4.000000
  0.093717  0.000000 -0.057390      4.000000
 -0.078097  0.099197  0.012753      4.000000
 -0.062478  0.090179  0.006377      4.000000
 -0.046858  0.081161  0.000000      4.000000
 -0.031239  0.072143 -0.006377      4.000000
 -0.015619  0.063125 -0.012753      4.000000
  0.000000  0.072143 -0.025507      2.000000
  0.015619  0.063125 -0.031883      2.000000
  0.031239  0.054107 -0.038260      2.000000
  0.046858  0.045090 -0.044636      2.000000
  0.062478  0.036072 -0.051013      2.000000
  0.078097  0.027054 -0.057390      2.000000
  0.093717  0.018036 -0.063766      2.000000
 -0.078097  0.117233  0.006377      2.000000
 -0.062478  0.108215  0.000000      2.000000
 -0.046858  0.099197 -0.006377      2.000000
 -0.031239  0.090179 -0.012753      2.000000
 -0.015619  0.081161 -0.019130      2.000000
  0.000000  0.090179 -0.031883      2.000000
  0.015619  0.081161 -0.038260      2.000000
  0.031239  0.072143 -0.044636      2.000000
  0.046858  0.063125 -0.051013      2.000000
  0.062478  0.054107 -0.057390      2.000000
  0.078097  0.045090 -0.063766      2.000000
  0.093717  0.036072 -0.070143      2.000000
 -0.078097  0.135269  0.000000      2.000000
 -0.062478  0.126251 -0.006377      2.000000
 -0.046858  0.117233 -0.012753      2.000000
 -0.031239  0.108215 -0.019130      2.000000
 -0.015619  0.099197 -0.025507      2.000000
  0.000000  0.108215 -0.038260      2.000000
  0.015619  0.099197 -0.044636      4.000000
  0.031239  0.090179 -0.051013      4.000000
  0.046858  0.081161 -0.057390      4.000000
  0.062478  0.072143 -0.063766      4.000000
  0.078097  0.063125 -0.070143      4.000000
  0.093717  0.054107 -0.076520      2.000000
  0.000000  0.000000  0.028695      2.000000
  0.015619 -0.009018  0.022318      2.000000
  0.031239 -0.018036  0.015942      2.000000
  0.046858 -0.027054  0.009565      2.000000
  0.062478 -0.036072  0.003188      2.000000
  0.078097 -0.045090 -0.003188      2.000000
  0.093717 -0.054107 -0.009565      2.000000
 -0.078097  0.045090  0.060578      2.000000
 -0.062478  0.036072  0.054201      2.000000
 -0.046858  0.027054  0.047825      2.000000
 -0.031239  0.018036  0.041448      2.000000
 -0.015619  0.009018  0.035071      2.000000
  0.000000  0.018036  0.022318      2.000000
  0.015619  0.009018  0.015942      2.000000
  0.031239  0.000000  0.009565      2.000000
  0.046858 -0.009018  0.003188      2.000000
  0.062478 -0.018036 -0.003188      2.000000
  0.078097 -0.027054 -0.009565      2.000000
  0.093717 -0.036072 -0.015942      2.000000
 -0.078097  0.063125  0.054201      2.000000
 -0.062478  0.054107  0.047825      2.000000
 -0.046858  0.045090  0.041448      2.000000
 -0.031239  0.036072  0.035071      2.000000
 -0.015619  0.027054  0.028695      2.000000
  0.000000  0.036072  0.015942      2.000000
  0.015619  0.027054  0.009565      2.000000
  0.031239  0.018036  0.003188      2.000000
  0.046858  0.009018 -0.003188      2.000000
  0.062478  0.000000 -0.009565      2.000000
  0.078097 -0.009018 -0.015942      2.000000
  0.093717 -0.018036 -0.022318      2.000000
 -0.078097  0.081161  0.047825      2.000000
 -0.062478  0.072143  0.041448      2.000000
 -0.046858  0.063125  0.035071      2.000000
 -0.031239  0.054107  0.028695      2.000000
 -0.015619  0.045090  0.022318      2.000000
  0.000000  0.054107  0.009565      2.000000
  0.015619  0.045090  0.003188      2.000000
  0.031239  0.036072 -0.003188      2.000000
  0.046858  0.027054 -0.009565      2.000000
  0.062478  0.018036 -0.015942      2.000000
  0.078097  0.009018 -0.022318      2.000000
  0.093717  0.000000 -0.028695      2.000000
 -0.078097  0.099197  0.041448      2.000000
 -0.062478  0.090179  0.035071      2.000000
 -0.046858  0.081161  0.028695      2.000000
 -0.031239  0.072143  0.022318      2.000000
 -0.015619  0.063125  0.015942      2.000000
  0.000000  0.072143  0.003188      2.000000
  0.015619  0.063125 -0.003188      2.000000
  0.031239  0.054107 -0.009565      2.000000
  0.046858  0.045090 -0.015942      2.000000
  0.062478  0.036072 -0.022318      2.000000
  0.078097  0.027054 -0.028695      2.000000
  0.093717  0.018036 -0.035071      2.000000
 -0.078097  0.117233  0.035071      2.000000
 -0.062478  0.108215  0.028695      2.000000
 -0.046858  0.099197  0.022318      2.000000
 -0.031239  0.090179  0.015942      2.000000
 -0.015619  0.081161  0.009565      2.000000
  0.000000  0.090179 -0.003188      2.000000
  0.015619  0.081161 -0.009565      2.000000
  0.031239  0.072143 -0.015942      2.000000
  0.046858  0.063125 -0.022318      2.000000
  0.062478  0.054107 -0.028695      2.000000
  0.078097  0.045090 -0.035071      2.000000
  0.093717  0.036072 -0.041448      2.000000
 -0.078097  0.135269  0.028695      2.000000
 -0.062478  0.126251  0.022318      2.000000
 -0.046858  0.117233  0.015942      2.000000
 -0.031239  0.108215  0.009565      2.000000
 -0.015619  0.099197  0.003188      2.000000
  0.000000  0.108215 -0.009565      2.000000
  0.015619  0.099197 -0.015942      2.000000
  0.031239  0.090179 -0.022318      2.000000
  0.046858  0.081161 -0.028695      2.000000
  0.062478  0.072143 -0.035071      2.000000
  0.078097  0.063125 -0.041448      2.000000
  0.093717  0.054107 -0.047825      2.000000
 -0.078097  0.153305  0.022318      2.000000
 -0.062478  0.144287  0.015942      2.000000
 -0.046858  0.135269  0.009565      2.000000
 -0.031239  0.126251  0.003188      2.000000
 -0.015619  0.117233 -0.003188      2.000000
  0.000000 -0.090179  0.060578      2.000000
  0.015619 -0.099197  0.054201      2.000000
  0.031239 -0.108215  0.047825      2.000000
  0.046858 -0.117233  0.041448      2.000000
  0.062478 -0.126251  0.035071      2.000000
  0.078097 -0.135269  0.028695      2.000000
  0.093717 -0.144287  0.022318      2.000000
 -0.078097 -0.045090  0.092461      2.000000
 -0.062478 -0.054107  0.086084      2.000000
 -0.046858 -0.063125  0.079708      2.000000
 -0.031239 -0.072143  0.073331      2.000000
 -0.015619 -0.081161  0.066955      2.000000
  0.000000 -0.072143  0.054201      2.000000
  0.015619 -0.081161  0.047825      2.000000
  0.031239 -0.090179  0.041448      2.000000
  0.046858 -0.099197  0.035071      2.000000
  0.062478 -0.108215  0.028695      2.000000
  0.078097 -0.117233  0.022318      2.000000
  0.093717 -0.126251  0.015942      2.000000
 -0.078097 -0.027054  0.086084      2.000000
 -0.062478 -0.036072  0.079708      2.000000
 -0.046858 -0.045090  0.073331      2.000000
 -0.031239 -0.054107  0.066955      2.000000
 -0.015619 -0.063125  0.060578      2.000000
  0.000000 -0.054107  0.047825      2.000000
  0.015619 -0.063125  0.041448      2.000000
  0.031239 -0.072143  0.035071      2.000000
  0.046858 -0.081161  0.028695      2.000000
  0.062478 -0.090179  0.022318      2.000000
  0.078097 -0.099197  0.015942      2.000000
  0.093717 -0.108215  0.009565      2.000000
 -0.078097 -0.009018  0.079708      2.000000
 -0.062478 -0.018036  0.073331      2.000000
 -0.046858 -0.027054  0.066955      2.000000
 -0.031239 -0.036072  0.060578      2.000000
 -0.015619 -0.045090  0.054201      2.000000
  0.000000 -0.036072  0.041448      2.000000
  0.015619 -0.045090  0.035071      2.000000
  0.031239 -0.054107  0.028695      2.000000
  0.046858 -0.063125  0.022318      2.000000
  0.062478 -0.072143  0.015942      2.000000
  0.078097 -0.081161  0.009565      2.000000
  0.093717 -0.090179  0.003188      2.000000
 -0.078097  0.009018  0.073331      2.000000
 -0.062478 -0.000000  0.066955      2.000000
 -0.046858 -0.009018  0.060578      2.000000
 -0.031239 -0.018036  0.054201      2.000000
 -0.015619 -0.027054  0.047825      2.000000
  0.000000 -0.018036  0.035071      2.000000
  0.015619 -0.027054  0.028695      2.000000
  0.031239 -0.036072  0.022318      2.000000
  0.046858 -0.045090  0.015942      2.000000
  0.062478 -0.054107  0.009565      2.000000
  0.078097 -0.063125  0.003188      2.000000
  0.093717 -0.072143 -0.003188      2.000000
 -0.078097  0.027054  0.066955      2.000000
 -0.062478  0.018036  0.060578      2.000000
 -0.046858  0.009018  0.054201      2.000000
 -0.031239 -0.000000  0.047825      2.000000
 -0.015619 -0.009018  0.041448      2.000000
  0.000000  0.018036  0.051013      2.000000
  0.015619  0.009018  0.044636      2.000000
  0.031239  0.000000  0.038260      2.000000
  0.046858 -0.009018  0.031883      2.000000
  0.062478 -0.018036  0.025507      2.000000
  0.078097 -0.027054  0.019130      2.000000
  0.093717 -0.036072  0.012753      2.000000
 -0.078097  0.063125  0.082896      2.000000
 -0.062478  0.054107  0.076520      2.000000
 -0.046858  0.045090  0.070143      2.000000
 -0.031239  0.036072  0.063766      2.000000
 -0.015619  0.027054  0.057390      2.000000
  0.000000  0.036072  0.044636      2.000000
  0.015619  0.027054  0.038260      2.000000
  0.031239  0.018036  0.031883      2.000000
  0.046858  0.009018  0.025507      2.000000
  0.062478  0.000000  0.019130      2.000000
  0.078097 -0.009018  0.012753      2.000000
  0.093717 -0.018036  0.006377      2.000000
 -0.078097  0.081161  0.076520      2.000000
 -0.062478  0.072143  0.070143      2.000000
 -0.046858  0.063125  0.063766      2.000000
 -0.031239  0.054107  0.057390      2.000000
 -0.015619  0.045090  0.051013      2.000000
  0.000000  0.054107  0.038260      2.000000
  0.015619  0.045090  0.031883      2.000000
  0.031239  0.036072  0.025507      2.000000
  0.046858  0.027054  0.019130      2.000000
  0.062478  0.018036  0.012753      2.000000
  0.078097  0.009018  0.006377      2.000000
  0.093717  0.000000  0.000000      2.000000
 -0.078097  0.099197  0.070143      2.000000
 -0.062478  0.090179  0.063766      2.000000
 -0.046858  0.081161  0.057390      2.000000
 -0.031239  0.072143  0.051013      2.000000
 -0.015619  0.063125  0.044636      2.000000
  0.000000  0.072143  0.031883      2.000000
  0.015619  0.063125  0.025507      2.000000
  0.031239  0.054107  0.019130      2.000000
  0.046858  0.045090  0.012753      2.000000
  0.062478  0.036072  0.006377      2.000000
  0.078097  0.027054  0.000000      2.000000
  0.093717  0.018036 -0.006377      2.000000
 -0.078097  0.117233  0.063766      2.000000
 -0.062478  0.108215  0.057390      2.000000
 -0.046858  0.099197  0.051013      2.000000
 -0.031239  0.090179  0.044636      2.000000
 -0.015619  0.081161  0.038260      2.000000
  0.000000  0.090179  0.025507      2.000000
  0.015619  0.081161  0.019130      2.000000
  0.031239  0.072143  0.012753      2.000000
  0.046858  0.063125  0.006377      2.000000
  0.062478  0.054107  0.000000      2.000000
  0.078097  0.045090 -0.006377      2.000000
  0.093717  0.036072 -0.012753      2.000000
 -0.078097  0.135269  0.057390      2.000000
 -0.062478  0.126251  0.051013      2.000000
 -0.046858  0.117233  0.044636      2.000000
 -0.031239  0.108215  0.038260      2.000000
 -0.015619  0.099197  0.031883      2.000000
  0.000000  0.108215  0.019130      4.000000
  0.015619  0.099197  0.012753      4.000000
  0.031239  0.090179  0.006377      4.000000
  0.046858  0.081161  0.000000      4.000000
  0.062478  0.072143 -0.006377      4.000000
  0.078097  0.063125 -0.012753      4.000000
  0.093717  0.054107 -0.019130      4.000000
 -0.078097  0.153305  0.051013      4.000000
 -0.062478  0.144287  0.044636      4.000000
 -0.046858  0.135269  0.038260      4.000000
 -0.031239  0.126251  0.031883      4.000000
 -0.015619  0.117233  0.025507      4.000000
  0.000000 -0.090179  0.089273      2.000000
  0.015619 -0.099197  0.082896      2.000000
  0.031239 -0.108215  0.076520      2.000000
  0.046858 -0.117233  0.070143      2.000000
  0.062478 -0.126251  0.063766      2.000000
  0.078097 -0.135269  0.057390      2.000000
  0.093717 -0.144287  0.051013      2.000000
 -0.078097 -0.045090  0.121156      2.000000
 -0.062478 -0.054107  0.114779      2.000000
 -0.046858 -0.063125  0.108403      2.000000
 -0.031239 -0.072143  0.102026      2.000000
 -0.015619 -0.081161  0.095649      2.000000
  0.000000 -0.072143  0.082896      2.000000
  0.015619 -0.081161  0.076520      2.000000
  0.031239 -0.090179  0.070143      2.000000
  0.046858 -0.099197  0.063766      2.000000
  0.062478 -0.108215  0.057390      2.000000
  0.078097 -0.117233  0.051013      2.000000
  0.093717 -0.126251  0.044636      2.000000
 -0.078097 -0.027054  0.114779      2.000000
 -0.062478 -0.036072  0.108403      2.000000
 -0.046858 -0.045090  0.102026      2.000000
 -0.031239 -0.054107  0.095649      2.000000
 -0.015619 -0.063125  0.089273      2.000000
  0.000000 -0.054107  0.076520      2.000000
  0.015619 -0.063125  0.070143      4.000000
  0.031239 -0.072143  0.063766      4.000000
  0.046858 -0.081161  0.057390      4.000000
  0.062478 -0.090179  0.051013      4.000000
  0.078097 -0.099197  0.044636      4.000000
  0.093717 -0.108215  0.038260      2.000000
  0.000000 -0.036072  0.070143      2.000000
  0.015619 -0.045090  0.063766      2.000000
  0.031239 -0.054107  0.057390      2.000000
  0.046858 -0.063125  0.051013      2.000000
  0.062478 -0.072143  0.044636      2.000000
  0.078097 -0.081161  0.038260      2.000000
  0.093717 -0.090179  0.031883      2.000000
 -0.078097  0.009018  0.102026      2.000000
 -0.062478 -0.000000  0.095649      2.000000
 -0.046858 -0.009018  0.089273      2.000000
 -0.031239 -0.018036  0.082896      2.000000
 -0.015619 -0.027054  0.076520      2.000000
  0.000000 -0.018036  0.063766      2.000000
  0.015619 -0.027054  0.057390      2.000000
  0.031239 -0.036072  0.051013      2.000000
  0.046858 -0.045090  0.044636      2.000000
  0.062478 -0.054107  0.038260      2.000000
  0.078097 -0.063125  0.031883      2.000000
  0.093717 -0.072143  0.025507      2.000000
 -0.078097  0.027054  0.095649      2.000000
 -0.062478  0.018036  0.089273      2.000000
 -0.046858  0.009018  0.082896      2.000000
 -0.031239 -0.000000  0.076520      2.000000
 -0.015619 -0.009018  0.070143      2.000000
  0.000000  0.000000  0.086084      2.000000
  0.015619 -0.009018  0.079708      2.000000
  0.031239 -0.018036  0.073331      2.000000
  0.046858 -0.027054  0.066955      2.000000
  0.062478 -0.036072  0.060578      2.000000
  0.078097 -0.045090  0.054201      2.000000
  0.093717 -0.054107  0.047825      2.000000
 -0.078097  0.045090  0.117968      2.000000
 -0.062478  0.036072  0.111591      2.000000
 -0.046858  0.027054  0.105214      2.000000
 -0.031239  0.018036  0.098838      2.000000
 -0.015619  0.009018  0.092461      2.000000
  0.000000  0.018036  0.079708      2.000000
  0.015619  0.009018  0.073331      2.000000
  0.031239  0.000000  0.066955      2.000000
  0.046858 -0.009018  0.060578      2.000000
  0.062478 -0.018036  0.054201      2.000000
  0.078097 -0.027054  0.047825      2.000000
  0.093717 -0.036072  0.041448      2.000000
 -0.078097  0.063125  0.111591      2.000000
 -0.062478  0.054107  0.105214      2.000000
 -0.046858  0.045090  0.098838      2.000000
 -0.031239  0.036072  0.092461      2.000000
 -0.015619  0.027054  0.086084      2.000000
  0.000000  0.036072  0.073331      2.000000
  0.015619  0.027054  0.066955      2.000000
  0.031239  0.018036  0.060578      2.000000
  0.046858  0.009018  0.054201      2.000000
  0.062478  0.000000  0.047825      2.000000
  0.078097 -0.009018  0.041448      2.000000
  0.093717 -0.018036  0.035071      2.000000
 -0.078097  0.081161  0.105214      2.000000
 -0.062478  0.072143  0.098838      2.000000
 -0.046858  0.063125  0.092461      2.000000
 -0.031239  0.054107  0.086084      2.000000
 -0.015619  0.045090  0.079708      2.000000
  0.000000  0.054107  0.066955      2.000000
  0.015619  0.045090  0.060578      2.000000
  0.031239  0.036072  0.054201      2.000000
  0.046858  0.027054  0.047825      2.000000
  0.062478  0.018036  0.041448      2.000000
  0.078097  0.009018  0.035071      2.000000
  0.093717  0.000000  0.028695      2.000000
 -0.078097  0.099197  0.098838      2.000000
 -0.062478  0.090179  0.092461      2.000000
 -0.046858  0.081161  0.086084      2.000000
 -0.031239  0.072143  0.079708      2.000000
 -0.015619  0.063125  0.073331      2.000000
  0.000000  0.072143  0.060578      2.000000
  0.015619  0.063125  0.054201      2.000000
  0.031239  0.054107  0.047825      2.000000
  0.046858  0.045090  0.041448      2.000000
  0.062478  0.036072  0.035071      2.000000
  0.078097  0.027054  0.028695      2.000000
  0.093717  0.018036  0.022318      2.000000
 -0.078097  0.117233  0.092461      2.000000
 -0.062478  0.108215  0.086084      2.000000
 -0.046858  0.099197  0.079708      2.000000
 -0.031239  0.090179  0.073331      2.000000
 -0.015619  0.081161  0.066955      2.000000
  0.000000  0.090179  0.054201      2.000000
  0.015619  0.081161  0.047825      2.000000
  0.031239  0.072143  0.041448      2.000000
  0.046858  0.063125  0.035071      2.000000
  0.062478  0.054107  0.028695      2.000000
  0.078097  0.045090  0.022318      2.000000
  0.093717  0.036072  0.015942      2.000000
 -0.078097  0.135269  0.086084      2.000000
 -0.062478  0.126251  0.079708      2.000000
 -0.046858  0.117233  0.073331      2.000000
 -0.031239  0.108215  0.066955      2.000000
 -0.015619  0.099197  0.060578      2.000000
  0.000000  0.108215  0.047825      2.000000
  0.015619  0.099197  0.041448      2.000000
  0.031239  0.090179  0.035071      2.000000
  0.046858  0.081161  0.028695      2.000000
  0.062478  0.072143  0.022318      2.000000
  0.078097  0.063125  0.015942      2.000000
  0.093717  0.054107  0.009565      2.000000
 -0.078097  0.153305  0.079708      2.000000
 -0.062478  0.144287  0.073331      2.000000
 -0.046858  0.135269  0.066955      2.000000
 -0.031239  0.126251  0.060578      2.000000
 -0.015619  0.117233  0.054201      2.000000
  0.000000 -0.090179  0.117968      2.000000
  0.015619 -0.099197  0.111591      2.000000
  0.031239 -0.108215  0.105214      2.000000
  0.046858 -0.117233  0.098838      2.000000
  0.062478 -0.126251  0.092461      2.000000
  0.078097 -0.135269  0.086084      2.000000
  0.093717 -0.144287  0.079708      2.000000
 -0.078097 -0.045090  0.149851      2.000000
 -0.062478 -0.054107  0.143474      2.000000
 -0.046858 -0.063125  0.137098      2.000000
 -0.031239 -0.072143  0.130721      2.000000
 -0.015619 -0.081161  0.124344      2.000000
  0.000000 -0.072143  0.111591      2.000000
  0.015619 -0.081161  0.105214      2.000000
  0.031239 -0.090179  0.098838      2.000000
  0.046858 -0.099197  0.092461      2.000000
  0.062478 -0.108215  0.086084      2.000000
  0.078097 -0.117233  0.079708      2.000000
  0.093717 -0.126251  0.073331      2.000000
 -0.078097 -0.027054  0.143474      2.000000
 -0.062478 -0.036072  0.137098      2.000000
 -0.046858 -0.045090  0.130721      2.000000
 -0.031239 -0.054107  0.124344      2.000000
 -0.015619 -0.063125  0.117968      2.000000
  0.000000 -0.054107  0.105214      2.000000
  0.015619 -0.063125  0.098838      2.000000
  0.031239 -0.072143  0.092461      2.000000
  0.046858 -0.081161  0.086084      2.000000
  0.062478 -0.090179  0.079708      2.000000
  0.078097 -0.099197  0.073331      2.000000
  0.093717 -0.108215  0.066955      2.000000
 -0.078097 -0.009018  0.137098      2.000000
 -0.062478 -0.018036  0.130721      2.000000
 -0.046858 -0.027054  0.124344      2.000000
 -0.031239 -0.036072  0.117968      2.000000
 -0.015619 -0.045090  0.111591      2.000000
  0.000000 -0.036072  0.098838      2.000000
  0.015619 -0.045090  0.092461      2.000000
  0.031239 -0.054107  0.086084      2.000000
  0.046858 -0.063125  0.079708      2.000000
  0.062478 -0.072143  0.073331      2.000000
  0.078097 -0.081161  0.066955      2.000000
  0.093717 -0.090179  0.060578      2.000000
 -0.078097  0.009018  0.130721      2.000000
 -0.062478 -0.000000  0.124344      2.000000
 -0.046858 -0.009018  0.117968      2.000000
 -0.031239 -0.018036  0.111591      2.000000
 -0.015619 -0.027054  0.105214      2.000000
  0.000000 -0.018036  0.092461      2.000000
  0.015619 -0.027054  0.086084      2.000000
  0.031239 -0.036072  0.079708      2.000000
  0.046858 -0.045090  0.073331      2.000000
  0.062478 -0.054107  0.066955      2.000000
  0.078097 -0.063125  0.060578      2.000000
  0.093717 -0.072143  0.054201      2.000000
 -0.078097  0.027054  0.124344      2.000000
 -0.062478  0.018036  0.117968      2.000000
 -0.046858  0.009018  0.111591      2.000000
 -0.031239 -0.000000  0.105214      2.000000
 -0.015619 -0.009018  0.098838      2.000000
  0.000000  0.018036  0.108403      2.000000
  0.015619  0.009018  0.102026      2.000000
  0.031239  0.000000  0.095649      2.000000
  0.046858 -0.009018  0.089273      2.000000
  0.062478 -0.018036  0.082896      2.000000
  0.078097 -0.027054  0.076520      2.000000
  0.093717 -0.036072  0.070143      2.000000
 -0.078097  0.063125  0.140286      2.000000
 -0.062478  0.054107  0.133909      2.000000
 -0.046858  0.045090  0.127533      2.000000
 -0.031239  0.036072  0.121156      2.000000
 -0.015619  0.027054  0.114779      2.000000
  0.000000  0.036072  0.102026      2.000000
  0.015619  0.027054  0.095649      2.000000
  0.031239  0.018036  0.089273      2.000000
  0.046858  0.009018  0.082896      2.000000
  0.062478  0.000000  0.076520      2.000000
  0.078097 -0.009018  0.070143      2.000000
  0.093717 -0.018036  0.063766      2.000000
 -0.078097  0.081161  0.133909      2.000000
 -0.062478  0.072143  0.127533      2.000000
 -0.046858  0.063125  0.121156      2.000000
 -0.031239  0.054107  0.114779      2.000000
 -0.015619  0.045090  0.108403      2.000000
  0.000000  0.072143  0.089273      2.000000
  0.015619  0.063125  0.082896      2.000000
  0.031239  0.054107  0.076520      2.000000
  0.046858  0.045090  0.070143      2.000000
  0.062478  0.036072  0.063766      2.000000
  0.078097  0.027054  0.057390      2.000000
  0.093717  0.018036  0.051013      2.000000
 -0.078097  0.117233  0.121156      2.000000
 -0.062478  0.108215  0.114779      2.000000
 -0.046858  0.099197  0.108403      2.000000
 -0.031239  0.090179  0.102026      2.000000
 -0.015619  0.081161  0.095649      2.000000
  0.000000  0.090179  0.082896      2.000000
  0.015619  0.081161  0.076520      2.000000
  0.031239  0.072143  0.070143      2.000000
  0.046858  0.063125  0.063766      2.000000
  0.062478  0.054107  0.057390      2.000000
  0.078097  0.045090  0.051013      2.000000
  0.093717  0.036072  0.044636      2.000000
 -0.078097  0.135269  0.114779      2.000000
 -0.062478  0.126251  0.108403      2.000000
 -0.046858  0.117233  0.102026      2.000000
 -0.031239  0.108215  0.095649      2.000000
 -0.015619  0.099197  0.089273      2.000000
  0.000000  0.108215  0.076520      1.000000
  0.015619  0.099197  0.070143      2.000000
  0.031239  0.090179  0.063766      2.000000
  0.046858  0.081161  0.057390      2.000000
  0.062478  0.072143  0.051013      2.000000
  0.078097  0.063125  0.044636      2.000000
  0.093717  0.054107  0.038260      1.000000
 
 TETIRR: Found   3456 inequivalent tetrahedra from     6912


--------------------------------------------------------------------------------------------------------




 Dimension of arrays:
   k-points           NKPTS =    544   k-points in BZ     NKDIM =    544   number of bands    NBANDS=     42
   number of dos      NEDOS =    301   number of ions     NIONS =     16
   non local maximal  LDIM  =      4   non local SUM 2l+1 LMDIM =      8
   total plane-waves  NPLWV = 125000
   max r-space proj   IRMAX =      1   max aug-charges    IRDMAX=  13935
   dimension x,y,z NGX =    50 NGY =   50 NGZ =   50
   dimension x,y,z NGXF=   100 NGYF=  100 NGZF=  100
   support grid    NGXF=   100 NGYF=  100 NGZF=  100
   ions per type =              16
 NGX,Y,Z   is equivalent  to a cutoff of  15.58, 15.58, 15.58 a.u.
 NGXF,Y,Z  is equivalent  to a cutoff of  31.16, 31.16, 31.16 a.u.


 I would recommend the setting:
   dimension x,y,z NGX =    49 NGY =   49 NGZ =   49
 SYSTEM =  diamond                                 
 POSCAR =  C                                       

 Startparameter for this run:
   NWRITE =      2    write-flag & timer
   PREC   = accura    normal or accurate (medium, high low for compatibility)
   ISTART =      0    job   : 0-new  1-cont  2-samecut
   ICHARG =      2    charge: 1-file 2-atom 10-const
   ISPIN  =      1    spin polarized calculation?
   LNONCOLLINEAR =      F non collinear calculations
   LSORBIT =      F    spin-orbit coupling
   INIWAV =      1    electr: 0-lowe 1-rand  2-diag
   LASPH  =      F    aspherical Exc in radial PAW
   METAGGA=      F    non-selfconsistent MetaGGA calc.

 Electronic Relaxation 1
   ENCUT  =  800.0 eV  58.80 Ry    7.67 a.u.  12.30 12.30 12.30*2*pi/ulx,y,z
   ENINI  =  800.0     initial cutoff
   ENAUG  =  644.9 eV  augmentation charge cutoff
   NELM   =    200;   NELMIN=  2; NELMDL=  0     # of ELM steps 
   EDIFF  = 0.1E-07   stopping-criterion for ELM
   LREAL  =      F    real-space projection
   NLSPLINE    = F    spline interpolate recip. space projectors
   LCOMPAT=      F    compatible to vasp.4.4
   GGA_COMPAT  = T    GGA compatible to vasp.4.4-vasp.4.6
   LMAXPAW     = -100 max onsite density
   LMAXMIX     =    2 max onsite mixed and CHGCAR
   VOSKOWN=      0    Vosko Wilk Nusair interpolation
   ROPT   =    0.00000
 Ionic relaxation
   EDIFFG = 0.1E-02   stopping-criterion for IOM
   NSW    =      0    number of steps for IOM
   NBLOCK =      1;   KBLOCK =      1    inner block; outer block 
   IBRION =     -1    ionic relax: 0-MD 1-quasi-New 2-CG
   NFREE  =      0    steps in history (QN), initial steepest desc. (CG)
   ISIF   =      2    stress and relaxation
   IWAVPR =     10    prediction:  0-non 1-charg 2-wave 3-comb
   ISYM   =      2    0-nonsym 1-usesym 2-fastsym
   LCORR  =      T    Harris-Foulkes like correction to forces

   POTIM  = 0.5000    time-step for ionic-motion
   TEIN   =    0.0    initial temperature
   TEBEG  =    0.0;   TEEND  =   0.0 temperature during run
   SMASS  =  -3.00    Nose mass-parameter (am)
   estimated Nose-frequenzy (Omega)   =  0.10E-29 period in steps =****** mass=  -0.650E-27a.u.
   SCALEE = 1.0000    scale energy and forces
   NPACO  =    256;   APACO  = 16.0  distance and # of slots for P.C.
   PSTRESS=    0.0 pullay stress

  Mass of Ions in am
   POMASS =  12.01
  Ionic Valenz
   ZVAL   =   4.00
  Atomic Wigner-Seitz radii
   RWIGS  =  -1.00
  virtual crystal weights 
   VCA    =   1.00
   NELECT =      64.0000    total number of electrons
   NUPDOWN=      -1.0000    fix difference up-down

 DOS related values:
   EMIN   =  10.00;   EMAX   =-10.00  energy-range for DOS
   EFERMI =   0.00
   ISMEAR =    -5;   SIGMA  =   0.20  broadening in eV -4-tet -1-fermi 0-gaus

 Electronic relaxation 2 (details)
   IALGO  =     38    algorithm
   LDIAG  =      T    sub-space diagonalisation (order eigenvalues)
   LSUBROT=      F    optimize rotation matrix (better conditioning)
   TURBO    =      0    0=normal 1=particle mesh
   IRESTART =      0    0=no restart 2=restart with 2 vectors
   NREBOOT  =      0    no. of reboots
   NMIN     =      0    reboot dimension
   EREF     =   0.00    reference energy to select bands
   IMIX   =      4    mixing-type and parameters
     AMIX     =   0.40;   BMIX     =  1.00
     AMIX_MAG =   1.60;   BMIX_MAG =  1.00
     AMIN     =   0.10
     WC   =   100.;   INIMIX=   1;  MIXPRE=   1;  MAXMIX= -45

 Intra band minimization:
   WEIMIN = 0.0000     energy-eigenvalue tresh-hold
   EBREAK =  0.60E-10  absolut break condition
   DEPER  =   0.30     relativ break condition  

   TIME   =   0.40     timestep for ELM

  volume/ion in A,a.u.               =       6.71        45.29
  Fermi-wavevector in a.u.,A,eV,Ry     =   1.377699  2.603474 25.824616  1.898056
  Thomas-Fermi vector in A             =   2.502829
 
 Write flags
   LWAVE  =      F    write WAVECAR
   LCHARG =      F    write CHGCAR
   LVTOT  =      F    write LOCPOT, total local potential
   LVHAR  =      F    write LOCPOT, Hartree potential only
   LELF   =      F    write electronic localiz. function (ELF)
   LORBIT =      0    0 simple, 1 ext, 2 COOP (PROOUT)


 Dipole corrections
   LMONO  =      F    monopole corrections only (constant potential shift)
   LDIPOL =      F    correct potential (dipole corrections)
   IDIPOL =      0    1-x, 2-y, 3-z, 4-all directions 
   EPSILON=  1.0000000 bulk dielectric constant

 Exchange correlation treatment:
   GGA     =    PE    GGA type
   LEXCH   =     8    internal setting for exchange type
   VOSKOWN=      0    Vosko Wilk Nusair interpolation
   LHFCALC =     F    Hartree Fock is set to
   LHFONE  =     F    Hartree Fock one center treatment
   AEXX    =    0.0000 exact exchange contribution

 Linear response parameters
   LEPSILON=     F    determine dielectric tensor
   LRPA    =     F    only Hartree local field effects (RPA)
   LNABLA  =     F    use nabla operator in PAW spheres
   LVEL    =     F    velocity operator in full k-point grid
   LINTERFAST=   F  fast interpolation
   KINTER  =     0    interpolate to denser k-point grid
   CSHIFT  =0.1000    complex shift for real part using Kramers Kronig
   OMEGAMAX=  -1.0    maximum frequency
   DEG_THRESHOLD= 0.2000000E-02 threshold for treating states as degnerate
   RTIME   =    0.100 relaxation time in fs

 Orbital magnetization related:
   ORBITALMAG=     F  switch on orbital magnetization
   LCHIMAG   =     F  perturbation theory with respect to B field
   DQ        =  0.001000  dq finite difference perturbation B field



--------------------------------------------------------------------------------------------------------


 Static calculation
 charge density and potential will be updated during run
 non-spin polarized calculation
 Variant of blocked Davidson
 Davidson routine will perform the subspace rotation
 perform sub-space diagonalisation
    after iterative eigenvector-optimisation
 modified Broyden-mixing scheme, WC =      100.0
 initial mixing is a Kerker type mixing with AMIX =  0.4000 and BMIX =      1.0000
 Hartree-type preconditioning will be used
 using additional bands           10
 reciprocal scheme for non local part
 calculate Harris-corrections to forces 
   (improved forces if not selfconsistent)
 use gradient corrections 
 use of overlap-Matrix (Vanderbilt PP)
 Fermi weights with tetrahedron method with Bloechl corrections


--------------------------------------------------------------------------------------------------------


  energy-cutoff  :      800.00
  volume of cell :      107.38
      direct lattice vectors                 reciprocal lattice vectors
     5.335216059  0.000000000  0.000000000     0.187433834 -0.108214974 -0.076519542
     2.667608029  4.620432642  0.000000000     0.000000000  0.216429949 -0.076519542
     2.667608029  1.540144214  4.356185670     0.000000000  0.000000000  0.229558627

  length of vectors
     5.335216059  5.335216059  5.335216059     0.229558627  0.229558627  0.229558627


 
 k-points in units of 2pi/SCALE and weight: B4C B11C-CBC                            
   0.00000000  0.00000000  0.00000000       0.001
   0.01561949 -0.00901791 -0.00637663       0.002
   0.03123897 -0.01803583 -0.01275326       0.002
   0.04685846 -0.02705374 -0.01912989       0.002
   0.06247794 -0.03607166 -0.02550651       0.002
   0.07809743 -0.04508957 -0.03188314       0.002
   0.09371692 -0.05410749 -0.03825977       0.001
   0.00000000  0.01803583 -0.00637663       0.002
   0.01561949  0.00901791 -0.01275326       0.002
   0.03123897  0.00000000 -0.01912989       0.002
   0.04685846 -0.00901791 -0.02550651       0.002
   0.06247794 -0.01803583 -0.03188314       0.002
   0.07809743 -0.02705374 -0.03825977       0.002
   0.09371692 -0.03607166 -0.04463640       0.002
  -0.07809743  0.06312540  0.02550651       0.002
  -0.06247794  0.05410749  0.01912989       0.002
  -0.04685846  0.04508957  0.01275326       0.002
  -0.03123897  0.03607166  0.00637663       0.002
  -0.01561949  0.02705374  0.00000000       0.002
   0.00000000  0.03607166 -0.01275326       0.002
   0.01561949  0.02705374 -0.01912989       0.002
   0.03123897  0.01803583 -0.02550651       0.002
   0.04685846  0.00901791 -0.03188314       0.002
   0.06247794  0.00000000 -0.03825977       0.002
   0.07809743 -0.00901791 -0.04463640       0.002
   0.09371692 -0.01803583 -0.05101303       0.002
  -0.07809743  0.08116123  0.01912989       0.002
  -0.06247794  0.07214332  0.01275326       0.002
  -0.04685846  0.06312540  0.00637663       0.002
  -0.03123897  0.05410749  0.00000000       0.002
  -0.01561949  0.04508957 -0.00637663       0.002
   0.00000000  0.05410749 -0.01912989       0.003
   0.01561949  0.04508957 -0.02550651       0.003
   0.03123897  0.03607166 -0.03188314       0.003
   0.04685846  0.02705374 -0.03825977       0.003
   0.06247794  0.01803583 -0.04463640       0.003
   0.07809743  0.00901791 -0.05101303       0.003
   0.09371692  0.00000000 -0.05738966       0.003
  -0.07809743  0.09919706  0.01275326       0.003
  -0.06247794  0.09017915  0.00637663       0.003
  -0.04685846  0.08116123  0.00000000       0.003
  -0.03123897  0.07214332 -0.00637663       0.003
  -0.01561949  0.06312540 -0.01275326       0.003
   0.00000000  0.07214332 -0.02550651       0.002
   0.01561949  0.06312540 -0.03188314       0.002
   0.03123897  0.05410749 -0.03825977       0.002
   0.04685846  0.04508957 -0.04463640       0.002
   0.06247794  0.03607166 -0.05101303       0.002
   0.07809743  0.02705374 -0.05738966       0.002
   0.09371692  0.01803583 -0.06376629       0.002
  -0.07809743  0.11723289  0.00637663       0.002
  -0.06247794  0.10821497  0.00000000       0.002
  -0.04685846  0.09919706 -0.00637663       0.002
  -0.03123897  0.09017915 -0.01275326       0.002
  -0.01561949  0.08116123 -0.01912989       0.002
   0.00000000  0.09017915 -0.03188314       0.002
   0.01561949  0.08116123 -0.03825977       0.002
   0.03123897  0.07214332 -0.04463640       0.002
   0.04685846  0.06312540 -0.05101303       0.002
   0.06247794  0.05410749 -0.05738966       0.002
   0.07809743  0.04508957 -0.06376629       0.002
   0.09371692  0.03607166 -0.07014291       0.002
  -0.07809743  0.13526872  0.00000000       0.002
  -0.06247794  0.12625080 -0.00637663       0.002
  -0.04685846  0.11723289 -0.01275326       0.002
  -0.03123897  0.10821497 -0.01912989       0.002
  -0.01561949  0.09919706 -0.02550651       0.002
   0.00000000  0.10821497 -0.03825977       0.002
   0.01561949  0.09919706 -0.04463640       0.003
   0.03123897  0.09017915 -0.05101303       0.003
   0.04685846  0.08116123 -0.05738966       0.003
   0.06247794  0.07214332 -0.06376629       0.003
   0.07809743  0.06312540 -0.07014291       0.003
   0.09371692  0.05410749 -0.07651954       0.002
   0.00000000  0.00000000  0.02869483       0.002
   0.01561949 -0.00901791  0.02231820       0.002
   0.03123897 -0.01803583  0.01594157       0.002
   0.04685846 -0.02705374  0.00956494       0.002
   0.06247794 -0.03607166  0.00318831       0.002
   0.07809743 -0.04508957 -0.00318831       0.002
   0.09371692 -0.05410749 -0.00956494       0.002
  -0.07809743  0.04508957  0.06057797       0.002
  -0.06247794  0.03607166  0.05420134       0.002
  -0.04685846  0.02705374  0.04782471       0.002
  -0.03123897  0.01803583  0.04144809       0.002
  -0.01561949  0.00901791  0.03507146       0.002
   0.00000000  0.01803583  0.02231820       0.002
   0.01561949  0.00901791  0.01594157       0.002
   0.03123897  0.00000000  0.00956494       0.002
   0.04685846 -0.00901791  0.00318831       0.002
   0.06247794 -0.01803583 -0.00318831       0.002
   0.07809743 -0.02705374 -0.00956494       0.002
   0.09371692 -0.03607166 -0.01594157       0.002
  -0.07809743  0.06312540  0.05420134       0.002
  -0.06247794  0.05410749  0.04782471       0.002
  -0.04685846  0.04508957  0.04144809       0.002
  -0.03123897  0.03607166  0.03507146       0.002
  -0.01561949  0.02705374  0.02869483       0.002
   0.00000000  0.03607166  0.01594157       0.002
   0.01561949  0.02705374  0.00956494       0.002
   0.03123897  0.01803583  0.00318831       0.002
   0.04685846  0.00901791 -0.00318831       0.002
   0.06247794  0.00000000 -0.00956494       0.002
   0.07809743 -0.00901791 -0.01594157       0.002
   0.09371692 -0.01803583 -0.02231820       0.002
  -0.07809743  0.08116123  0.04782471       0.002
  -0.06247794  0.07214332  0.04144809       0.002
  -0.04685846  0.06312540  0.03507146       0.002
  -0.03123897  0.05410749  0.02869483       0.002
  -0.01561949  0.04508957  0.02231820       0.002
   0.00000000  0.05410749  0.00956494       0.002
   0.01561949  0.04508957  0.00318831       0.002
   0.03123897  0.03607166 -0.00318831       0.002
   0.04685846  0.02705374 -0.00956494       0.002
   0.06247794  0.01803583 -0.01594157       0.002
   0.07809743  0.00901791 -0.02231820       0.002
   0.09371692  0.00000000 -0.02869483       0.002
  -0.07809743  0.09919706  0.04144809       0.002
  -0.06247794  0.09017915  0.03507146       0.002
  -0.04685846  0.08116123  0.02869483       0.002
  -0.03123897  0.07214332  0.02231820       0.002
  -0.01561949  0.06312540  0.01594157       0.002
   0.00000000  0.07214332  0.00318831       0.002
   0.01561949  0.06312540 -0.00318831       0.002
   0.03123897  0.05410749 -0.00956494       0.002
   0.04685846  0.04508957 -0.01594157       0.002
   0.06247794  0.03607166 -0.02231820       0.002
   0.07809743  0.02705374 -0.02869483       0.002
   0.09371692  0.01803583 -0.03507146       0.002
  -0.07809743  0.11723289  0.03507146       0.002
  -0.06247794  0.10821497  0.02869483       0.002
  -0.04685846  0.09919706  0.02231820       0.002
  -0.03123897  0.09017915  0.01594157       0.002
  -0.01561949  0.08116123  0.00956494       0.002
   0.00000000  0.09017915 -0.00318831       0.002
   0.01561949  0.08116123 -0.00956494       0.002
   0.03123897  0.07214332 -0.01594157       0.002
   0.04685846  0.06312540 -0.02231820       0.002
   0.06247794  0.05410749 -0.02869483       0.002
   0.07809743  0.04508957 -0.03507146       0.002
   0.09371692  0.03607166 -0.04144809       0.002
  -0.07809743  0.13526872  0.02869483       0.002
  -0.06247794  0.12625080  0.02231820       0.002
  -0.04685846  0.11723289  0.01594157       0.002
  -0.03123897  0.10821497  0.00956494       0.002
  -0.01561949  0.09919706  0.00318831       0.002
   0.00000000  0.10821497 -0.00956494       0.002
   0.01561949  0.09919706 -0.01594157       0.002
   0.03123897  0.09017915 -0.02231820       0.002
   0.04685846  0.08116123 -0.02869483       0.002
   0.06247794  0.07214332 -0.03507146       0.002
   0.07809743  0.06312540 -0.04144809       0.002
   0.09371692  0.05410749 -0.04782471       0.002
  -0.07809743  0.15330455  0.02231820       0.002
  -0.06247794  0.14428663  0.01594157       0.002
  -0.04685846  0.13526872  0.00956494       0.002
  -0.03123897  0.12625080  0.00318831       0.002
  -0.01561949  0.11723289 -0.00318831       0.002
   0.00000000 -0.09017915  0.06057797       0.002
   0.01561949 -0.09919706  0.05420134       0.002
   0.03123897 -0.10821497  0.04782471       0.002
   0.04685846 -0.11723289  0.04144809       0.002
   0.06247794 -0.12625080  0.03507146       0.002
   0.07809743 -0.13526872  0.02869483       0.002
   0.09371692 -0.14428663  0.02231820       0.002
  -0.07809743 -0.04508957  0.09246111       0.002
  -0.06247794 -0.05410749  0.08608448       0.002
  -0.04685846 -0.06312540  0.07970786       0.002
  -0.03123897 -0.07214332  0.07333123       0.002
  -0.01561949 -0.08116123  0.06695460       0.002
   0.00000000 -0.07214332  0.05420134       0.002
   0.01561949 -0.08116123  0.04782471       0.002
   0.03123897 -0.09017915  0.04144809       0.002
   0.04685846 -0.09919706  0.03507146       0.002
   0.06247794 -0.10821497  0.02869483       0.002
   0.07809743 -0.11723289  0.02231820       0.002
   0.09371692 -0.12625080  0.01594157       0.002
  -0.07809743 -0.02705374  0.08608448       0.002
  -0.06247794 -0.03607166  0.07970786       0.002
  -0.04685846 -0.04508957  0.07333123       0.002
  -0.03123897 -0.05410749  0.06695460       0.002
  -0.01561949 -0.06312540  0.06057797       0.002
   0.00000000 -0.05410749  0.04782471       0.002
   0.01561949 -0.06312540  0.04144809       0.002
   0.03123897 -0.07214332  0.03507146       0.002
   0.04685846 -0.08116123  0.02869483       0.002
   0.06247794 -0.09017915  0.02231820       0.002
   0.07809743 -0.09919706  0.01594157       0.002
   0.09371692 -0.10821497  0.00956494       0.002
  -0.07809743 -0.00901791  0.07970786       0.002
  -0.06247794 -0.01803583  0.07333123       0.002
  -0.04685846 -0.02705374  0.06695460       0.002
  -0.03123897 -0.03607166  0.06057797       0.002
  -0.01561949 -0.04508957  0.05420134       0.002
   0.00000000 -0.03607166  0.04144809       0.002
   0.01561949 -0.04508957  0.03507146       0.002
   0.03123897 -0.05410749  0.02869483       0.002
   0.04685846 -0.06312540  0.02231820       0.002
   0.06247794 -0.07214332  0.01594157       0.002
   0.07809743 -0.08116123  0.00956494       0.002
   0.09371692 -0.09017915  0.00318831       0.002
  -0.07809743  0.00901791  0.07333123       0.002
  -0.06247794 -0.00000000  0.06695460       0.002
  -0.04685846 -0.00901791  0.06057797       0.002
  -0.03123897 -0.01803583  0.05420134       0.002
  -0.01561949 -0.02705374  0.04782471       0.002
   0.00000000 -0.01803583  0.03507146       0.002
   0.01561949 -0.02705374  0.02869483       0.002
   0.03123897 -0.03607166  0.02231820       0.002
   0.04685846 -0.04508957  0.01594157       0.002
   0.06247794 -0.05410749  0.00956494       0.002
   0.07809743 -0.06312540  0.00318831       0.002
   0.09371692 -0.07214332 -0.00318831       0.002
  -0.07809743  0.02705374  0.06695460       0.002
  -0.06247794  0.01803583  0.06057797       0.002
  -0.04685846  0.00901791  0.05420134       0.002
  -0.03123897 -0.00000000  0.04782471       0.002
  -0.01561949 -0.00901791  0.04144809       0.002
   0.00000000  0.01803583  0.05101303       0.002
   0.01561949  0.00901791  0.04463640       0.002
   0.03123897  0.00000000  0.03825977       0.002
   0.04685846 -0.00901791  0.03188314       0.002
   0.06247794 -0.01803583  0.02550651       0.002
   0.07809743 -0.02705374  0.01912989       0.002
   0.09371692 -0.03607166  0.01275326       0.002
  -0.07809743  0.06312540  0.08289617       0.002
  -0.06247794  0.05410749  0.07651954       0.002
  -0.04685846  0.04508957  0.07014291       0.002
  -0.03123897  0.03607166  0.06376629       0.002
  -0.01561949  0.02705374  0.05738966       0.002
   0.00000000  0.03607166  0.04463640       0.002
   0.01561949  0.02705374  0.03825977       0.002
   0.03123897  0.01803583  0.03188314       0.002
   0.04685846  0.00901791  0.02550651       0.002
   0.06247794  0.00000000  0.01912989       0.002
   0.07809743 -0.00901791  0.01275326       0.002
   0.09371692 -0.01803583  0.00637663       0.002
  -0.07809743  0.08116123  0.07651954       0.002
  -0.06247794  0.07214332  0.07014291       0.002
  -0.04685846  0.06312540  0.06376629       0.002
  -0.03123897  0.05410749  0.05738966       0.002
  -0.01561949  0.04508957  0.05101303       0.002
   0.00000000  0.05410749  0.03825977       0.002
   0.01561949  0.04508957  0.03188314       0.002
   0.03123897  0.03607166  0.02550651       0.002
   0.04685846  0.02705374  0.01912989       0.002
   0.06247794  0.01803583  0.01275326       0.002
   0.07809743  0.00901791  0.00637663       0.002
   0.09371692  0.00000000  0.00000000       0.002
  -0.07809743  0.09919706  0.07014291       0.002
  -0.06247794  0.09017915  0.06376629       0.002
  -0.04685846  0.08116123  0.05738966       0.002
  -0.03123897  0.07214332  0.05101303       0.002
  -0.01561949  0.06312540  0.04463640       0.002
   0.00000000  0.07214332  0.03188314       0.002
   0.01561949  0.06312540  0.02550651       0.002
   0.03123897  0.05410749  0.01912989       0.002
   0.04685846  0.04508957  0.01275326       0.002
   0.06247794  0.03607166  0.00637663       0.002
   0.07809743  0.02705374  0.00000000       0.002
   0.09371692  0.01803583 -0.00637663       0.002
  -0.07809743  0.11723289  0.06376629       0.002
  -0.06247794  0.10821497  0.05738966       0.002
  -0.04685846  0.09919706  0.05101303       0.002
  -0.03123897  0.09017915  0.04463640       0.002
  -0.01561949  0.08116123  0.03825977       0.002
   0.00000000  0.09017915  0.02550651       0.002
   0.01561949  0.08116123  0.01912989       0.002
   0.03123897  0.07214332  0.01275326       0.002
   0.04685846  0.06312540  0.00637663       0.002
   0.06247794  0.05410749  0.00000000       0.002
   0.07809743  0.04508957 -0.00637663       0.002
   0.09371692  0.03607166 -0.01275326       0.002
  -0.07809743  0.13526872  0.05738966       0.002
  -0.06247794  0.12625080  0.05101303       0.002
  -0.04685846  0.11723289  0.04463640       0.002
  -0.03123897  0.10821497  0.03825977       0.002
  -0.01561949  0.09919706  0.03188314       0.002
   0.00000000  0.10821497  0.01912989       0.003
   0.01561949  0.09919706  0.01275326       0.003
   0.03123897  0.09017915  0.00637663       0.003
   0.04685846  0.08116123  0.00000000       0.003
   0.06247794  0.07214332 -0.00637663       0.003
   0.07809743  0.06312540 -0.01275326       0.003
   0.09371692  0.05410749 -0.01912989       0.003
  -0.07809743  0.15330455  0.05101303       0.003
  -0.06247794  0.14428663  0.04463640       0.003
  -0.04685846  0.13526872  0.03825977       0.003
  -0.03123897  0.12625080  0.03188314       0.003
  -0.01561949  0.11723289  0.02550651       0.003
   0.00000000 -0.09017915  0.08927280       0.002
   0.01561949 -0.09919706  0.08289617       0.002
   0.03123897 -0.10821497  0.07651954       0.002
   0.04685846 -0.11723289  0.07014291       0.002
   0.06247794 -0.12625080  0.06376629       0.002
   0.07809743 -0.13526872  0.05738966       0.002
   0.09371692 -0.14428663  0.05101303       0.002
  -0.07809743 -0.04508957  0.12115594       0.002
  -0.06247794 -0.05410749  0.11477931       0.002
  -0.04685846 -0.06312540  0.10840268       0.002
  -0.03123897 -0.07214332  0.10202606       0.002
  -0.01561949 -0.08116123  0.09564943       0.002
   0.00000000 -0.07214332  0.08289617       0.002
   0.01561949 -0.08116123  0.07651954       0.002
   0.03123897 -0.09017915  0.07014291       0.002
   0.04685846 -0.09919706  0.06376629       0.002
   0.06247794 -0.10821497  0.05738966       0.002
   0.07809743 -0.11723289  0.05101303       0.002
   0.09371692 -0.12625080  0.04463640       0.002
  -0.07809743 -0.02705374  0.11477931       0.002
  -0.06247794 -0.03607166  0.10840268       0.002
  -0.04685846 -0.04508957  0.10202606       0.002
  -0.03123897 -0.05410749  0.09564943       0.002
  -0.01561949 -0.06312540  0.08927280       0.002
   0.00000000 -0.05410749  0.07651954       0.002
[...]
     31       4.9091      2.00000
     32       4.9184      2.00000
     33      11.5066      0.00000
     34      11.5071      0.00000
     35      14.4381      0.00000
     36      14.4467      0.00000
     37      14.4467      0.00000
     38      14.4532      0.00000
     39      16.3307      0.00000
     40      16.3332      0.00000
     41      16.3499      0.00000
     42      16.3631      0.00000

 k-point   539 :       0.0833    0.5000    0.5000
  band No.  band energies     occupation 
      1     -10.1483      2.00000
      2      -9.4839      2.00000
      3      -8.5385      2.00000
      4      -7.9186      2.00000
      5      -7.9185      2.00000
      6      -7.3250      2.00000
      7      -4.1145      2.00000
      8      -4.1143      2.00000
      9      -3.2513      2.00000
     10      -3.2511      2.00000
     11      -1.2182      2.00000
     12      -0.6419      2.00000
     13      -0.6419      2.00000
     14      -0.0259      2.00000
     15       0.2084      2.00000
     16       0.2097      2.00000
     17       0.6494      2.00000
     18       0.9491      2.00000
     19       0.9502      2.00000
     20       1.1571      2.00000
     21       1.1573      2.00000
     22       1.6932      2.00000
     23       2.3882      2.00000
     24       3.3971      2.00000
     25       3.7115      2.00000
     26       3.7253      2.00000
     27       4.3182      2.00000
     28       4.4426      2.00000
     29       4.5441      2.00000
     30       4.7843      2.00000
     31       4.7853      2.00000
     32       5.2760      2.00000
     33      11.5401      0.00000
     34      11.7292      0.00000
     35      14.1808      0.00000
     36      14.6220      0.00000
     37      14.6245      0.00000
     38      14.6677      0.00000
     39      15.7726      0.00000
     40      15.9901      0.00000
     41      16.0771      0.00000
     42      16.1338      0.00000

 k-point   540 :       0.1667    0.5000    0.5000
  band No.  band energies     occupation 
      1     -10.3583      2.00000
      2      -9.0576      2.00000
      3      -9.0315      2.00000
      4      -7.8036      2.00000
      5      -7.8035      2.00000
      6      -6.6744      2.00000
      7      -4.6267      2.00000
      8      -4.6267      2.00000
      9      -2.9456      2.00000
     10      -2.9453      2.00000
     11      -2.0745      2.00000
     12      -0.9877      2.00000
     13      -0.9876      2.00000
     14       0.1338      2.00000
     15       0.1366      2.00000
     16       0.2590      2.00000
     17       0.6105      2.00000
     18       1.5091      2.00000
     19       1.5136      2.00000
     20       1.5192      2.00000
     21       1.5639      2.00000
     22       1.5643      2.00000
     23       2.6676      2.00000
     24       3.2487      2.00000
     25       3.3552      2.00000
     26       3.5131      2.00000
     27       4.2036      2.00000
     28       4.4480      2.00000
     29       4.4497      2.00000
     30       4.6775      2.00000
     31       5.0610      2.00000
     32       5.6164      2.00000
     33      11.7898      0.00000
     34      12.1673      0.00000
     35      13.9037      0.00000
     36      14.7979      0.00000
     37      15.1209      0.00000
     38      15.1236      0.00000
     39      15.2299      0.00000
     40      15.2455      0.00000
     41      15.3666      0.00000
     42      15.4257      0.00000

 k-point   541 :       0.2500    0.5000    0.5000
  band No.  band energies     occupation 
      1     -10.4852      2.00000
      2      -9.5002      2.00000
      3      -8.5104      2.00000
      4      -7.6135      2.00000
      5      -7.6133      2.00000
      6      -6.0884      2.00000
      7      -5.1567      2.00000
      8      -5.1566      2.00000
      9      -2.8235      2.00000
     10      -2.7257      2.00000
     11      -2.7247      2.00000
     12      -1.3554      2.00000
     13      -1.3552      2.00000
     14       0.2776      2.00000
     15       0.2816      2.00000
     16       0.5312      2.00000
     17       0.5781      2.00000
     18       0.7169      2.00000
     19       1.9718      2.00000
     20       1.9750      2.00000
     21       2.1179      2.00000
     22       2.1216      2.00000
     23       2.9036      2.00000
     24       2.9195      2.00000
     25       3.3656      2.00000
     26       3.6915      2.00000
     27       3.9030      2.00000
     28       3.9972      2.00000
     29       4.0015      2.00000
     30       5.0548      2.00000
     31       5.6326      2.00000
     32       5.8929      2.00000
     33      12.1496      0.00000
     34      12.7359      0.00000
     35      13.6388      0.00000
     36      14.2816      0.00000
     37      14.2843      0.00000
     38      14.6237      0.00000
     39      14.6262      0.00000
     40      14.7770      0.00000
     41      14.7832      0.00000
     42      15.4145      0.00000

 k-point   542 :       0.3333    0.5000    0.5000
  band No.  band energies     occupation 
      1     -10.5285      2.00000
      2      -9.8682      2.00000
      3      -7.9216      2.00000
      4      -7.3507      2.00000
      5      -7.3505      2.00000
      6      -5.7978      2.00000
      7      -5.6792      2.00000
      8      -5.6787      2.00000
      9      -3.1879      2.00000
     10      -2.5579      2.00000
     11      -2.5574      2.00000
     12      -1.6909      2.00000
     13      -1.6907      2.00000
     14      -0.3806      2.00000
     15       0.6051      2.00000
     16       0.6102      2.00000
     17       0.8413      2.00000
     18       0.9236      2.00000
     19       2.1957      2.00000
     20       2.2030      2.00000
     21       2.4460      2.00000
     22       2.4834      2.00000
     23       2.6762      2.00000
     24       2.6814      2.00000
     25       3.2862      2.00000
     26       3.5921      2.00000
     27       3.6005      2.00000
     28       3.6539      2.00000
     29       4.6561      2.00000
     30       5.4237      2.00000
     31       6.0431      2.00000
     32       6.0645      2.00000
     33      12.4991      0.00000
     34      13.3449      0.00000
     35      13.3993      0.00000
     36      13.5338      0.00000
     37      13.5360      0.00000
     38      13.8584      0.00000
     39      13.8615      0.00000
     40      14.4822      0.00000
     41      14.5367      0.00000
     42      14.7406      0.00000

 k-point   543 :       0.4167    0.5000    0.5000
  band No.  band energies     occupation 
      1     -10.4879      2.00000
      2     -10.1566      2.00000
      3      -7.2818      2.00000
      4      -7.0190      2.00000
      5      -7.0188      2.00000
      6      -6.1734      2.00000
      7      -6.1732      2.00000
      8      -6.0462      2.00000
      9      -2.9116      2.00000
     10      -2.3975      2.00000
     11      -2.3971      2.00000
     12      -1.9769      2.00000
     13      -1.9767      2.00000
     14      -1.3245      2.00000
     15       1.0573      2.00000
     16       1.0642      2.00000
     17       1.1973      2.00000
     18       1.2135      2.00000
     19       1.9861      2.00000
     20       2.0230      2.00000
     21       2.0333      2.00000
     22       2.0408      2.00000
     23       3.1021      2.00000
     24       3.1082      2.00000
     25       3.2761      2.00000
     26       3.4200      2.00000
     27       3.4305      2.00000
     28       3.4630      2.00000
     29       5.4606      2.00000
     30       5.7483      2.00000
     31       6.0987      2.00000
     32       6.1923      2.00000
     33      12.7738      0.00000
     34      13.0801      0.00000
     35      13.0836      0.00000
     36      13.1867      0.00000
     37      13.2735      0.00000
     38      13.2773      0.00000
     39      13.9101      0.00000
     40      14.2101      0.00000
     41      14.2843      0.00000
     42      14.3781      0.00000

 k-point   544 :       0.5000    0.5000    0.5000
  band No.  band energies     occupation 
      1     -10.3710      2.00000
      2     -10.3563      2.00000
      3      -6.6431      2.00000
      4      -6.6258      2.00000
      5      -6.6248      2.00000
      6      -6.6221      2.00000
      7      -6.6216      2.00000
      8      -6.6077      2.00000
      9      -2.2178      2.00000
     10      -2.2139      2.00000
     11      -2.2134      2.00000
     12      -2.2081      2.00000
     13      -2.2065      2.00000
     14      -2.1884      2.00000
     15       1.5323      2.00000
     16       1.5701      2.00000
     17       1.5739      2.00000
     18       1.5796      2.00000
     19       1.5809      2.00000
     20       1.5823      2.00000
     21       1.6023      2.00000
     22       1.6093      2.00000
     23       3.3274      2.00000
     24       3.3285      2.00000
     25       3.3323      2.00000
     26       3.3382      2.00000
     27       3.3449      2.00000
     28       3.3597      2.00000
     29       5.9835      2.00000
     30       5.9840      2.00000
     31       5.9894      2.00000
     32       6.0143      2.00000
     33      12.9811      0.00000
     34      12.9846      0.00000
     35      12.9849      0.00000
     36      12.9866      0.00000
     37      13.0050      0.00000
     38      13.0069      0.00000
     39      14.0507      0.00000
     40      14.0653      0.00000
     41      14.4666      0.00000
     42      14.4883      0.00000


--------------------------------------------------------------------------------------------------------


 soft charge-density along one line, spin component           1
         0         1         2         3         4         5         6         7         8         9
 total charge-density along one line
 
 pseudopotential strength for first ion, spin component:           1
  9.570  -0.001   0.000   0.000   0.000  -0.000  -0.000  -0.000
 -0.001  -0.002   0.000   0.000   0.000  -0.000  -0.000  -0.000
  0.000   0.000  -3.790  -0.000  -0.000  -0.003  -0.000  -0.000
  0.000   0.000  -0.000  -3.790  -0.000  -0.000  -0.003  -0.000
  0.000   0.000  -0.000  -0.000  -3.790  -0.000  -0.000  -0.003
 -0.000  -0.000  -0.003  -0.000  -0.000  -0.760  -0.000   0.000
 -0.000  -0.000  -0.000  -0.003  -0.000  -0.000  -0.760   0.000
 -0.000  -0.000  -0.000  -0.000  -0.003   0.000   0.000  -0.760
 total augmentation occupancy for first ion, spin component:           1
  1.413  -0.785   0.000   0.000   0.004   0.000   0.000   0.001
 -0.785   0.670  -0.000  -0.000  -0.004  -0.000  -0.000  -0.001
  0.000  -0.000   1.014   0.000   0.003   0.147   0.000   0.001
  0.000  -0.000   0.000   1.014   0.002   0.000   0.147   0.001
  0.004  -0.004   0.003   0.002   1.014   0.001   0.001   0.147
  0.000  -0.000   0.147   0.000   0.001   0.026   0.000   0.000
  0.000  -0.000   0.000   0.147   0.001   0.000   0.026   0.000
  0.001  -0.001   0.001   0.001   0.147   0.000   0.000   0.026


------------------------ aborting loop because EDIFF is reached ----------------------------------------


    CHARGE:  cpu time   29.43: real time   29.45
    FORLOC:  cpu time    0.06: real time    0.06
    FORNL :  cpu time   80.68: real time   80.72
    STRESS:  cpu time  144.27: real time  144.34
    FORHAR:  cpu time    0.12: real time    0.12
    MIXING:  cpu time    0.01: real time    0.02
    OFIELD:  cpu time    0.00: real time    0.00

 ---------------------------------------------------------------------------------------------

         DFTD3 V3.0 Rev 1        
 IVDW         = 12
 DF pbe       
 parameters
 VDW_S6       =    1.0000
 VDW_S8       =    0.7875
 VDW_A1       =    0.4289
 VDW_A2       =    4.4407
 k1-k3        =   16.0000    1.3333   -4.0000
 VDW_RADIUS   =   50.2022 A
 VDW_CNRADIUS =   21.1671 A
 Edisp (eV)   -2.59237

 E6    (eV) :    -1.8431
 E8    (eV) :    -0.7492
 % E8        : 28.90
    FORVDW:  cpu time    0.17: real time    0.17

  FORCE on cell =-STRESS in cart. coord.  units (eV):
  Direction    XX          YY          ZZ          XY          YZ          ZX
  --------------------------------------------------------------------------------------
  Alpha Z   194.24544   194.24544   194.24544
  Ewald    -877.28098  -877.27809  -877.28436     1.32935     0.00878     0.93999
  Hartree    77.04279    77.04512    77.04422     0.23181     0.00128     0.16391
  E(xc)    -230.63361  -230.63362  -230.63364     0.00498     0.00003     0.00352
  Local    -114.89066  -114.89713  -114.89108    -1.39167    -0.00851    -0.98406
  n-local   -42.45483   -42.26445   -42.64471     0.08271    -0.06726    -0.08424
  augment    -4.54242    -4.54243    -4.54243    -0.00049     0.00000    -0.00035
  Kinetic   963.50174   962.25139   964.75062    -0.73246     0.44126     0.55422
  Fock        0.00000     0.00000     0.00000     0.00000     0.00000     0.00000
  vdW        -2.51978    -2.51979    -2.51979    -0.00026     0.00000    -0.00018
  -------------------------------------------------------------------------------------
  Total     -37.53232   -37.53427   -37.53503    -0.03790     0.00107    -0.02680
  in kB    -559.98312  -560.01226  -560.02353    -0.56552     0.01594    -0.39988
  external pressure =     -560.01 kB  Pullay stress =        0.00 kB


 VOLUME and BASIS-vectors are now :
 -----------------------------------------------------------------------------
  energy-cutoff  :      800.00
  volume of cell :      107.38
      direct lattice vectors                 reciprocal lattice vectors
     5.335216059  0.000000000  0.000000000     0.187433834 -0.108214974 -0.076519542
     2.667608029  4.620432642  0.000000000     0.000000000  0.216429949 -0.076519542
     2.667608029  1.540144214  4.356185670     0.000000000  0.000000000  0.229558627

  length of vectors
     5.335216059  5.335216059  5.335216059     0.229558627  0.229558627  0.229558627


 FORCES acting on ions
    electron-ion (+dipol)            ewald-force                    non-local-force                 convergence-correction
 -----------------------------------------------------------------------------------------------
   0.119E+01 0.123E-01 0.871E-02   -.135E+01 -.143E-01 -.101E-01   -.162E+00 -.379E-03 -.268E-03   -.208E-04 -.237E-05 -.168E-05
   -.466E+00 0.218E-03 0.154E-03   0.493E+00 -.833E-06 -.234E-05   0.224E-01 -.199E-03 -.141E-03   0.143E-04 -.161E-05 -.114E-05
   -.559E-01 -.237E+00 -.253E-01   0.434E-01 0.260E+00 0.128E-01   0.125E-01 0.573E-02 0.283E-02   0.247E-05 0.895E-05 -.457E-05
   -.559E-01 0.237E+00 0.253E-01   0.434E-01 -.260E+00 -.128E-01   0.126E-01 -.572E-02 -.291E-02   0.182E-05 -.509E-05 0.210E-05
   -.559E-01 -.103E+00 -.215E+00   0.434E-01 0.986E-01 0.241E+00   0.125E-01 0.458E-02 0.446E-02   0.247E-05 -.132E-05 0.996E-05
   -.559E-01 0.103E+00 0.215E+00   0.434E-01 -.986E-01 -.241E+00   0.126E-01 -.465E-02 -.442E-02   0.182E-05 0.282E-06 -.550E-05
   0.122E+00 -.579E-04 -.409E-04   -.127E+00 -.833E-06 -.234E-05   0.453E-02 0.232E-04 0.164E-04   0.295E-05 -.280E-06 -.198E-06
   -.830E-01 0.838E-05 0.596E-05   0.899E-01 -.833E-06 -.234E-05   -.358E-02 -.535E-06 -.378E-06   -.583E-05 0.609E-06 0.430E-06
   -.541E+00 -.583E+00 -.412E+00   0.619E+00 0.615E+00 0.435E+00   -.285E-02 -.278E-01 -.196E-01   0.252E-05 0.662E-05 0.468E-05
   -.540E+00 0.573E+00 0.405E+00   0.617E+00 -.604E+00 -.427E+00   -.522E-02 0.284E-01 0.201E-01   0.278E-05 -.654E-05 -.463E-05
   0.460E+00 -.472E-02 0.176E-02   -.438E+00 0.467E-02 -.148E-02   0.446E-01 0.175E-03 -.927E-04   -.840E-05 -.324E-07 0.332E-06
   -.173E+00 0.114E-02 -.200E-03   0.162E+00 -.119E-02 0.225E-03   0.541E-02 0.976E-05 0.144E-05   0.475E-05 0.208E-06 -.381E-07
   0.460E+00 0.764E-04 -.503E-02   -.438E+00 0.158E-03 0.490E-02   0.446E-01 -.290E-04 0.196E-03   -.840E-05 0.302E-06 -.141E-06
   -.173E+00 0.185E-03 0.115E-02   0.162E+00 -.186E-03 -.120E-02   0.541E-02 0.462E-05 0.872E-05   0.475E-05 0.336E-07 0.209E-06
   -.169E-01 -.901E-01 -.637E-01   0.172E-01 0.836E-01 0.591E-01   -.179E-02 0.418E-02 0.295E-02   0.127E-05 0.191E-05 0.135E-05
   -.175E-01 0.901E-01 0.637E-01   0.178E-01 -.836E-01 -.591E-01   -.182E-02 -.415E-02 -.294E-02   0.141E-05 -.221E-05 -.156E-05
 -----------------------------------------------------------------------------------------------
   0.713E-05 -.220E-03 -.107E-03   -.102E-14 -.372E-14 -.697E-14   -.120E-04 0.196E-03 0.138E-03   -.967E-07 -.559E-06 -.395E-06
 
 
 POSITION                                       TOTAL-FORCE (eV/Angst)
 -----------------------------------------------------------------------------------
      0.01000      0.00000      0.00000        -0.317083     -0.002332     -0.001649
      2.66761      0.00000      0.00000         0.049839      0.000015      0.000011
      1.33380      2.31022      0.00000         0.000001      0.028729     -0.009668
      4.00141      2.31022      0.00000         0.000033     -0.028797      0.009575
      1.33380      0.77007      2.17809         0.000001      0.000461      0.030308
      4.00141      0.77007      2.17809         0.000033     -0.000571     -0.030341
      2.66761      3.08029      2.17809        -0.000877     -0.000036     -0.000026
      5.33522      3.08029      2.17809         0.003315      0.000007      0.000005
      1.33380      0.77007      0.54452         0.074870      0.004962      0.003508
      4.00141      0.77007      0.54452         0.071140     -0.002741     -0.001938
      2.66761      3.08029      0.54452         0.066355      0.000129      0.000176
      5.33522      3.08029      0.54452        -0.005483     -0.000038      0.000021
      2.66761      1.54014      2.72262         0.066355      0.000209      0.000063
      5.33522      1.54014      2.72262        -0.005483      0.000008     -0.000043
      4.00141      3.85036      2.72262        -0.001515     -0.002298     -0.001625
      6.66902      3.85036      2.72262        -0.001499      0.002293      0.001622
 -----------------------------------------------------------------------------------
    total drift:                               -0.000005     -0.000025      0.000032


--------------------------------------------------------------------------------------------------------



  FREE ENERGIE OF THE ION-ELECTRON SYSTEM (eV)
  ---------------------------------------------------
  free  energy   TOTEN  =      -145.14692054 eV

  energy  without entropy=     -145.14692054  energy(sigma->0) =     -145.14692054
 


--------------------------------------------------------------------------------------------------------


    POTLOK:  cpu time    0.44: real time    0.44


--------------------------------------------------------------------------------------------------------


     LOOP+:  cpu time 6868.02: real time 6871.78
    4ORBIT:  cpu time    0.00: real time    0.00
 BZINTS: Fermi energy:  7.528364; 64.000000 electrons
         Band energy: -34.859003;  BLOECHL correction:  0.000000

 total amount of memory used by VASP on root node  1315625. kBytes
========================================================================

   base      :      30000. kBytes
   nonl-proj :     195631. kBytes
   fftplans  :      17620. kBytes
   grid      :      29360. kBytes
   one-center:         49. kBytes
   wavefun   :    1042965. kBytes
 
  
  
 General timing and accounting informations for this job:
 ========================================================
  
                  Total CPU time used (sec):     6905.889
                            User time (sec):     6307.848
                          System time (sec):      598.041
                         Elapsed time (sec):     6910.010
  
                   Maximum memory used (kb):     1436656.
                   Average memory used (kb):           0.
  
                          Minor page faults:    110668894
                          Major page faults:            4
                 Voluntary context switches:          975
