diamond                                 
           1
     5.335216    0.000000    0.000000
     2.667608    4.620433    0.000000
     2.667608    1.540144    4.356186
   C 
  16
Direct configuration=     1
   0.00187434  0.00000000  0.00000000
   0.50000000  0.00000000  0.00000000
   0.00000000  0.50000000  0.00000000
   0.50000000  0.50000000  0.00000000
   0.00000000  0.00000000  0.50000000
   0.50000000  0.00000000  0.50000000
   0.00000000  0.50000000  0.50000000
   0.50000000  0.50000000  0.50000000
   0.12500000  0.12500000  0.12499999
   0.62500000  0.12500000  0.12499999
   0.12500000  0.62500000  0.12499999
   0.62500000  0.62500000  0.12499999
   0.12500000  0.12500000  0.62499999
   0.62500000  0.12500000  0.62499999
   0.12500000  0.62500000  0.62499999
   0.62500000  0.62500000  0.62499999
