   16   16    1    1
  0.5265935E+02  0.4932875E-09  0.4932875E-09  0.4000000E-08  0.5000000E-15
  1.000000000000000E-004
  CAR 
 graphite                                
     64     76     42
 
  0.0000000E+00  0.0000000E+00  0.0000000E+00  0.6944444E-02
    1      -22.261062
    2      -22.260994
    3      -17.023348
    4      -17.021608
    5      -17.018845
    6      -17.017803
    7      -17.017802
    8      -17.014853
    9      -15.984773
   10      -15.982365
   11      -15.973108
   12      -15.970875
   13      -15.970869
   14      -15.970680
   15      -10.362429
   16      -10.362339
   17       -9.161606
   18       -9.160920
   19       -9.160918
   20       -9.158276
   21       -9.140461
   22       -9.138840
   23       -5.787626
   24       -5.783927
   25       -5.767591
   26       -5.763395
   27       -5.111735
   28       -5.109777
   29       -5.104295
   30       -5.104290
   31       -5.104289
   32       -5.101596
   33       -1.073326
   34       -1.070637
   35       -1.068000
   36       -1.064445
   37       -1.064444
   38       -1.064087
   39        0.522605
   40        0.524965
   41        1.264678
   42        1.319407
 
  0.1666667E+00  0.1387779E-16  0.0000000E+00  0.1388889E-01
    1      -22.096863
    2      -22.096803
    3      -18.278316
    4      -18.278259
    5      -17.417747
    6      -17.417085
    7      -17.413083
    8      -17.412163
    9      -15.321010
   10      -15.319405
   11      -15.308162
   12      -15.307516
   13      -14.468448
   14      -14.467778
   15      -10.166558
   16      -10.166467
   17       -9.646110
   18       -9.645692
   19       -9.626391
   20       -9.624827
   21       -8.998724
   22       -8.997148
   23       -6.424323
   24       -6.421304
   25       -6.119876
   26       -6.117181
   27       -5.947391
   28       -5.946061
   29       -5.217703
   30       -5.215892
   31       -5.211288
   32       -5.210637
   33       -0.797449
   34       -0.795155
   35       -0.789051
   36       -0.788994
   37        0.029058
   38        0.031373
   39        0.745463
   40        0.747774
   41        1.491127
   42        1.545076
 
  0.3333333E+00  0.2775558E-16  0.0000000E+00  0.1388889E-01
    1      -21.606124
    2      -21.606078
    3      -19.674779
    4      -19.674758
    5      -17.832664
    6      -17.832199
    7      -17.829928
    8      -17.829095
    9      -14.152306
   10      -14.150949
   11      -14.138684
   12      -14.138453
   13      -12.367287
   14      -12.366360
   15      -10.791586
   16      -10.791363
   17      -10.774830
   18      -10.773332
   19       -9.584226
   20       -9.584067
   21       -8.526022
   22       -8.524308
   23       -8.063023
   24       -8.060855
   25       -7.368011
   26       -7.367322
   27       -6.912933
   28       -6.910556
   29       -5.404029
   30       -5.402409
   31       -5.399886
   32       -5.399372
   33       -0.232001
   34       -0.230606
   35       -0.226076
   36       -0.225286
   37        1.413680
   38        1.415831
   39        2.161449
   40        2.163078
   41        2.169361
   42        2.220728
 
  0.5000000E+00  0.0000000E+00  0.0000000E+00  0.6944444E-02
    1      -20.796602
    2      -20.794618
    3      -20.794618
    4      -20.792599
    5      -17.979693
    6      -17.978644
    7      -17.978643
    8      -17.977201
    9      -13.271789
   10      -13.271353
   11      -13.271353
   12      -13.268835
   13      -11.691403
   14      -11.689531
   15      -11.689369
   16      -11.689368
   17      -10.164747
   18      -10.161236
   19      -10.161236
   20      -10.160528
   21       -8.635995
   22       -8.634615
   23       -8.634614
   24       -8.632584
   25       -7.794295
   26       -7.792793
   27       -7.792792
   28       -7.787312
   29       -5.487230
   30       -5.485089
   31       -5.485088
   32       -5.484021
   33        0.067364
   34        0.067970
   35        0.067970
   36        0.070812
   37        2.525310
   38        2.525500
   39        2.527231
   40        2.527396
   41        3.286756
   42        3.286842
 
  0.0000000E+00  0.1666667E+00  0.0000000E+00  0.1388889E-01
    1      -22.096863
    2      -22.096798
    3      -18.278264
    4      -18.278037
    5      -17.418064
    6      -17.417086
    7      -17.413082
    8      -17.412392
    9      -15.321010
   10      -15.319588
   11      -15.307809
   12      -15.307516
   13      -14.468277
   14      -14.467778
   15      -10.166558
   16      -10.166479
   17       -9.646110
   18       -9.644769
   19       -9.626456
   20       -9.624827
   21       -8.998723
   22       -8.998167
   23       -6.422115
   24       -6.421305
   25       -6.119876
   26       -6.119511
   27       -5.947391
   28       -5.946845
   29       -5.217484
   30       -5.215892
   31       -5.211289
   32       -5.209595
   33       -0.797449
   34       -0.795643
   35       -0.790788
   36       -0.788993
   37        0.030713
   38        0.031373
   39        0.745464
   40        0.747775
   41        1.491126
   42        1.545075
 
  0.1666667E+00  0.1666667E+00  0.0000000E+00  0.1388889E-01
    1      -21.769153
    2      -21.769103
    3      -18.894204
    4      -18.892182
    5      -18.892182
    6      -18.890000
    7      -16.600335
    8      -16.599159
    9      -15.586084
   10      -15.583433
   11      -13.368745
   12      -13.365935
   13      -13.365935
   14      -13.364084
   15      -10.959309
   16      -10.957809
   17       -9.777118
   18       -9.776979
   19       -9.319175
   20       -9.318157
   21       -9.318156
   22       -9.315388
   23       -7.456303
   24       -7.452776
   25       -6.801143
   26       -6.797818
   27       -6.519896
   28       -6.518798
   29       -6.518797
   30       -6.516552
   31       -4.513828
   32       -4.511982
   33       -1.298212
   34       -1.295485
   35        0.973098
   36        0.976631
   37        0.976632
   38        0.977448
   39        1.191888
   40        1.194311
   41        1.943869
   42        1.996164
 
  0.3333333E+00  0.1666667E+00  0.0000000E+00  0.1388889E-01
    1      -21.117810
    2      -21.117787
    3      -20.153314
    4      -20.153297
    5      -19.206094
    6      -19.205915
    7      -16.557489
    8      -16.557302
    9      -14.697474
   10      -14.695820
   11      -12.392784
   12      -12.391455
   13      -12.228714
   14      -12.228367
   15      -11.242911
   16      -11.242176
   17      -10.214020
   18      -10.213648
   19       -9.169865
   20       -9.167195
   21       -9.009757
   22       -9.009441
   23       -8.683115
   24       -8.681840
   25       -7.896461
   26       -7.896222
   27       -7.796832
   28       -7.793709
   29       -6.824775
   30       -6.824701
   31       -4.104066
   32       -4.102548
   33       -1.450658
   34       -1.448585
   35        1.681890
   36        1.682066
   37        2.082807
   38        2.084814
   39        2.846176
   40        2.894572
   41        3.170847
   42        3.172491
 
  0.5000000E+00  0.1666667E+00  0.0000000E+00  0.1388889E-01
    1      -21.118996
    2      -21.118951
    3      -20.151675
    4      -20.151668
    5      -19.207172
    6      -19.207002
    7      -16.556484
    8      -16.556078
    9      -14.687085
   10      -14.686715
   11      -12.403859
   12      -12.403655
   13      -12.240900
   14      -12.239209
   15      -11.245095
   16      -11.243560
   17      -10.200990
   18      -10.199127
   19       -9.170878
   20       -9.170235
   21       -9.010863
   22       -9.010656
   23       -8.681991
   24       -8.679816
   25       -7.895023
   26       -7.894633
   27       -7.794008
   28       -7.793055
   29       -6.826075
   30       -6.825780
   31       -4.101143
   32       -4.100682
   33       -1.448648
   34       -1.448093
   35        1.678037
   36        1.678848
   37        2.081288
   38        2.083294
   39        2.844681
   40        2.893090
   41        3.170307
   42        3.172677
 
 -0.3333333E+00  0.1666667E+00  0.0000000E+00  0.1388889E-01
    1      -21.769878
    2      -21.769812
    3      -18.895412
    4      -18.895273
    5      -18.890185
    6      -18.890148
    7      -16.596138
    8      -16.595070
    9      -15.574313
   10      -15.572931
   11      -13.380650
   12      -13.379173
   13      -13.369394
   14      -13.368459
   15      -10.976253
   16      -10.975644
   17       -9.777812
   18       -9.777736
   19       -9.316743
   20       -9.315030
   21       -9.298772
   22       -9.296962
   23       -7.467231
   24       -7.466381
   25       -6.788106
   26       -6.786858
   27       -6.522314
   28       -6.521910
   29       -6.517231
   30       -6.516170
   31       -4.507243
   32       -4.506924
   33       -1.293504
   34       -1.292956
   35        0.968098
   36        0.969056
   37        0.973260
   38        0.975770
   39        1.190983
   40        1.193394
   41        1.942963
   42        1.995263
 
 -0.1666667E+00  0.1666667E+00  0.0000000E+00  0.1388889E-01
    1      -22.097102
    2      -22.097032
    3      -18.283377
    4      -18.283332
    5      -17.412192
    6      -17.410949
    7      -17.410948
    8      -17.409216
    9      -15.311671
   10      -15.309871
   11      -15.309869
   12      -15.309574
   13      -14.480590
   14      -14.479116
   15      -10.166787
   16      -10.166730
   17       -9.646040
   18       -9.645555
   19       -9.645554
   20       -9.642977
   21       -8.978645
   22       -8.976847
   23       -6.439451
   24       -6.436125
   25       -6.105527
   26       -6.101660
   27       -5.952886
   28       -5.952162
   29       -5.210677
   30       -5.210317
   31       -5.210316
   32       -5.207822
   33       -0.793434
   34       -0.789787
   35       -0.789786
   36       -0.789621
   37        0.022221
   38        0.024117
   39        0.745163
   40        0.747473
   41        1.490823
   42        1.544774
 
  0.0000000E+00  0.3333333E+00  0.0000000E+00  0.1388889E-01
    1      -21.606123
    2      -21.606054
    3      -19.674759
    4      -19.674653
    5      -17.833400
    6      -17.832199
    7      -17.829928
    8      -17.828805
    9      -14.152307
   10      -14.151136
   11      -14.138460
   12      -14.138389
   13      -12.366787
   14      -12.366359
   15      -10.791585
   16      -10.790734
   17      -10.774799
   18      -10.773332
   19       -9.584226
   20       -9.584121
   21       -8.526023
   22       -8.525472
   23       -8.061536
   24       -8.060855
   25       -7.368011
   26       -7.367664
   27       -6.912932
   28       -6.912376
   29       -5.403961
   30       -5.402409
   31       -5.399886
   32       -5.398334
   33       -0.232134
   34       -0.232001
   35       -0.226076
   36       -0.226006
   37        1.413684
   38        1.415835
   39        2.162570
   40        2.163078
   41        2.169354
   42        2.220724
 
  0.1666667E+00  0.3333333E+00  0.0000000E+00  0.1388889E-01
    1      -21.117810
    2      -21.117765
    3      -20.153314
    4      -20.153196
    5      -19.206095
    6      -19.206070
    7      -16.557735
    8      -16.557303
    9      -14.697474
   10      -14.695557
   11      -12.392767
   12      -12.391454
   13      -12.228769
   14      -12.228712
   15      -11.242226
   16      -11.242175
   17      -10.213648
   18      -10.213218
   19       -9.169090
   20       -9.167195
   21       -9.009757
   22       -9.009486
   23       -8.683115
   24       -8.683006
   25       -7.896492
   26       -7.896452
   27       -7.796832
   28       -7.794734
   29       -6.824705
   30       -6.824386
   31       -4.103573
   32       -4.102548
   33       -1.450658
   34       -1.449312
   35        1.680838
   36        1.681891
   37        2.082811
   38        2.084818
   39        2.846173
   40        2.894568
   41        3.171903
   42        3.172491
 
  0.3333333E+00  0.3333333E+00  0.0000000E+00  0.1388889E-01
    1      -20.316905
    2      -20.314557
    3      -20.314557
    4      -20.313366
    5      -20.311749
    6      -20.310377
    7      -15.339496
    8      -15.338055
    9      -15.337082
   10      -15.335482
   11      -13.293642
   12      -13.293479
   13      -10.509256
   14      -10.507825
   15      -10.507824
   16      -10.504734
   17      -10.500983
   18      -10.499537
   19       -9.159201
   20       -9.157581
   21       -9.152762
   22       -9.149301
   23       -9.149301
   24       -9.147354
   25       -8.077798
   26       -8.075889
   27       -8.075889
   28       -8.074799
   29       -8.073355
   30       -8.071999
   31       -2.750007
   32       -2.748054
   33       -2.744566
   34       -2.742747
   35        3.189839
   36        3.191764
   37        3.192981
   38        3.193604
   39        3.195163
   40        3.196921
   41        3.625562
   42        3.626794
 
  0.5000000E+00  0.3333333E+00  0.0000000E+00  0.1388889E-01
    1      -21.119698
    2      -21.119621
    3      -20.155131
    4      -20.154984
    5      -19.202441
    6      -19.202432
    7      -16.550790
    8      -16.550320
    9      -14.692190
   10      -14.690910
   11      -12.405332
   12      -12.404189
   13      -12.231935
   14      -12.230191
   15      -11.258056
   16      -11.256205
   17      -10.214768
   18      -10.212483
   19       -9.183619
   20       -9.181660
   21       -9.011543
   22       -9.011463
   23       -8.665445
   24       -8.663268
   25       -7.898483
   26       -7.898212
   27       -7.781238
   28       -7.779144
   29       -6.821675
   30       -6.820952
   31       -4.097563
   32       -4.096724
   33       -1.451558
   34       -1.450204
   35        1.679757
   36        1.682133
   37        2.080395
   38        2.082401
   39        2.843754
   40        2.892163
   41        3.165558
   42        3.165799
 
 -0.3333333E+00  0.3333333E+00  0.0000000E+00  0.1388889E-01
    1      -21.607075
    2      -21.606988
    3      -19.678369
    4      -19.678237
    5      -17.826845
    6      -17.825652
    7      -17.825652
    8      -17.824274
    9      -14.144981
   10      -14.142881
   11      -14.142880
   12      -14.142591
   13      -12.381223
   14      -12.379614
   15      -10.790837
   16      -10.790825
   17      -10.790809
   18      -10.788277
   19       -9.585144
   20       -9.585128
   21       -8.506761
   22       -8.504733
   23       -8.079092
   24       -8.076448
   25       -7.371596
   26       -7.371385
   27       -6.896659
   28       -6.893598
   29       -5.397598
   30       -5.397037
   31       -5.397037
   32       -5.394674
   33       -0.231368
   34       -0.227571
   35       -0.227570
   36       -0.227431
   37        1.412482
   38        1.414633
   39        2.154039
   40        2.155206
   41        2.168144
   42        2.219517
 
 -0.1666667E+00  0.3333333E+00  0.0000000E+00  0.1388889E-01
    1      -21.769877
    2      -21.769795
    3      -18.896070
    4      -18.895410
    5      -18.890148
    6      -18.889299
    7      -16.596137
    8      -16.595828
    9      -15.573884
   10      -15.572932
   11      -13.380650
   12      -13.379624
   13      -13.368517
   14      -13.368459
   15      -10.976253
   16      -10.975022
   17       -9.777813
   18       -9.777773
   19       -9.316743
   20       -9.316164
   21       -9.298594
   22       -9.296961
   23       -7.467231
   24       -7.464687
   25       -6.789998
   26       -6.786858
   27       -6.522585
   28       -6.521910
   29       -6.517231
   30       -6.516214
   31       -4.507243
   32       -4.505578
   33       -1.295584
   34       -1.292955
   35        0.968098
   36        0.968603
   37        0.974500
   38        0.975769
   39        1.190986
   40        1.193401
   41        1.942961
   42        1.995261
 
  0.0000000E+00  0.5000000E+00  0.0000000E+00  0.6944444E-02
    1      -20.794620
    2      -20.794618
    3      -20.794588
    4      -20.794493
    5      -17.980665
    6      -17.978644
    7      -17.978643
    8      -17.976656
    9      -13.273173
   10      -13.271353
   11      -13.271353
   12      -13.267403
   13      -11.691134
   14      -11.689369
   15      -11.689368
   16      -11.689168
   17      -10.161802
   18      -10.161674
   19      -10.161236
   20      -10.161236
   21       -8.634615
   22       -8.634615
   23       -8.634460
   24       -8.634412
   25       -7.792793
   26       -7.792792
   27       -7.792269
   28       -7.792168
   29       -5.487297
   30       -5.485089
   31       -5.485088
   32       -5.482907
   33        0.064969
   34        0.067971
   35        0.067971
   36        0.070898
   37        2.525374
   38        2.525465
   39        2.527280
   40        2.527361
   41        3.286777
   42        3.286793
 
  0.1666667E+00  0.5000000E+00  0.0000000E+00  0.1388889E-01
    1      -21.118996
    2      -21.118899
    3      -20.151670
    4      -20.151619
    5      -19.207172
    6      -19.207107
    7      -16.556533
    8      -16.556479
    9      -14.686836
   10      -14.686713
   11      -12.403859
   12      -12.403322
   13      -12.240901
   14      -12.239237
   15      -11.244451
   16      -11.243560
   17      -10.200777
   18      -10.199127
   19       -9.170235
   20       -9.169602
   21       -9.010863
   22       -9.010765
   23       -8.681991
   24       -8.680860
   25       -7.895023
   26       -7.894801
   27       -7.794710
   28       -7.794008
   29       -6.825829
   30       -6.825778
   31       -4.100682
   32       -4.099990
   33       -1.449782
   34       -1.448647
   35        1.678037
   36        1.678044
   37        2.081293
   38        2.083299
   39        2.844676
   40        2.893084
   41        3.170918
   42        3.172680
 
  0.3333333E+00  0.5000000E+00  0.0000000E+00  0.1388889E-01
    1      -21.119698
    2      -21.119590
    3      -20.155131
    4      -20.155031
    5      -19.202433
    6      -19.202390
    7      -16.550790
    8      -16.550525
    9      -14.692200
   10      -14.690910
   11      -12.405332
   12      -12.403873
   13      -12.231565
   14      -12.230191
   15      -11.258056
   16      -11.256245
   17      -10.214768
   18      -10.213069
   19       -9.183619
   20       -9.181168
   21       -9.011544
   22       -9.011526
   23       -8.665325
   24       -8.663268
   25       -7.898391
   26       -7.898212
   27       -7.781860
   28       -7.779144
   29       -6.821675
   30       -6.821089
   31       -4.097563
   32       -4.096063
   33       -1.452521
   34       -1.450204
   35        1.680179
   36        1.682133
   37        2.080396
   38        2.082402
   39        2.843752
   40        2.892160
   41        3.165378
   42        3.165559
 
  0.5000000E+00  0.5000000E+00  0.0000000E+00  0.6944444E-02
    1      -20.798602
    2      -20.796716
    3      -20.796716
    4      -20.794603
    5      -17.974049
    6      -17.972867
    7      -17.972867
    8      -17.971565
    9      -13.271587
   10      -13.268683
   11      -13.268286
   12      -13.268285
   13      -11.698203
   14      -11.698203
   15      -11.697004
   16      -11.694965
   17      -10.178353
   18      -10.178165
   19      -10.178165
   20      -10.173890
   21       -8.638344
   22       -8.636617
   23       -8.636617
   24       -8.635015
   25       -7.778244
   26       -7.772399
   27       -7.772399
   28       -7.771405
   29       -5.481268
   30       -5.480636
   31       -5.480635
   32       -5.478319
   33        0.064499
   34        0.068406
   35        0.068407
   36        0.068510
   37        2.522638
   38        2.522842
   39        2.524562
   40        2.524738
   41        3.283927
   42        3.283990
 
  0.0000000E+00  0.0000000E+00  0.2500000E+00  0.1388889E-01
    1      -22.261067
    2      -22.261000
    3      -17.023344
    4      -17.021604
    5      -17.018844
    6      -17.017802
    7      -17.017801
    8      -17.014852
    9      -15.984755
   10      -15.982347
   11      -15.973097
   12      -15.970864
   13      -15.970859
   14      -15.970671
   15      -10.362437
   16      -10.362351
   17       -9.161579
   18       -9.160895
   19       -9.160895
   20       -9.158251
   21       -9.140440
   22       -9.138819
   23       -5.787634
   24       -5.783935
   25       -5.767591
   26       -5.763395
   27       -5.111731
   28       -5.109773
   29       -5.104300
   30       -5.104288
   31       -5.104280
   32       -5.101594
   33       -1.073322
   34       -1.070634
   35       -1.067996
   36       -1.064441
   37       -1.064441
   38       -1.064084
   39        0.522947
   40        0.524617
   41        1.271357
   42        1.309640
 
  0.1666667E+00  0.1387779E-16  0.2500000E+00  0.1388889E-01
    1      -22.096867
    2      -22.096807
    3      -18.278316
    4      -18.278260
    5      -17.417749
    6      -17.417089
    7      -17.413070
    8      -17.412152
    9      -15.321028
   10      -15.319423
   11      -15.308171
   12      -15.307524
   13      -14.468439
   14      -14.467770
   15      -10.166568
   16      -10.166478
   17       -9.646112
   18       -9.645694
   19       -9.626401
   20       -9.624837
   21       -8.998720
   22       -8.997145
   23       -6.424319
   24       -6.421301
   25       -6.119884
   26       -6.117189
   27       -5.947385
   28       -5.946056
   29       -5.217709
   30       -5.215898
   31       -5.211293
   32       -5.210642
   33       -0.797451
   34       -0.795157
   35       -0.789055
   36       -0.788997
   37        0.029058
   38        0.031373
   39        0.745796
   40        0.747435
   41        1.497729
   42        1.535477
 
  0.3333333E+00  0.2775558E-16  0.2500000E+00  0.1388889E-01
    1      -21.606118
    2      -21.606075
    3      -19.674780
    4      -19.674760
    5      -17.832659
    6      -17.832195
    7      -17.829917
    8      -17.829085
    9      -14.152310
   10      -14.150953
   11      -14.138678
   12      -14.138449
   13      -12.367294
   14      -12.366368
   15      -10.791575
   16      -10.791354
   17      -10.774815
   18      -10.773318
   19       -9.584218
   20       -9.584059
   21       -8.526019
   22       -8.524305
   23       -8.063032
   24       -8.060864
   25       -7.368010
   26       -7.367322
   27       -6.912929
   28       -6.910552
   29       -5.404030
   30       -5.402411
   31       -5.399886
   32       -5.399371
   33       -0.232000
   34       -0.230605
   35       -0.226074
   36       -0.225284
   37        1.413991
   38        1.415514
   39        2.161447
   40        2.163075
   41        2.175701
   42        2.211684
 
  0.5000000E+00  0.0000000E+00  0.2500000E+00  0.1388889E-01
    1      -20.796604
    2      -20.794620
    3      -20.794620
    4      -20.792602
    5      -17.979682
    6      -17.978633
    7      -17.978632
    8      -17.977191
    9      -13.271776
   10      -13.271340
   11      -13.271340
   12      -13.268822
   13      -11.691396
   14      -11.689525
   15      -11.689362
   16      -11.689360
   17      -10.164759
   18      -10.161249
   19      -10.161248
   20      -10.160540
   21       -8.635997
   22       -8.634616
   23       -8.634616
   24       -8.632586
   25       -7.794286
   26       -7.792784
   27       -7.792784
   28       -7.787303
   29       -5.487228
   30       -5.485087
   31       -5.485087
   32       -5.484020
   33        0.067366
   34        0.067973
   35        0.067973
   36        0.070815
   37        2.525579
   38        2.525776
   39        2.526958
   40        2.527116
   41        3.292355
   42        3.292493
 
 -0.3333333E+00 -0.2775558E-16  0.2500000E+00  0.1388889E-01
    1      -21.606118
    2      -21.606075
    3      -19.674780
    4      -19.674760
    5      -17.832659
    6      -17.832195
    7      -17.829917
    8      -17.829085
    9      -14.152310
   10      -14.150953
   11      -14.138678
   12      -14.138449
   13      -12.367294
   14      -12.366368
   15      -10.791575
   16      -10.791354
   17      -10.774815
   18      -10.773318
   19       -9.584218
   20       -9.584059
   21       -8.526019
   22       -8.524305
   23       -8.063032
   24       -8.060864
   25       -7.368010
   26       -7.367322
   27       -6.912929
   28       -6.910552
   29       -5.404030
   30       -5.402411
   31       -5.399886
   32       -5.399371
   33       -0.232000
   34       -0.230605
   35       -0.226074
   36       -0.225284
   37        1.413991
   38        1.415515
   39        2.161441
   40        2.163075
   41        2.175706
   42        2.211685
 
 -0.1666667E+00 -0.1387779E-16  0.2500000E+00  0.1388889E-01
    1      -22.096867
    2      -22.096807
    3      -18.278316
    4      -18.278260
    5      -17.417749
    6      -17.417089
    7      -17.413070
    8      -17.412152
    9      -15.321028
   10      -15.319423
   11      -15.308171
   12      -15.307524
   13      -14.468439
   14      -14.467770
   15      -10.166568
   16      -10.166478
   17       -9.646112
   18       -9.645694
   19       -9.626401
   20       -9.624837
   21       -8.998720
   22       -8.997144
   23       -6.424319
   24       -6.421301
   25       -6.119884
   26       -6.117189
   27       -5.947385
   28       -5.946056
   29       -5.217709
   30       -5.215898
   31       -5.211293
   32       -5.210642
   33       -0.797451
   34       -0.795157
   35       -0.789055
   36       -0.788997
   37        0.029058
   38        0.031373
   39        0.745796
   40        0.747435
   41        1.497728
   42        1.535477
 
  0.0000000E+00  0.1666667E+00  0.2500000E+00  0.1388889E-01
    1      -22.096867
    2      -22.096801
    3      -18.278265
    4      -18.278037
    5      -17.418065
    6      -17.417089
    7      -17.413070
    8      -17.412381
    9      -15.321028
   10      -15.319605
   11      -15.307818
   12      -15.307525
   13      -14.468268
   14      -14.467770
   15      -10.166568
   16      -10.166490
   17       -9.646113
   18       -9.644771
   19       -9.626467
   20       -9.624837
   21       -8.998719
   22       -8.998163
   23       -6.422111
   24       -6.421301
   25       -6.119884
   26       -6.119519
   27       -5.947385
   28       -5.946839
   29       -5.217490
   30       -5.215898
   31       -5.211294
   32       -5.209600
   33       -0.797451
   34       -0.795645
   35       -0.790791
   36       -0.788996
   37        0.030713
   38        0.031372
   39        0.745797
   40        0.747436
   41        1.497728
   42        1.535477
 
  0.1666667E+00  0.1666667E+00  0.2500000E+00  0.1388889E-01
    1      -21.769155
    2      -21.769105
    3      -18.894220
    4      -18.892199
    5      -18.892198
    6      -18.890016
    7      -16.600333
    8      -16.599157
    9      -15.586081
   10      -15.583430
   11      -13.368745
   12      -13.365935
   13      -13.365935
   14      -13.364084
   15      -10.959298
   16      -10.957798
   17       -9.777116
   18       -9.776978
   19       -9.319165
   20       -9.318147
   21       -9.318147
   22       -9.315379
   23       -7.456294
   24       -7.452767
   25       -6.801145
   26       -6.797820
   27       -6.519893
   28       -6.518794
   29       -6.518794
   30       -6.516548
   31       -4.513822
   32       -4.511977
   33       -1.298209
   34       -1.295482
   35        0.973098
   36        0.976631
   37        0.976631
   38        0.977448
   39        1.192168
   40        1.194026
   41        1.950304
   42        1.986922
 
  0.3333333E+00  0.1666667E+00  0.2500000E+00  0.1388889E-01
    1      -21.117807
    2      -21.117784
    3      -20.153308
    4      -20.153290
    5      -19.206095
    6      -19.205916
    7      -16.557491
    8      -16.557306
    9      -14.697475
   10      -14.695821
   11      -12.392796
   12      -12.391467
   13      -12.228722
   14      -12.228375
   15      -11.242910
   16      -11.242174
   17      -10.214021
   18      -10.213648
   19       -9.169866
   20       -9.167197
   21       -9.009755
   22       -9.009439
   23       -8.683106
   24       -8.681830
   25       -7.896458
   26       -7.896221
   27       -7.796823
   28       -7.793700
   29       -6.824779
   30       -6.824709
   31       -4.104062
   32       -4.102544
   33       -1.450661
   34       -1.448588
   35        1.681890
   36        1.682066
   37        2.083098
   38        2.084519
   39        2.852219
   40        2.886149
   41        3.170827
   42        3.172492
 
  0.5000000E+00  0.1666667E+00  0.2500000E+00  0.1388889E-01
    1      -21.118995
    2      -21.118951
    3      -20.151669
    4      -20.151665
    5      -19.207173
    6      -19.207004
    7      -16.556479
    8      -16.556074
    9      -14.687079
   10      -14.686711
   11      -12.403848
   12      -12.403645
   13      -12.240906
   14      -12.239215
   15      -11.245088
   16      -11.243553
   17      -10.200992
   18      -10.199129
   19       -9.170880
   20       -9.170236
   21       -9.010861
   22       -9.010654
   23       -8.681990
   24       -8.679815
   25       -7.895019
   26       -7.894631
   27       -7.794004
   28       -7.793051
   29       -6.826077
   30       -6.825782
   31       -4.101138
   32       -4.100677
   33       -1.448648
   34       -1.448093
   35        1.678038
   36        1.678849
   37        2.081579
   38        2.082999
   39        2.850716
   40        2.884677
   41        3.170279
   42        3.172678
 
 -0.3333333E+00  0.1666667E+00  0.2500000E+00  0.1388889E-01
    1      -21.769874
    2      -21.769809
    3      -18.895409
    4      -18.895272
    5      -18.890180
    6      -18.890142