  32  32   0   0
  0.9341735E+01  0.4932875E-09  0.4932875E-09  0.1419195E-08  0.5000000E-15
  1.000000000000000E-004
  CAR 
 graphite                                
     14.52122174    -17.38717570  301      4.19779181      1.00000000
    -17.387  0.0000E+00  0.0000E+00
    -17.281  0.0000E+00  0.0000E+00
    -17.174  0.0000E+00  0.0000E+00
    -17.068  0.0000E+00  0.0000E+00
    -16.962  0.0000E+00  0.0000E+00
    -16.855  0.0000E+00  0.0000E+00
    -16.749  0.0000E+00  0.0000E+00
    -16.643  0.0000E+00  0.0000E+00
    -16.536  0.0000E+00  0.0000E+00
    -16.430  0.0000E+00  0.0000E+00
    -16.324  0.0000E+00  0.0000E+00
    -16.217  0.0000E+00  0.0000E+00
    -16.111  0.0000E+00  0.0000E+00
    -16.004  0.0000E+00  0.0000E+00
    -15.898  0.0000E+00  0.0000E+00
    -15.792  0.0000E+00  0.0000E+00
    -15.685  0.0000E+00  0.0000E+00
    -15.579  0.0000E+00  0.0000E+00
    -15.473  0.0000E+00  0.0000E+00
    -15.366  0.1360E+00  0.1073E-02
    -15.260  0.2368E+01  0.1163E+00
    -15.154  0.4344E+01  0.4888E+00
    -15.047  0.5025E+01  0.1012E+01
    -14.941  0.4852E+01  0.1511E+01
    -14.835  0.5165E+01  0.2047E+01
    -14.728  0.5046E+01  0.2594E+01
    -14.622  0.4781E+01  0.3115E+01
    -14.515  0.4831E+01  0.3622E+01
    -14.409  0.5044E+01  0.4147E+01
    -14.303  0.5258E+01  0.4695E+01
    -14.196  0.6991E+01  0.5309E+01
    -14.090  0.8180E+01  0.6123E+01
    -13.984  0.6417E+01  0.6984E+01
    -13.877  0.2667E+01  0.7452E+01
    -13.771  0.1892E+01  0.7677E+01
    -13.665  0.2158E+01  0.7889E+01
    -13.558  0.2510E+01  0.8137E+01
    -13.452  0.2861E+01  0.8423E+01
    -13.345  0.5623E+01  0.8795E+01
    -13.239  0.1048E+02  0.9878E+01
    -13.133  0.7539E+01  0.1087E+02
    -13.026  0.3974E+01  0.1137E+02
    -12.920  0.4070E+01  0.1179E+02
    -12.814  0.4166E+01  0.1223E+02
    -12.707  0.4281E+01  0.1268E+02
    -12.601  0.4409E+01  0.1314E+02
    -12.495  0.4531E+01  0.1362E+02
    -12.388  0.4654E+01  0.1411E+02
    -12.282  0.5256E+01  0.1462E+02
    -12.175  0.6234E+01  0.1522E+02
    -12.069  0.6268E+01  0.1592E+02
    -11.963  0.5701E+01  0.1655E+02
    -11.856  0.5363E+01  0.1714E+02
    -11.750  0.5515E+01  0.1771E+02
    -11.644  0.5677E+01  0.1831E+02
    -11.537  0.5839E+01  0.1892E+02
    -11.431  0.6001E+01  0.1955E+02
    -11.325  0.5670E+01  0.2018E+02
    -11.218  0.5280E+01  0.2076E+02
    -11.112  0.5329E+01  0.2133E+02
    -11.005  0.4726E+01  0.2188E+02
    -10.899  0.4264E+01  0.2234E+02
    -10.793  0.4980E+01  0.2283E+02
    -10.686  0.5156E+01  0.2337E+02
    -10.580  0.5331E+01  0.2393E+02
    -10.474  0.6882E+01  0.2453E+02
    -10.367  0.1189E+02  0.2550E+02
    -10.261  0.9624E+01  0.2665E+02
    -10.155  0.7362E+01  0.2755E+02
    -10.048  0.5173E+01  0.2821E+02
     -9.942  0.4467E+01  0.2872E+02
     -9.836  0.4025E+01  0.2917E+02
     -9.729  0.3584E+01  0.2957E+02
     -9.623  0.7784E+01  0.3015E+02
     -9.516  0.2102E+01  0.3081E+02
     -9.410  0.1904E+01  0.3103E+02
     -9.304  0.1705E+01  0.3122E+02
     -9.197  0.1507E+01  0.3139E+02
     -9.091  0.1309E+01  0.3154E+02
     -8.985  0.1304E+01  0.3167E+02
     -8.878  0.1798E+01  0.3184E+02
     -8.772  0.2294E+01  0.3205E+02
     -8.666  0.2790E+01  0.3233E+02
     -8.559  0.5044E+01  0.3270E+02
     -8.453  0.9476E+01  0.3347E+02
     -8.346  0.5273E+01  0.3447E+02
     -8.240  0.5056E+01  0.3499E+02
     -8.134  0.6174E+01  0.3558E+02
     -8.027  0.7291E+01  0.3630E+02
     -7.921  0.8408E+01  0.3713E+02
     -7.815  0.9526E+01  0.3809E+02
     -7.708  0.7364E+01  0.3906E+02
     -7.602  0.5558E+01  0.3968E+02
     -7.496  0.5591E+01  0.4027E+02
     -7.389  0.5596E+01  0.4087E+02
     -7.283  0.5449E+01  0.4146E+02
     -7.176  0.5288E+01  0.4203E+02
     -7.070  0.5146E+01  0.4258E+02
     -6.964  0.5028E+01  0.4312E+02
     -6.857  0.4909E+01  0.4365E+02
     -6.751  0.4791E+01  0.4417E+02
     -6.645  0.4673E+01  0.4467E+02
     -6.538  0.4554E+01  0.4516E+02
     -6.432  0.4436E+01  0.4564E+02
     -6.326  0.4421E+01  0.4611E+02
     -6.219  0.5032E+01  0.4661E+02
     -6.113  0.5604E+01  0.4718E+02
     -6.007  0.6176E+01  0.4780E+02
     -5.900  0.6749E+01  0.4849E+02
     -5.794  0.7321E+01  0.4924E+02
     -5.687  0.7893E+01  0.5005E+02
     -5.581  0.8466E+01  0.5092E+02
     -5.475  0.9038E+01  0.5185E+02
     -5.368  0.3847E+01  0.5247E+02
     -5.262  0.6367E+01  0.5298E+02
     -5.156  0.6651E+01  0.5373E+02
     -5.049  0.5246E+01  0.5437E+02
     -4.943  0.3841E+01  0.5485E+02
     -4.837  0.2435E+01  0.5518E+02
     -4.730  0.1082E+01  0.5537E+02
     -4.624  0.2224E+01  0.5553E+02
     -4.517  0.3638E+01  0.5584E+02
     -4.411  0.5052E+01  0.5631E+02
     -4.305  0.7458E+01  0.5692E+02
     -4.198  0.1142E+02  0.5802E+02
     -4.092  0.1054E+02  0.5919E+02
     -3.986  0.1084E+02  0.6030E+02
     -3.879  0.1083E+02  0.6148E+02
     -3.773  0.5395E+01  0.6223E+02
     -3.667  0.5640E+01  0.6280E+02
     -3.560  0.6473E+01  0.6345E+02
     -3.454  0.1019E+02  0.6428E+02
     -3.347  0.1535E+02  0.6564E+02
     -3.241  0.2864E+02  0.6772E+02
     -3.135  0.6540E+01  0.6901E+02
     -3.028  0.6677E+01  0.6971E+02
     -2.922  0.7002E+01  0.7043E+02
     -2.816  0.7570E+01  0.7120E+02
     -2.709  0.9306E+01  0.7209E+02
     -2.603  0.1688E+02  0.7368E+02
     -2.497  0.1448E+02  0.7534E+02
     -2.390  0.1181E+02  0.7679E+02
     -2.284  0.1563E+02  0.7805E+02
     -2.178  0.1572E+02  0.8128E+02
     -2.071  0.2053E+02  0.8308E+02
     -1.965  0.1249E+02  0.8495E+02
     -1.858  0.1392E+02  0.8635E+02
     -1.752  0.1498E+02  0.8792E+02
     -1.646  0.9235E+01  0.8924E+02
     -1.539  0.6467E+01  0.9006E+02
     -1.433  0.8250E+01  0.9084E+02
     -1.327  0.8375E+01  0.9174E+02
     -1.220  0.9248E+01  0.9268E+02
     -1.114  0.9845E+01  0.9370E+02
     -1.008  0.9541E+01  0.9473E+02
     -0.901  0.1100E+02  0.9581E+02
     -0.795  0.1191E+02  0.9761E+02
     -0.688  0.1119E+02  0.9886E+02
     -0.582  0.1154E+02  0.1001E+03
     -0.476  0.1177E+02  0.1013E+03
     -0.369  0.1036E+02  0.1025E+03
     -0.263  0.1008E+02  0.1036E+03
     -0.157  0.9822E+01  0.1046E+03
     -0.050  0.9589E+01  0.1057E+03
      0.056  0.9503E+01  0.1067E+03
      0.162  0.9544E+01  0.1077E+03
      0.269  0.9154E+01  0.1087E+03
      0.375  0.8992E+01  0.1097E+03
      0.482  0.9019E+01  0.1106E+03
      0.588  0.9787E+01  0.1116E+03
      0.694  0.9843E+01  0.1126E+03
      0.801  0.1020E+02  0.1137E+03
      0.907  0.1064E+02  0.1148E+03
      1.013  0.9612E+01  0.1159E+03
      1.120  0.8169E+01  0.1169E+03
      1.226  0.6668E+01  0.1177E+03
      1.332  0.5609E+01  0.1183E+03
      1.439  0.5010E+01  0.1189E+03
      1.545  0.4008E+01  0.1194E+03
      1.652  0.2949E+01  0.1197E+03
      1.758  0.3471E+01  0.1201E+03
      1.864  0.5286E+01  0.1205E+03
      1.971  0.7845E+01  0.1212E+03
      2.077  0.1490E+02  0.1223E+03
      2.183  0.7538E+01  0.1233E+03
      2.290  0.6433E+01  0.1240E+03
      2.396  0.5707E+01  0.1246E+03
      2.502  0.4700E+01  0.1252E+03
      2.609  0.3771E+01  0.1257E+03
      2.715  0.3292E+01  0.1260E+03
      2.821  0.2949E+01  0.1264E+03
      2.928  0.2594E+01  0.1267E+03
      3.034  0.2256E+01  0.1269E+03
      3.141  0.1932E+01  0.1271E+03
      3.247  0.1564E+01  0.1273E+03
      3.353  0.1363E+01  0.1275E+03
      3.460  0.1162E+01  0.1276E+03
      3.566  0.9615E+00  0.1277E+03
      3.672  0.7606E+00  0.1278E+03
      3.779  0.5629E+00  0.1279E+03
      3.885  0.3955E+00  0.1279E+03
      3.991  0.2468E+00  0.1280E+03
      4.098  0.1126E+00  0.1280E+03
      4.204  0.1032E-02  0.1280E+03
      4.311  0.1072E+00  0.1280E+03
      4.417  0.2289E+00  0.1280E+03
      4.523  0.3671E+00  0.1281E+03
      4.630  0.5259E+00  0.1281E+03
      4.736  0.7230E+00  0.1282E+03
      4.842  0.9390E+00  0.1283E+03
      4.949  0.1155E+01  0.1284E+03
      5.055  0.1372E+01  0.1285E+03
      5.161  0.1588E+01  0.1287E+03
      5.268  0.1805E+01  0.1288E+03
      5.374  0.2941E+01  0.1291E+03
      5.481  0.3833E+01  0.1294E+03
      5.587  0.3997E+01  0.1299E+03
      5.693  0.5359E+01  0.1303E+03
      5.800  0.7969E+01  0.1311E+03
      5.906  0.1247E+02  0.1321E+03
      6.012  0.9250E+01  0.1333E+03
      6.119  0.7259E+01  0.1342E+03
      6.225  0.6390E+01  0.1349E+03
      6.331  0.5988E+01  0.1355E+03
      6.438  0.5493E+01  0.1361E+03
      6.544  0.4675E+01  0.1367E+03
      6.650  0.4515E+01  0.1372E+03
      6.757  0.4045E+01  0.1376E+03
      6.863  0.3791E+01  0.1380E+03
      6.970  0.3980E+01  0.1384E+03
      7.076  0.4453E+01  0.1389E+03
      7.182  0.4781E+01  0.1394E+03
      7.289  0.4750E+01  0.1399E+03
      7.395  0.4659E+01  0.1404E+03
      7.501  0.4487E+01  0.1409E+03
      7.608  0.4315E+01  0.1413E+03
      7.714  0.4181E+01  0.1418E+03
      7.820  0.4095E+01  0.1422E+03
      7.927  0.4040E+01  0.1427E+03
      8.033  0.4004E+01  0.1431E+03
      8.140  0.4013E+01  0.1435E+03
      8.246  0.4280E+01  0.1440E+03
      8.352  0.4568E+01  0.1444E+03
      8.459  0.4289E+01  0.1449E+03
      8.565  0.4132E+01  0.1454E+03
      8.671  0.4060E+01  0.1458E+03
      8.778  0.3986E+01  0.1462E+03
      8.884  0.3867E+01  0.1466E+03
      8.990  0.3909E+01  0.1471E+03
      9.097  0.3965E+01  0.1475E+03
      9.203  0.4015E+01  0.1479E+03
      9.310  0.4066E+01  0.1483E+03
      9.416  0.4100E+01  0.1488E+03
      9.522  0.4134E+01  0.1492E+03
      9.629  0.4563E+01  0.1497E+03
      9.735  0.4754E+01  0.1502E+03
      9.841  0.4762E+01  0.1507E+03
      9.948  0.6475E+01  0.1513E+03
     10.054  0.5271E+01  0.1519E+03
     10.160  0.6068E+01  0.1525E+03
     10.267  0.5804E+01  0.1531E+03
     10.373  0.5731E+01  0.1537E+03
     10.479  0.5214E+01  0.1544E+03
     10.586  0.3457E+01  0.1548E+03
     10.692  0.3906E+01  0.1552E+03
     10.799  0.3248E+01  0.1556E+03
     10.905  0.2948E+01  0.1560E+03
     11.011  0.3042E+01  0.1563E+03
     11.118  0.3218E+01  0.1566E+03
     11.224  0.3336E+01  0.1570E+03
     11.330  0.3964E+01  0.1573E+03
     11.437  0.4621E+01  0.1578E+03
     11.543  0.8581E+01  0.1584E+03
     11.649  0.8525E+01  0.1593E+03
     11.756  0.9705E+01  0.1603E+03
     11.862  0.1169E+02  0.1614E+03
     11.969  0.1275E+02  0.1627E+03
     12.075  0.1273E+02  0.1641E+03
     12.181  0.1306E+02  0.1654E+03
     12.288  0.1159E+02  0.1668E+03
     12.394  0.5692E+01  0.1678E+03
     12.500  0.1034E+00  0.1680E+03
     12.607  0.0000E+00  0.1680E+03
     12.713  0.0000E+00  0.1680E+03
     12.819  0.0000E+00  0.1680E+03
     12.926  0.0000E+00  0.1680E+03
     13.032  0.0000E+00  0.1680E+03
     13.139  0.0000E+00  0.1680E+03
     13.245  0.0000E+00  0.1680E+03
     13.351  0.0000E+00  0.1680E+03
     13.458  0.0000E+00  0.1680E+03
     13.564  0.0000E+00  0.1680E+03
     13.670  0.0000E+00  0.1680E+03
     13.777  0.0000E+00  0.1680E+03
     13.883  0.0000E+00  0.1680E+03
     13.989  0.0000E+00  0.1680E+03
     14.096  0.0000E+00  0.1680E+03
     14.202  0.0000E+00  0.1680E+03
     14.308  0.0000E+00  0.1680E+03
     14.415  0.0000E+00  0.1680E+03
     14.521  0.0000E+00  0.1680E+03
