 running on    6 total cores
 distrk:  each k-point on    6 cores,    1 groups
 distr:  one band on    1 cores,    6 groups
 using from now: INCAR     
 vasp.5.3.5 31Mar14 (build Nov 02 2014 15:17:37) complex                        
  
 POSCAR found :  1 types and      32 ions
 scaLAPACK will be used

 ----------------------------------------------------------------------------- 
|                                                                             |
|           W    W    AA    RRRRR   N    N  II  N    N   GGGG   !!!           |
|           W    W   A  A   R    R  NN   N  II  NN   N  G    G  !!!           |
|           W    W  A    A  R    R  N N  N  II  N N  N  G       !!!           |
|           W WW W  AAAAAA  RRRRR   N  N N  II  N  N N  G  GGG   !            |
|           WW  WW  A    A  R   R   N   NN  II  N   NN  G    G                |
|           W    W  A    A  R    R  N    N  II  N    N   GGGG   !!!           |
|                                                                             |
|      For optimal performance we recommend to set                            |
|        NCORE= 4 - approx SQRT( number of cores)                             |
|      NCORE specifies how many cores store one orbital (NPAR=cpu/NCORE).     |
|      This setting can  greatly improve the performance of VASP for DFT.     |
|      The default, NPAR=number of cores might be grossly inefficient         |
|      on modern multi-core architectures or massively parallel machines.     |
|      Do your own testing !!!!                                               |
|      Unfortunately you need to use the default for GW and RPA calculations. |
|      (for HF NCORE is supported but not extensively tested yet)             |
|                                                                             |
 ----------------------------------------------------------------------------- 


 ----------------------------------------------------------------------------- 
|                                                                             |
|  ADVICE TO THIS USER RUNNING 'VASP/VAMP'   (HEAR YOUR MASTER'S VOICE ...):  |
|                                                                             |
|      You have a (more or less) 'large supercell' and for larger cells       |
|      it might be more efficient to use real space projection operators      |
|      So try LREAL= Auto  in the INCAR   file.                               |
|      Mind: If you want to do a very accurate calculations keep the          |
|      reciprocal projection scheme          (i.e. LREAL=.FALSE.)             |
|                                                                             |
 ----------------------------------------------------------------------------- 

 LDA part: xc-table for Pade appr. of Perdew
 POSCAR, INCAR and KPOINTS ok, starting setup
 FFT: planning ...
 WAVECAR not read
 WARNING: random wavefunctions but no delay for mixing, default for NELMDL
 entering main loop
       N       E                     dE             d eps       ncg     rms          rms(c)
DAV:   1     0.706222198851E+03    0.70622E+03   -0.84047E+04 12768   0.200E+03
DAV:   2    -0.254711919567E+03   -0.96093E+03   -0.92567E+03 15876   0.341E+02
DAV:   3    -0.312665398948E+03   -0.57953E+02   -0.57355E+02 15540   0.824E+01
DAV:   4    -0.313809872426E+03   -0.11445E+01   -0.11420E+01 15924   0.124E+01
DAV:   5    -0.313843518755E+03   -0.33646E-01   -0.33634E-01 16308   0.202E+00    0.221E+01
DAV:   6    -0.299393632238E+03    0.14450E+02   -0.14890E+01 14592   0.107E+01    0.116E+01
DAV:   7    -0.294808036240E+03    0.45856E+01   -0.15739E+01 14460   0.110E+01    0.195E+00
DAV:   8    -0.294871552922E+03   -0.63517E-01   -0.58062E-01 14940   0.209E+00    0.678E-01
DAV:   9    -0.294876268233E+03   -0.47153E-02   -0.12292E-01 14700   0.865E-01    0.459E-01
DAV:  10    -0.294869946712E+03    0.63215E-02   -0.87163E-03 15120   0.366E-01    0.300E-01
DAV:  11    -0.294870559929E+03   -0.61322E-03   -0.62427E-02 20148   0.453E-01    0.289E-01
DAV:  12    -0.294869380419E+03    0.11795E-02   -0.11618E-02 14544   0.243E-01    0.106E-01
DAV:  13    -0.294869742836E+03   -0.36242E-03   -0.70608E-03 17028   0.162E-01    0.916E-02
DAV:  14    -0.294869679444E+03    0.63392E-04   -0.87486E-04 14568   0.810E-02    0.750E-02
DAV:  15    -0.294870007171E+03   -0.32773E-03   -0.18042E-03 20820   0.789E-02    0.117E-01
DAV:  16    -0.294869892479E+03    0.11469E-03   -0.10973E-03 17916   0.621E-02    0.107E-01
DAV:  17    -0.294869650031E+03    0.24245E-03   -0.20676E-03 20112   0.833E-02    0.536E-02
DAV:  18    -0.294869620183E+03    0.29848E-04   -0.19489E-04 14772   0.285E-02    0.152E-02
DAV:  19    -0.294869628971E+03   -0.87884E-05   -0.17824E-04 19236   0.196E-02    0.282E-02
DAV:  20    -0.294869635000E+03   -0.60290E-05   -0.49608E-04 19080   0.282E-02    0.339E-02
DAV:  21    -0.294869619081E+03    0.15919E-04   -0.17966E-04 20424   0.177E-02    0.653E-03
DAV:  22    -0.294869619503E+03   -0.42192E-06   -0.20879E-05 15024   0.682E-03    0.815E-03
DAV:  23    -0.294869618990E+03    0.51297E-06   -0.31696E-06 14592   0.300E-03    0.520E-03
DAV:  24    -0.294869618662E+03    0.32858E-06   -0.25442E-06 16380   0.231E-03    0.142E-03
DAV:  25    -0.294869618698E+03   -0.36315E-07   -0.12558E-06 15420   0.166E-03    0.225E-03
DAV:  26    -0.294869618664E+03    0.34122E-07   -0.14913E-07 11520   0.704E-04    0.125E-03
DAV:  27    -0.294869618684E+03   -0.20452E-07   -0.86766E-08  9060   0.465E-04    0.750E-04
DAV:  28    -0.294869618734E+03   -0.50129E-07   -0.19848E-07  9120   0.674E-04    0.641E-04
DAV:  29    -0.294869618635E+03    0.99746E-07   -0.27271E-08  8892   0.316E-04    0.357E-04
DAV:  30    -0.294869618636E+03   -0.14243E-08   -0.45664E-09  8820   0.126E-04
   1 F= -.29984059E+03 E0= -.29984059E+03  d E =0.000000E+00
