# Thermal properties / unit cell (natom)

unit:
  temperature:   K
  free_energy:   kJ/mol
  entropy:       J/K/mol
  heat_capacity: J/K/mol

natom:     4
num_modes: 3888
num_integrated_modes: 2320

zero_point_energy:      18.1291886
high_T_entropy:        182.7742933

thermal_properties:
- temperature:         0.0000000
  free_energy:        18.1291886
  entropy:             0.0000000
  heat_capacity:       0.0000000
  energy:             18.1291886

- temperature:        10.0000000
  free_energy:        18.1289937
  entropy:             0.0829489
  heat_capacity:       0.2320748
  energy:             18.1298232

- temperature:        20.0000000
  free_energy:        18.1266528
  entropy:             0.4125801
  heat_capacity:       0.8021509
  energy:             18.1349044

- temperature:        30.0000000
  free_energy:        18.1203388
  entropy:             0.8685496
  heat_capacity:       1.5355993
  energy:             18.1463953

- temperature:        40.0000000
  free_energy:        18.1088956
  entropy:             1.4401545
  heat_capacity:       2.5272185
  energy:             18.1665018

- temperature:        50.0000000
  free_energy:        18.0911425
  entropy:             2.1290219
  heat_capacity:       3.7146114
  energy:             18.1975936

- temperature:        60.0000000
  free_energy:        18.0659774
  entropy:             2.9191951
  heat_capacity:       5.0049718
  energy:             18.2411291

- temperature:        70.0000000
  free_energy:        18.0324841
  entropy:             3.7919860
  heat_capacity:       6.3659162
  energy:             18.2979231

- temperature:        80.0000000
  free_energy:        17.9899034
  entropy:             4.7352899
  heat_capacity:       7.8108561
  energy:             18.3687266

- temperature:        90.0000000
  free_energy:        17.9375615
  entropy:             5.7437412
  heat_capacity:       9.3627233
  energy:             18.4544982

- temperature:       100.0000000
  free_energy:        17.8748173
  entropy:             6.8155803
  heat_capacity:      11.0322627
  energy:             18.5563754

- temperature:       110.0000000
  free_energy:        17.8010420
  entropy:             7.9497474
  heat_capacity:      12.8125501
  energy:             18.6755142

- temperature:       120.0000000
  free_energy:        17.7156212
  entropy:             9.1442067
  heat_capacity:      14.6824749
  energy:             18.8129260

- temperature:       130.0000000
  free_energy:        17.6179687
  entropy:            10.3953630
  heat_capacity:      16.6129863
  energy:             18.9693659

- temperature:       140.0000000
  free_energy:        17.5075417
  entropy:            11.6981532
  heat_capacity:      18.5727927
  energy:             19.1452832

- temperature:       150.0000000
  free_energy:        17.3838539
  entropy:            13.0464437
  heat_capacity:      20.5323542
  energy:             19.3408205

- temperature:       160.0000000
  free_energy:        17.2464836
  entropy:            14.4335012
  heat_capacity:      22.4661450
  energy:             19.5558438

- temperature:       170.0000000
  free_energy:        17.0950777
  entropy:            15.8524151
  heat_capacity:      24.3535812
  energy:             19.7899883

- temperature:       180.0000000
  free_energy:        16.9293517
  entropy:            17.2964264
  heat_capacity:      26.1790761
  energy:             20.0427084

- temperature:       190.0000000
  free_energy:        16.7490869
  entropy:            18.7591542
  heat_capacity:      27.9316030
  energy:             20.3133262

- temperature:       200.0000000
  free_energy:        16.5541258
  entropy:            20.2347366
  heat_capacity:      29.6040324
  energy:             20.6010732

- temperature:       210.0000000
  free_energy:        16.3443669
  entropy:            21.7179021
  heat_capacity:      31.1924107
  energy:             20.9051264

- temperature:       220.0000000
  free_energy:        16.1197581
  entropy:            23.2039909
  heat_capacity:      32.6952753
  energy:             21.2246361

- temperature:       230.0000000
  free_energy:        15.8802910
  entropy:            24.6889440
  heat_capacity:      34.1130505
  energy:             21.5587481

- temperature:       240.0000000
  free_energy:        15.6259947
  entropy:            26.1692695
  heat_capacity:      35.4475411
  energy:             21.9066194

- temperature:       250.0000000
  free_energy:        15.3569309
  entropy:            27.6419981
  heat_capacity:      36.7015216
  energy:             22.2674305

- temperature:       260.0000000
  free_energy:        15.0731885
  entropy:            29.1046322
  heat_capacity:      37.8784123
  energy:             22.6403928

- temperature:       270.0000000
  free_energy:        14.7748789
  entropy:            30.5550946
  heat_capacity:      38.9820296
  energy:             23.0247544

- temperature:       280.0000000
  free_energy:        14.4621329
  entropy:            31.9916776
  heat_capacity:      40.0163978
  energy:             23.4198026

- temperature:       290.0000000
  free_energy:        14.1350963
  entropy:            33.4129964
  heat_capacity:      40.9856094
  energy:             23.8248652

- temperature:       300.0000000
  free_energy:        13.7939275
  entropy:            34.8179454
  heat_capacity:      41.8937252
  energy:             24.2393111

- temperature:       310.0000000
  free_energy:        13.4387948
  entropy:            36.2056595
  heat_capacity:      42.7447035
  energy:             24.6625493

- temperature:       320.0000000
  free_energy:        13.0698740
  entropy:            37.5754796
  heat_capacity:      43.5423527
  energy:             25.0940275

- temperature:       330.0000000
  free_energy:        12.6873465
  entropy:            38.9269217
  heat_capacity:      44.2903011
  energy:             25.5332307

- temperature:       340.0000000
  free_energy:        12.2913980
  entropy:            40.2596509
  heat_capacity:      44.9919793
  energy:             25.9796793

- temperature:       350.0000000
  free_energy:        11.8822166
  entropy:            41.5734578
  heat_capacity:      45.6506124
  energy:             26.4329268

- temperature:       360.0000000
  free_energy:        11.4599922
  entropy:            42.8682386
  heat_capacity:      46.2692185
  energy:             26.8925581

- temperature:       370.0000000
  free_energy:        11.0249153
  entropy:            44.1439780
  heat_capacity:      46.8506119
  energy:             27.3581872

- temperature:       380.0000000
  free_energy:        10.5771760
  entropy:            45.4007345
  heat_capacity:      47.3974105
  energy:             27.8294551

- temperature:       390.0000000
  free_energy:        10.1169635
  entropy:            46.6386274
  heat_capacity:      47.9120435
  energy:             28.3060282

- temperature:       400.0000000
  free_energy:         9.6444657
  entropy:            47.8578263
  heat_capacity:      48.3967624
  energy:             28.7875962

- temperature:       410.0000000
  free_energy:         9.1598686
  entropy:            49.0585417
  heat_capacity:      48.8536508
  energy:             29.2738707

- temperature:       420.0000000
  free_energy:         8.6633557
  entropy:            50.2410172
  heat_capacity:      49.2846360
  energy:             29.7645829

- temperature:       430.0000000
  free_energy:         8.1551081
  entropy:            51.4055229
  heat_capacity:      49.6914993
  energy:             30.2594830

- temperature:       440.0000000
  free_energy:         7.6353042
  entropy:            52.5523496
  heat_capacity:      50.0758869
  energy:             30.7583380

- temperature:       450.0000000
  free_energy:         7.1041191
  entropy:            53.6818041
  heat_capacity:      50.4393197
  energy:             31.2609309

- temperature:       460.0000000
  free_energy:         6.5617249
  entropy:            54.7942050
  heat_capacity:      50.7832029
  energy:             31.7670592

- temperature:       470.0000000
  free_energy:         6.0082907
  entropy:            55.8898796
  heat_capacity:      51.1088352
  energy:             32.2765341

- temperature:       480.0000000
  free_energy:         5.4439820
  entropy:            56.9691607
  heat_capacity:      51.4174169
  energy:             32.7891791

- temperature:       490.0000000
  free_energy:         4.8689610
  entropy:            58.0323843
  heat_capacity:      51.7100581
  energy:             33.3048293

- temperature:       500.0000000
  free_energy:         4.2833867
  entropy:            59.0798878
  heat_capacity:      51.9877857
  energy:             33.8233306

- temperature:       510.0000000
  free_energy:         3.6874145
  entropy:            60.1120078
  heat_capacity:      52.2515500
  energy:             34.3445385

- temperature:       520.0000000
  free_energy:         3.0811967
  entropy:            61.1290794
  heat_capacity:      52.5022312
  energy:             34.8683180

- temperature:       530.0000000
  free_energy:         2.4648820
  entropy:            62.1314344
  heat_capacity:      52.7406448
  energy:             35.3945423

- temperature:       540.0000000
  free_energy:         1.8386160
  entropy:            63.1194010
  heat_capacity:      52.9675468
  energy:             35.9230925

- temperature:       550.0000000
  free_energy:         1.2025409
  entropy:            64.0933024
  heat_capacity:      53.1836388
  energy:             36.4538572

- temperature:       560.0000000
  free_energy:         0.5567958
  entropy:            65.0534566
  heat_capacity:      53.3895719
  energy:             36.9867314

- temperature:       570.0000000
  free_energy:        -0.0984835
  entropy:            66.0001759
  heat_capacity:      53.5859513
  energy:             37.5216168

- temperature:       580.0000000
  free_energy:        -0.7631640
  entropy:            66.9337664
  heat_capacity:      53.7733392
  energy:             38.0584205

- temperature:       590.0000000
  free_energy:        -1.4371160
  entropy:            67.8545277
  heat_capacity:      53.9522590
  energy:             38.5970553

- temperature:       600.0000000
  free_energy:        -2.1202128
  entropy:            68.7627531
  heat_capacity:      54.1231978
  energy:             39.1374391

- temperature:       610.0000000
  free_energy:        -2.8123303
  entropy:            69.6587286
  heat_capacity:      54.2866093
  energy:             39.6794942

- temperature:       620.0000000
  free_energy:        -3.5133474
  entropy:            70.5427339
  heat_capacity:      54.4429166
  energy:             40.2231476

- temperature:       630.0000000
  free_energy:        -4.2231460
  entropy:            71.4150415
  heat_capacity:      54.5925145
  energy:             40.7683302

- temperature:       640.0000000
  free_energy:        -4.9416102
  entropy:            72.2759170
  heat_capacity:      54.7357715
  energy:             41.3149767

- temperature:       650.0000000
  free_energy:        -5.6686271
  entropy:            73.1256195
  heat_capacity:      54.8730319
  energy:             41.8630256

- temperature:       660.0000000
  free_energy:        -6.4040862
  entropy:            73.9644009
  heat_capacity:      55.0046175
  energy:             42.4124185

- temperature:       670.0000000
  free_energy:        -7.1478795
  entropy:            74.7925068
  heat_capacity:      55.1308297
  energy:             42.9631001

- temperature:       680.0000000
  free_energy:        -7.8999015
  entropy:            75.6101759
  heat_capacity:      55.2519503
  energy:             43.5150181

- temperature:       690.0000000
  free_energy:        -8.6600490
  entropy:            76.4176405
  heat_capacity:      55.3682436
  energy:             44.0681230

- temperature:       700.0000000
  free_energy:        -9.4282211
  entropy:            77.2151268
  heat_capacity:      55.4799572
  energy:             44.6223677

- temperature:       710.0000000
  free_energy:       -10.2043190
  entropy:            78.0028544
  heat_capacity:      55.5873235
  energy:             45.1777076

- temperature:       720.0000000
  free_energy:       -10.9882463
  entropy:            78.7810371
  heat_capacity:      55.6905608
  energy:             45.7341004

- temperature:       730.0000000
  free_energy:       -11.7799086
  entropy:            79.5498827
  heat_capacity:      55.7898738
  energy:             46.2915058

- temperature:       740.0000000
  free_energy:       -12.5792135
  entropy:            80.3095932
  heat_capacity:      55.8854553
  energy:             46.8498854

- temperature:       750.0000000
  free_energy:       -13.3860707
  entropy:            81.0603650
  heat_capacity:      55.9774865
  energy:             47.4092030

- temperature:       760.0000000
  free_energy:       -14.2003917
  entropy:            81.8023889
  heat_capacity:      56.0661379
  energy:             47.9694239

- temperature:       770.0000000
  free_energy:       -15.0220899
  entropy:            82.5358506
  heat_capacity:      56.1515702
  energy:             48.5305151

- temperature:       780.0000000
  free_energy:       -15.8510807
  entropy:            83.2609305
  heat_capacity:      56.2339348
  energy:             49.0924451

- temperature:       790.0000000
  free_energy:       -16.6872812
  entropy:            83.9778040
  heat_capacity:      56.3133744
  energy:             49.6551840

- temperature:       800.0000000
  free_energy:       -17.5306100
  entropy:            84.6866416
  heat_capacity:      56.3900237
  energy:             50.2187033

- temperature:       810.0000000
  free_energy:       -18.3809878
  entropy:            85.3876091
  heat_capacity:      56.4640098
  energy:             50.7829756

- temperature:       820.0000000
  free_energy:       -19.2383365
  entropy:            86.0808677
  heat_capacity:      56.5354528
  energy:             51.3479750

- temperature:       830.0000000
  free_energy:       -20.1025800
  entropy:            86.7665741
  heat_capacity:      56.6044663
  energy:             51.9136766

- temperature:       840.0000000
  free_energy:       -20.9736433
  entropy:            87.4448809
  heat_capacity:      56.6711577
  energy:             52.4800566

- temperature:       850.0000000
  free_energy:       -21.8514534
  entropy:            88.1159361
  heat_capacity:      56.7356284
  energy:             53.0470923

- temperature:       860.0000000
  free_energy:       -22.7359384
  entropy:            88.7798842
  heat_capacity:      56.7979747
  energy:             53.6147621

- temperature:       870.0000000
  free_energy:       -23.6270279
  entropy:            89.4368654
  heat_capacity:      56.8582877
  energy:             54.1830450

- temperature:       880.0000000
  free_energy:       -24.5246529
  entropy:            90.0870162
  heat_capacity:      56.9166537
  energy:             54.7519213

- temperature:       890.0000000
  free_energy:       -25.4287459
  entropy:            90.7304694
  heat_capacity:      56.9731545
  energy:             55.3213719

- temperature:       900.0000000
  free_energy:       -26.3392404
  entropy:            91.3673543
  heat_capacity:      57.0278678
  energy:             55.8913785

- temperature:       910.0000000
  free_energy:       -27.2560715
  entropy:            91.9977967
  heat_capacity:      57.0808673
  energy:             56.4619235

- temperature:       920.0000000
  free_energy:       -28.1791753
  entropy:            92.6219191
  heat_capacity:      57.1322231
  energy:             57.0329903

- temperature:       930.0000000
  free_energy:       -29.1084892
  entropy:            93.2398408
  heat_capacity:      57.1820015
  energy:             57.6045627

- temperature:       940.0000000
  free_energy:       -30.0439518
  entropy:            93.8516778
  heat_capacity:      57.2302659
  energy:             58.1766253

- temperature:       950.0000000
  free_energy:       -30.9855028
  entropy:            94.4575432
  heat_capacity:      57.2770763
  energy:             58.7491632

- temperature:       960.0000000
  free_energy:       -31.9330831
  entropy:            95.0575472
  heat_capacity:      57.3224900
  energy:             59.3221622

- temperature:       970.0000000
  free_energy:       -32.8866346
  entropy:            95.6517971
  heat_capacity:      57.3665614
  energy:             59.8956085

- temperature:       980.0000000
  free_energy:       -33.8461002
  entropy:            96.2403973
  heat_capacity:      57.4093422
  energy:             60.4694891

- temperature:       990.0000000
  free_energy:       -34.8114241
  entropy:            96.8234498
  heat_capacity:      57.4508820
  energy:             61.0437912

- temperature:      1000.0000000
  free_energy:       -35.7825511
  entropy:            97.4010538
  heat_capacity:      57.4912277
  energy:             61.6185028
