   32   32    1    1
  0.8381369E+01  0.4932875E-09  0.4932875E-09  0.1273296E-08  0.5000000E-15
  1.000000000000000E-004
  CAR 
 graphite                                
    128    163     84
 
  0.0000000E+00  0.0000000E+00  0.0000000E+00  0.3086420E-02
    1      -14.545090
    2      -14.333549
    3      -14.332393
    4      -14.099903
    5       -9.184913
    6       -9.177383
    7       -9.173986
    8       -9.089803
    9       -9.089373
   10       -9.082017
   11       -9.077675
   12       -9.077651
   13       -9.076067
   14       -9.018339
   15       -9.006480
   16       -9.004242
   17       -8.081955
   18       -8.079165
   19       -8.077611
   20       -8.044530
   21       -8.039898
   22       -8.038617
   23       -8.037365
   24       -8.037358
   25       -8.034178
   26       -7.958356
   27       -7.953216
   28       -7.950496
   29       -3.590887
   30       -2.456647
   31       -2.454437
   32       -1.258553
   33       -1.255802
   34       -1.236434
   35       -1.215712
   36       -1.210767
   37       -1.210740
   38       -1.210657
   39       -1.192078
   40       -1.190340
   41       -1.167037
   42       -1.164591
   43       -1.145152
   44       -1.045730
   45        2.144871
   46        2.160294
   47        2.167333
   48        2.169375
   49        2.180485
   50        2.183393
   51        2.187562
   52        2.202131
   53        2.232680
   54        2.235729
   55        2.237560
   56        2.794035
   57        2.795263
   58        2.797455
   59        2.801633
   60        2.801684
   61        2.802590
   62        3.113224
   63        3.131687
   64        3.133211
   65        6.709931
   66        6.711724
   67        6.716117
   68        6.790698
   69        6.797694
   70        6.801429
   71        6.802804
   72        6.803313
   73        6.809529
   74        7.493334
   75        7.507445
   76        7.510777
   77        9.954276
   78       12.265953
   79       12.269764
   80       12.302890
   81       12.544820
   82       12.548305
   83       12.552567
   84       12.561377
 
  0.1111111E+00  0.0000000E+00  0.0000000E+00  0.6172840E-02
    1      -14.471115
    2      -14.260444
    3      -14.259293
    4      -14.027747
    5       -9.990352
    6       -9.836036
    7       -9.834684
    8       -9.671082
    9       -9.445222
   10       -9.437141
   11       -9.310760
   12       -9.309770
   13       -9.301450
   14       -9.300920
   15       -9.174586
   16       -9.164879
   17       -7.805439
   18       -7.799265
   19       -7.702893
   20       -7.699089
   21       -7.694437
   22       -7.693649
   23       -7.578066
   24       -7.570862
   25       -7.293450
   26       -7.171765
   27       -7.170624
   28       -7.039349
   29       -3.500948
   30       -2.369813
   31       -2.367603
   32       -1.485305
   33       -1.465666
   34       -1.436037
   35       -1.434797
   36       -1.416500
   37       -1.414783
   38       -1.384425
   39       -1.364719
   40       -1.185394
   41       -1.141985
   42       -1.138284
   43       -1.094417
   44       -0.963115
   45        1.612794
   46        1.860486
   47        1.880719
   48        1.884355
   49        1.905057
   50        1.990669
   51        2.008819
   52        2.014931
   53        2.032541
   54        2.106908
   55        2.108524
   56        2.372092
   57        2.375019
   58        2.742345
   59        2.743468
   60        2.749095
   61        2.749817
   62        3.089264
   63        3.202907
   64        3.219285
   65        6.753560
   66        6.757001
   67        6.922548
   68        6.929305
   69        6.933337
   70        6.936174
   71        6.981927
   72        7.343282
   73        7.347666
   74        7.631064
   75        7.643069
   76        8.127632
   77       10.040513
   78       12.309655
   79       12.582834
   80       12.585735
   81       12.603594
   82       12.638929
   83       12.875032
   84       12.886271
 
  0.2222222E+00  0.0000000E+00  0.0000000E+00  0.6172840E-02
    1      -14.249515
    2      -14.041332
    3      -14.040191
    4      -13.811741
    5      -11.007456
    6      -10.836597
    7      -10.835519
    8      -10.651889
    9       -9.797809
   10       -9.792122
   11       -9.646651
   12       -9.645152
   13       -9.639939
   14       -9.639372
   15       -9.484824
   16       -9.478570
   17       -7.130917
   18       -7.121701
   19       -7.014279
   20       -7.010881
   21       -7.003605
   22       -7.002656
   23       -6.884680
   24       -6.875307
   25       -5.965501
   26       -5.850261
   27       -5.849280
   28       -5.727670
   29       -3.232281
   30       -2.110090
   31       -2.107875
   32       -2.096587
   33       -2.078162
   34       -2.036725
   35       -2.035666
   36       -2.018416
   37       -2.016717
   38       -1.973569
   39       -1.955079
   40       -0.969995
   41       -0.927572
   42       -0.923714
   43       -0.880804
   44       -0.716508
   45        0.567679
   46        1.028299
   47        1.061912
   48        1.065403
   49        1.099267
   50        1.483813
   51        1.486164
   52        1.567476
   53        1.592657
   54        1.598617
   55        1.623714
   56        1.866503
   57        1.869006
   58        2.529160
   59        2.621103
   60        2.621695
   61        2.626341
   62        2.627704
   63        3.333165
   64        3.344391
   65        6.934937
   66        6.937246
   67        7.258035
   68        7.264319
   69        7.268264
   70        7.270846
   71        7.931415
   72        7.939038
   73        8.037663
   74        8.565486
   75        8.569050
   76        9.336458
   77       10.300149
   78       12.431663
   79       12.695809
   80       12.698289
   81       12.952963
   82       13.227122
   83       13.231575
   84       13.512031
 
  0.3333333E+00  0.0000000E+00  0.0000000E+00  0.6172840E-02
    1      -13.881445
    2      -13.677444
    3      -13.676319
    4      -13.452929
    5      -11.924508
    6      -11.742679
    7      -11.741636
    8      -11.544780
    9      -10.056371
   10      -10.052729
   11       -9.898927
   12       -9.897048
   13       -9.894113
   14       -9.893643
   15       -9.728736
   16       -9.724879
   17       -6.320118
   18       -6.309356
   19       -6.211534
   20       -6.207994
   21       -6.199624
   22       -6.198354
   23       -6.093430
   24       -6.082950
   25       -4.525912
   26       -4.425127
   27       -4.423969
   28       -4.318274
   29       -2.915836
   30       -2.899852
   31       -2.846368
   32       -2.845735
   33       -2.830756
   34       -2.828942
   35       -2.787251
   36       -2.772471
   37       -2.756254
   38       -1.680932
   39       -1.678710
   40       -0.620583
   41       -0.579647
   42       -0.575542
   43       -0.534015
   44       -0.467159
   45       -0.310171
   46       -0.164365
   47       -0.114334
   48       -0.111492
   49       -0.060819
   50        0.531605
   51        0.533795
   52        1.002115
   53        1.033305
   54        1.038668
   55        1.069998
   56        1.661571
   57        1.664018
   58        1.728972
   59        2.496915
   60        2.497569
   61        2.500647
   62        2.502684
   63        3.398994
   64        3.405639
   65        7.241631
   66        7.246189
   67        7.650922
   68        7.656614
   69        7.659517
   70        7.661579
   71        8.213423
   72        8.217392
   73        9.532270
   74       10.042691
   75       10.045846
   76       10.719766
   77       10.736075
   78       12.596466
   79       12.871341
   80       12.874056
   81       12.928600
   82       13.314934
   83       13.320415
   84       13.389473
 
  0.4444444E+00  0.0000000E+00  0.0000000E+00  0.6172840E-02
    1      -13.368902
    2      -13.170602
    3      -13.169485
    4      -12.953125
    5      -12.714842
    6      -12.523877
    7      -12.522834
    8      -12.315347
    9      -10.189221
   10      -10.187128
   11      -10.029633
   12      -10.027205
   13      -10.026215
   14      -10.025686
   15       -9.856157
   16       -9.854003
   17       -5.559293
   18       -5.551083
   19       -5.479813
   20       -5.475498
   21       -5.470987
   22       -5.468737
   23       -5.396564
   24       -5.389774
   25       -3.657122
   26       -3.648688
   27       -3.602266
   28       -3.601567
   29       -3.593706
   30       -3.591390
   31       -3.536285
   32       -3.526391
   33       -3.038308
   34       -2.953824
   35       -2.952265
   36       -2.864653
   37       -2.170831
   38       -1.558492
   39       -1.492597
   40       -1.490626
   41       -1.420129
   42       -1.391397
   43       -1.086269
   44       -1.084246
   45       -0.342576
   46       -0.340425
   47       -0.153461
   48       -0.114479
   49       -0.110005
   50       -0.070942
   51        0.247081
   52        0.403220
   53        0.439162
   54        0.443909
   55        0.479865
   56        0.938619
   57        1.549250
   58        1.551345
   59        2.422110
   60        2.423517
   61        2.424671
   62        2.427487
   63        3.416463
   64        3.419633
   65        7.505392
   66        7.509034
   67        7.919576
   68        7.925079
   69        7.925740
   70        7.927001
   71        8.357991
   72        8.360681
   73       11.168158
   74       11.335689
   75       11.580725
   76       11.584099
   77       12.087451
   78       12.150371
   79       12.783962
   80       12.915856
   81       12.966259
   82       12.973204
   83       13.090810
   84       13.115374
 
 -0.1355253E-19  0.1111111E+00  0.0000000E+00  0.6172840E-02
    1      -14.471117
    2      -14.260448
    3      -14.259293
    4      -14.027749
    5       -9.990273
    6       -9.835857
    7       -9.834678
    8       -9.670977
    9       -9.445207
   10       -9.437435
   11       -9.310756
   12       -9.309767
   13       -9.302064
   14       -9.300969
   15       -9.174549
   16       -9.165309
   17       -7.805548
   18       -7.797912
   19       -7.703207
   20       -7.699091
   21       -7.693687
   22       -7.691586
   23       -7.578192
   24       -7.569474
   25       -7.294459
   26       -7.172697
   27       -7.171700
   28       -7.040352
   29       -3.500944
   30       -2.369805
   31       -2.367599
   32       -1.486630
   33       -1.465671
   34       -1.438490
   35       -1.434798
   36       -1.416501
   37       -1.415001
   38       -1.385675
   39       -1.364860
   40       -1.183920
   41       -1.139260
   42       -1.138281
   43       -1.093141
   44       -0.963108
   45        1.613666
   46        1.857935
   47        1.878336
   48        1.880722
   49        1.901250
   50        1.994956
   51        2.014669
   52        2.014929
   53        2.034854
   54        2.106087
   55        2.108163
   56        2.373972
   57        2.375172
   58        2.742320
   59        2.743444
   60        2.746892
   61        2.749454
   62        3.090405
   63        3.202926
   64        3.218167
   65        6.755450
   66        6.756899
   67        6.923039
   68        6.929237
   69        6.934337
   70        6.939156
   71        6.980044
   72        7.341891
   73        7.345345
   74        7.631199
   75        7.645278
   76        8.125789
   77       10.040522
   78       12.310205
   79       12.584315
   80       12.585844
   81       12.603500
   82       12.640926
   83       12.881207
   84       12.897301
 
  0.1111111E+00  0.1111111E+00  0.0000000E+00  0.6172840E-02
    1      -14.323229
    2      -14.114206
    3      -14.113061
    4      -13.883601
    5      -10.458908
    6      -10.455769
    7      -10.297215
    8      -10.293045
    9      -10.293010
   10      -10.290877
   11      -10.119884
   12      -10.116706
   13       -8.994742
   14       -8.901229
   15       -8.900634
   16       -8.831170
   17       -7.896900
   18       -7.860840
   19       -7.856580
   20       -7.778736
   21       -6.610615
   22       -6.607308
   23       -6.492221
   24       -6.488745
   25       -6.488719
   26       -6.485413
   27       -6.363048
   28       -6.359544
   29       -3.321642
   30       -2.196396
   31       -2.194186
   32       -2.153995
   33       -2.093343
   34       -2.091964
   35       -2.029751
   36       -1.341647
   37       -1.338666
   38       -1.294811
   39       -1.289765
   40       -1.289751
   41       -1.289256
   42       -1.242016
   43       -1.239391
   44       -0.798377
   45        1.163187
   46        1.165344
   47        1.330946
   48        1.351589
   49        1.355544
   50        1.374374
   51        1.677939
   52        1.693092
   53        1.699015
   54        1.715366
   55        2.012199
   56        2.016167
   57        2.016308
   58        2.017652
   59        2.502336
   60        2.926138
   61        2.928520
   62        3.059750
   63        3.061747
   64        3.371407
   65        6.712082
   66        6.721033
   67        6.726129
   68        7.284476
   69        7.414308
   70        7.416797
   71        7.884006
   72        7.886139
   73        7.887007
   74        7.891538
   75        8.647002
   76        8.649856
   77       10.213859
   78       12.684616
   79       12.688847
   80       12.953588
   81       12.959427
   82       12.960019
   83       12.962411
   84       13.227766
 
  0.2222222E+00  0.1111111E+00  0.0000000E+00  0.6172840E-02
    1      -14.028285
    2      -13.822587
    3      -13.821459
    4      -13.596056
    5      -11.428848
    6      -11.253019
    7      -11.251935
    8      -11.062244
    9      -10.801543
   10      -10.633393
   11      -10.632252
   12      -10.451634
   13       -9.057244
   14       -8.927357
   15       -8.926945
   16       -8.796661
   17       -7.456040
   18       -7.360102
   19       -7.356368
   20       -7.243891
   21       -5.821982
   22       -5.711816
   23       -5.710413
   24       -5.594432
   25       -5.221603
   26       -5.114506
   27       -5.113510
   28       -5.000832
   29       -3.067252
   30       -2.994954
   31       -2.993607
   32       -2.964564
   33       -2.917834
   34       -1.870511
   35       -1.851745
   36       -1.849526
   37       -1.812398
   38       -1.811760
   39       -1.751616
   40       -1.054039
   41       -1.008109
   42       -1.004335
   43       -0.957529
   44       -0.471664
   45        0.103281
   46        0.370327
   47        0.404832
   48        0.408950
   49        0.442182
   50        0.819626
   51        1.063947
   52        1.066189
   53        1.129582
   54        1.152833
   55        1.159197
   56        1.183572
   57        1.727627
   58        1.729096
   59        2.195488
   60        2.625710
   61        2.764359
   62        3.261608
   63        3.263489
   64        3.719248
   65        6.646718
   66        6.730025
   67        6.735617
   68        7.215961
   69        7.966715
   70        8.455024
   71        8.458155
   72        8.734359
   73        9.107135
   74        9.256270
   75        9.259336
   76        9.954594
   77       10.561759
   78       12.837659
   79       13.102055
   80       13.104540
   81       13.289853
   82       13.399460
   83       13.405024
   84       13.668531
 
  0.3333333E+00  0.1111111E+00  0.0000000E+00  0.6172840E-02
    1      -13.587848
    2      -13.387147
    3      -13.386039
    4      -13.166635
    5      -12.283159
    6      -12.097232
    7      -12.096166
    8      -11.894519
    9      -11.011475
   10      -10.840589
   11      -10.839411
   12      -10.655661
   13       -9.206070
   14       -9.062016
   15       -9.061205
   16       -8.909746
   17       -6.692555
   18       -6.592842
   19       -6.589254
   20       -6.483868
   21       -5.015637
   22       -4.924058
   23       -4.921913
   24       -4.827475
   25       -4.005989
   26       -3.932645
   27       -3.931123
   28       -3.850545
   29       -3.765319
   30       -3.674104
   31       -3.672913
   32       -3.578290
   33       -2.570162
   34       -2.508911
   35       -2.508579
   36       -2.442487
   37       -2.433456
   38       -1.341112
   39       -1.338803
   40       -0.886591
   41       -0.880827
   42       -0.829940
   43       -0.826558
   44       -0.773027
   45       -0.636710
   46       -0.593243
   47       -0.589288
   48       -0.544900
   49        0.010780
   50        0.141849
   51        0.143953
   52        0.500977
   53        0.533712
   54        0.539555
   55        0.573253
   56        0.604897
   57        1.382559
   58        1.543708
   59        1.545233
   60        2.606827
   61        2.646536
   62        3.351438
   63        3.352971
   64        4.070405
   65        6.539437
   66        6.851187
   67        6.855809
   68        7.320145
   69        8.473332
   70        8.909810
   71        8.912804
   72        9.395043
   73       10.303906
   74       10.761419
   75       10.764234
   76       11.082777
   77       11.349038
   78       12.586347
   79       13.119779
   80       13.295412
   81       13.298180
   82       13.411179
   83       13.423856
   84       13.450648
 
  0.4444444E+00  0.1111111E+00  0.0000000E+00  0.6172840E-02
    1      -13.006482
    2      -13.003412
    3      -12.813659
    4      -12.810222
    5      -12.809273
    6      -12.807652
    7      -12.599757
    8      -12.596624
    9      -11.082363
   10      -10.910820
   11      -10.909624
   12      -10.724751
   13       -9.261964
   14       -9.115269
   15       -9.114279
   16       -8.959059
   17       -6.170606
   18       -6.104817
   19       -6.101374
   20       -6.040913
   21       -4.530554
   22       -4.513060
   23       -4.477519
   24       -4.476882
   25       -4.474457
   26       -4.471338
   27       -4.423394
   28       -4.420616
   29       -2.973028
   30       -2.939237
   31       -2.936986
   32       -2.891278
   33       -2.298829
   34       -2.295465
   35       -2.225514
   36       -2.225010
   37       -2.223022
   38       -2.218945
   39       -2.148277
   40       -2.144376
   41       -1.736743
   42       -1.734206
   43       -0.672626
   44       -0.669031
   45       -0.668165
   46       -0.666144
   47       -0.110387
   48       -0.104004
   49       -0.071957
   50       -0.063899
   51       -0.062353
   52       -0.061665
   53       -0.024419
   54       -0.019935
   55        0.531175
   56        0.635238
   57        0.638065
   58        1.480161
   59        1.481706
   60        2.588633
   61        2.603415
   62        3.374365
   63        3.375501
   64        4.213601
   65        6.499645
   66        6.920279
   67        6.923702
   68        7.374775
   69        8.695503
   70        9.086500
   71        9.089787
   72        9.476085
   73       11.767298
   74       11.769667
   75       11.915084
   76       11.919022
   77       12.252598
   78       12.255083
   79       12.256687
   80       12.262433
   81       12.733541
   82       12.737390
   83       13.350646
   84       13.363338
 
 -0.4444444E+00  0.1111111E+00  0.0000000E+00  0.6172840E-02
    1      -13.588614
    2      -13.387914
    3      -13.386783
    4      -13.167398
    5      -12.281951
    6      -12.096020
    7      -12.094988
    8      -11.893314
    9      -11.013250
   10      -10.842454
   11      -10.841258
   12      -10.657475
   13       -9.203455
   14       -9.059312
   15       -9.058252
   16       -8.906611
   17       -6.684184
   18       -6.583620
   19       -6.581834
   20       -6.475698
   21       -5.027163
   22       -4.935997
   23       -4.932312
   24       -4.838156
   25       -4.018054
   26       -3.944507
   27       -3.944162
   28       -3.863232
   29       -3.767504
   30       -3.676526
   31       -3.674967
   32       -3.580512
   33       -2.555809
   34       -2.495097
   35       -2.492968
   36       -2.434304
   37       -2.427410
   38       -1.341811
   39       -1.339536
   40       -0.886353
   41       -0.879961
   42       -0.829290
   43       -0.827425
   44       -0.773366
   45       -0.634641
   46       -0.591369
   47       -0.587001
   48       -0.542813
   49        0.010084
   50        0.142847
   51        0.145029
   52        0.501251
   53        0.534317
   54        0.538583
   55        0.572700
   56        0.603634
   57        1.383519
   58        1.542058
   59        1.543597
   60        2.606968
   61        2.644030
   62        3.354181
   63        3.355019
   64        4.078607
   65        6.539058
   66        6.855096
   67        6.857904
   68        7.321051
   69        8.467751
   70        8.904581
   71        8.908620
   72        9.393592
   73       10.304743
   74       10.760900
   75       10.763829
   76       11.081742
   77       11.347430
   78       12.587426
   79       13.116754
   80       13.291950
   81       13.295438
   82       13.414691
   83       13.426975
   84       13.460371
 
 -0.3333333E+00  0.1111111E+00  0.0000000E+00  0.6172840E-02
    1      -14.028827
    2      -13.823140
    3      -13.821997
    4      -13.596609
    5      -11.427425
    6      -11.251569
    7      -11.250534
    8      -11.060813
    9      -10.805123
   10      -10.637032
   11      -10.635861
   12      -10.455322
   13       -9.051727
   14       -8.921396
   15       -8.920320
   16       -8.789278
   17       -7.449601
   18       -7.351626
   19       -7.350430
   20       -7.236247
   21       -5.833687
   22       -5.724226
   23       -5.721077
   24       -5.605780
   25       -5.223910
   26       -5.116904
   27       -5.115765
   28       -5.003202
   29       -3.083153
   30       -3.010685
   31       -3.009806
   32       -2.965105
   33       -2.933841
   34       -1.852523
   35       -1.851896
   36       -1.850048
   37       -1.794455
   38       -1.792688
   39       -1.733181
   40       -1.052314
   41       -1.006511
   42       -1.002485
   43       -0.955820
   44       -0.472176
   45        0.104470
   46        0.366292
   47        0.401946
   48        0.403087
   49        0.437153
   50        0.817246
   51        1.064971
   52        1.067364
   53        1.135151
   54        1.158420
   55        1.161799
   56        1.186893
   57        1.724384
   58        1.725919
   59        2.196365
   60        2.624849
   61        2.759165
   62        3.266681
   63        3.267435
   64        3.734527
   65        6.643363
   66        6.736377
   67        6.739385
   68        7.221420
   69        7.959948
   70        8.446611
   71        8.451360
   72        8.734582
   73        9.102313
   74        9.255366
   75        9.258623
   76        9.952853
   77       10.560994
   78       12.835232
   79       13.099574
   80       13.102458
   81       13.288306
   82       13.400955
   83       13.406678
   84       13.678498
 
 -0.2222222E+00  0.1111111E+00  0.0000000E+00  0.6172840E-02
    1      -14.323561
    2      -14.114537
    3      -14.113383
    4      -13.883947
    5      -10.462680
    6      -10.455706
    7      -10.299574
    8      -10.298478
    9      -10.292517
   10      -10.291380
   11      -10.123946
   12      -10.116759
   13       -8.985879
   14       -8.890834
   15       -8.889784
   16       -8.818448
   17       -7.894557
   18       -7.855507
   19       -7.854508
   20       -7.773870
   21       -6.619356
   22       -6.610570
   23       -6.500625
   24       -6.497660
   25       -6.490928
   26       -6.489901
   27       -6.371680
   28       -6.363069
   29       -3.322009
   30       -2.196712
   31       -2.194515
   32       -2.171863
   33       -2.111143
   34       -2.110083
   35       -2.047652
   36       -1.339681
   37       -1.319636
   38       -1.292333
   39       -1.288557
   40       -1.271323
   41       -1.269659
   42       -1.240315
   43       -1.220397
   44       -0.798689
   45        1.161489
   46        1.165116
   47        1.318402
   48        1.340371
   49        1.341750
   50        1.361312
   51        1.692207
   52        1.708058
   53        1.708792
   54        1.727002
   55        2.010481
   56        2.012071
   57        2.014980
   58        2.017599
   59        2.500452
   60        2.919589
   61        2.927395
   62        3.066217
   63        3.067070
   64        3.390623
   65        6.706890
   66        6.727798
   67        6.731160
   68        7.295291
   69        7.409619
   70        7.416659
   71        7.874947
   72        7.880192
   73        7.885336
   74        7.889265
   75        8.639898
   76        8.647512
   77       10.213377
   78       12.684928
   79       12.720915
   80       12.955698
   81       12.958227
   82       12.992638
   83       12.993328
   84       13.232463
 
 -0.1111111E+00  0.1111111E+00  0.0000000E+00  0.6172840E-02
    1      -14.471226
    2      -14.260558
    3      -14.259400
    4      -14.027858
    5       -9.997545
    6       -9.843242
    7       -9.842310
    8       -9.678787
    9       -9.437209
   10       -9.434787
   11       -9.303376
   12       -9.299630
   13       -9.299582
   14       -9.298550
   15       -9.165123
   16       -9.162799
   17       -7.801094
   18       -7.799179
   19       -7.697030
   20       -7.695320
   21       -7.695294
   22       -7.692991
   23       -7.573074
   24       -7.571019
   25       -7.302095
   26       -7.181456
   27       -7.178443
   28       -7.048088
   29       -3.501054
   30       -2.369911
   31       -2.367708
   32       -1.486919
   33       -1.484244
   34       -1.439265
   35       -1.434422
   36       -1.434396
   37       -1.434261
   38       -1.385807
   39       -1.383456
   40       -1.164104
   41       -1.119745
   42       -1.118109
   43       -1.073262
   44       -0.963212
   45        1.610742
   46        1.842206
   47        1.862294
   48        1.868650
   49        1.888129
   50        2.008705
   51        2.027028
   52        2.030878
   53        2.049825
   54        2.106493
   55        2.109778
   56        2.368006
   57        2.369678
   58        2.745325
   59        2.749761
   60        2.750008
   61        2.750491
   62        3.078482
   63        3.217695
   64        3.219513
   65        6.754031
   66        6.756101
   67        6.931446
   68        6.933886
   69        6.934377
   70        6.940054
   71        6.978475
   72        7.332434
   73        7.338118
   74        7.641374
   75        7.644612
   76        8.116289
   77       10.040357
   78       12.344708
   79       12.600355
   80       12.604188
   81       12.619088
   82       12.620783
   83       12.879610
   84       12.890833
 
 -0.1355253E-19  0.2222222E+00  0.0000000E+00  0.6172840E-02
    1      -14.249521
    2      -14.041344
    3      -14.040192
    4      -13.811748
    5      -11.007493
    6      -10.836667
    7      -10.835523
    8      -10.651925
    9       -9.797972
   10       -9.792050
   11       -9.647155
   12       -9.645158
   13       -9.639685
   14       -9.639270
   15       -9.484932
   16       -9.478537
   17       -7.131071
   18       -7.120503
   19       -7.014709
   20       -7.010883
   21       -7.002702
   22       -7.000902
   23       -6.884776
   24       -6.874023
   25       -5.966432
   26       -5.851239
   27       -5.850199
   28       -5.728639
   29       -3.232262
   30       -2.110058
   31       -2.107859
   32       -2.097920
   33       -2.078249
   34       -2.039222
   35       -2.035670
   36       -2.018416
   37       -2.016969
   38       -1.974802
   39       -1.955212
   40       -0.968458
   41       -0.924751
   42       -0.923711
   43       -0.879490
   44       -0.716476
   45        0.568160
   46        1.026182
   47        1.060549
   48        1.061916
   49        1.096407
   50        1.484771
   51        1.486371
   52        1.570768
   53        1.597640
   54        1.598616
   55        1.625784
   56        1.865855
   57        1.868599
   58        2.529924
   59        2.620391
   60        2.621430
   61        2.625699
   62        2.626951
   63        3.333076
   64        3.343199
   65        6.935373
   66        6.938916
   67        7.258605
   68        7.264263
   69        7.269375
   70        7.273592
   71        7.931602
   72        7.941047
   73        8.036065
   74        8.564266
   75        8.567480
   76        9.335126
   77       10.300173
   78       12.432278
   79       12.697011
   80       12.698321
   81       12.953590
   82       13.228264
   83       13.232181
   84       13.519179
 
  0.1111111E+00  0.2222222E+00  0.0000000E+00  0.6172840E-02
    1      -14.028290
    2      -13.822596
    3      -13.821460
    4      -13.596061
    5      -11.428903
    6      -11.253122
    7      -11.251941
    8      -11.062299
    9      -10.801503
   10      -10.633323
   11      -10.632249
   12      -10.451600
   13       -9.057233
   14       -8.927344
   15       -8.926940
   16       -8.796654
   17       -7.455981
   18       -7.359977
   19       -7.356368
   20       -7.243822
   21       -5.820937
   22       -5.710467
   23       -5.709634
   24       -5.593347
   25       -5.222626
   26       -5.115660
   27       -5.114456
   28       -5.001911
   29       -3.067338
   30       -2.994955
   31       -2.993778
   32       -2.964548
   33       -2.917919
   34       -1.871999
   35       -1.851719
   36       -1.849515
   37       -1.815227
   38       -1.811770
   39       -1.752976
   40       -1.052440
   41       -1.005138
   42       -1.004331
   43       -0.956131
   44       -0.471637
   45        0.103669
   46        0.369353
   47        0.404832
   48        0.406639
   49        0.440702