  32  32   0   0
  0.9167123E+01  0.4932875E-09  0.4932875E-09  0.1392668E-08  0.5000000E-15
  1.000000000000000E-004
  CAR 
 graphite                                
     14.88573967    -17.24218503  301      4.35568685      1.00000000
    -17.242  0.0000E+00  0.0000E+00
    -17.135  0.0000E+00  0.0000E+00
    -17.028  0.0000E+00  0.0000E+00
    -16.921  0.0000E+00  0.0000E+00
    -16.814  0.0000E+00  0.0000E+00
    -16.707  0.0000E+00  0.0000E+00
    -16.600  0.0000E+00  0.0000E+00
    -16.493  0.0000E+00  0.0000E+00
    -16.385  0.0000E+00  0.0000E+00
    -16.278  0.0000E+00  0.0000E+00
    -16.171  0.0000E+00  0.0000E+00
    -16.064  0.0000E+00  0.0000E+00
    -15.957  0.0000E+00  0.0000E+00
    -15.850  0.0000E+00  0.0000E+00
    -15.743  0.0000E+00  0.0000E+00
    -15.636  0.0000E+00  0.0000E+00
    -15.529  0.0000E+00  0.0000E+00
    -15.422  0.0000E+00  0.0000E+00
    -15.315  0.0000E+00  0.0000E+00
    -15.207  0.2808E+00  0.3732E-02
    -15.100  0.2570E+01  0.1409E+00
    -14.993  0.4067E+01  0.4953E+00
    -14.886  0.5161E+01  0.1007E+01
    -14.779  0.4856E+01  0.1519E+01
    -14.672  0.5123E+01  0.2058E+01
    -14.565  0.5022E+01  0.2603E+01
    -14.458  0.4809E+01  0.3130E+01
    -14.351  0.4841E+01  0.3643E+01
    -14.244  0.5066E+01  0.4173E+01
    -14.136  0.5292E+01  0.4728E+01
    -14.029  0.7174E+01  0.5378E+01
    -13.922  0.7948E+01  0.6193E+01
    -13.815  0.6208E+01  0.7039E+01
    -13.708  0.2511E+01  0.7479E+01
    -13.601  0.1878E+01  0.7701E+01
    -13.494  0.2140E+01  0.7912E+01
    -13.387  0.2504E+01  0.8161E+01
    -13.280  0.2870E+01  0.8448E+01
    -13.173  0.7411E+01  0.8890E+01
    -13.066  0.9447E+01  0.9992E+01
    -12.958  0.7179E+01  0.1093E+02
    -12.851  0.3995E+01  0.1142E+02
    -12.744  0.4095E+01  0.1185E+02
    -12.637  0.4195E+01  0.1229E+02
    -12.530  0.4324E+01  0.1275E+02
    -12.423  0.4458E+01  0.1322E+02
    -12.316  0.4582E+01  0.1370E+02
    -12.209  0.4707E+01  0.1420E+02
    -12.102  0.5413E+01  0.1473E+02
    -11.995  0.6286E+01  0.1535E+02
    -11.888  0.6159E+01  0.1604E+02
    -11.780  0.5652E+01  0.1667E+02
    -11.673  0.5403E+01  0.1726E+02
    -11.566  0.5565E+01  0.1785E+02
    -11.459  0.5728E+01  0.1845E+02
    -11.352  0.5891E+01  0.1907E+02
    -11.245  0.6054E+01  0.1971E+02
    -11.138  0.5610E+01  0.2033E+02
    -11.031  0.5336E+01  0.2092E+02
    -10.924  0.5380E+01  0.2149E+02
    -10.817  0.4330E+01  0.2202E+02
    -10.710  0.4363E+01  0.2246E+02
    -10.602  0.4990E+01  0.2297E+02
    -10.495  0.5168E+01  0.2352E+02
    -10.388  0.5346E+01  0.2408E+02
    -10.281  0.7489E+01  0.2476E+02
    -10.174  0.1129E+02  0.2584E+02
    -10.067  0.9011E+01  0.2692E+02
     -9.960  0.6729E+01  0.2777E+02
     -9.853  0.4825E+01  0.2837E+02
     -9.746  0.4359E+01  0.2886E+02
     -9.639  0.3906E+01  0.2931E+02
     -9.531  0.3453E+01  0.2970E+02
     -9.424  0.6615E+01  0.3041E+02
     -9.317  0.2035E+01  0.3089E+02
     -9.210  0.1835E+01  0.3110E+02
     -9.103  0.1635E+01  0.3129E+02
     -8.996  0.1434E+01  0.3145E+02
     -8.889  0.1234E+01  0.3159E+02
     -8.782  0.1504E+01  0.3173E+02
     -8.675  0.2001E+01  0.3192E+02
     -8.568  0.2498E+01  0.3216E+02
     -8.461  0.3081E+01  0.3246E+02
     -8.353  0.7031E+01  0.3297E+02
     -8.246  0.1168E+02  0.3397E+02
     -8.139  0.4985E+01  0.3470E+02
     -8.032  0.5541E+01  0.3523E+02
     -7.925  0.6673E+01  0.3589E+02
     -7.818  0.7805E+01  0.3666E+02
     -7.711  0.8937E+01  0.3756E+02
     -7.604  0.9697E+01  0.3858E+02
     -7.497  0.5613E+01  0.3937E+02
     -7.390  0.5561E+01  0.3997E+02
     -7.283  0.5653E+01  0.4057E+02
     -7.175  0.5519E+01  0.4116E+02
     -7.068  0.5369E+01  0.4175E+02
     -6.961  0.5193E+01  0.4231E+02
     -6.854  0.5075E+01  0.4286E+02
     -6.747  0.4956E+01  0.4340E+02
     -6.640  0.4838E+01  0.4392E+02
     -6.533  0.4720E+01  0.4444E+02
     -6.426  0.4601E+01  0.4494E+02
     -6.319  0.4483E+01  0.4542E+02
     -6.212  0.4374E+01  0.4590E+02
     -6.105  0.4778E+01  0.4638E+02
     -5.997  0.5357E+01  0.4692E+02
     -5.890  0.5936E+01  0.4753E+02
     -5.783  0.6514E+01  0.4819E+02
     -5.676  0.7093E+01  0.4892E+02
     -5.569  0.7671E+01  0.4971E+02
     -5.462  0.8250E+01  0.5056E+02
     -5.355  0.8829E+01  0.5148E+02
     -5.248  0.5150E+01  0.5231E+02
     -5.141  0.4758E+01  0.5276E+02
     -5.034  0.7196E+01  0.5346E+02
     -4.926  0.5771E+01  0.5416E+02
     -4.819  0.4346E+01  0.5470E+02
     -4.712  0.2920E+01  0.5509E+02
     -4.605  0.1494E+01  0.5532E+02
     -4.498  0.1731E+01  0.5546E+02
     -4.391  0.3173E+01  0.5572E+02
     -4.284  0.4614E+01  0.5614E+02
     -4.177  0.6056E+01  0.5671E+02
     -4.070  0.1171E+02  0.5764E+02
     -3.963  0.1088E+02  0.5885E+02
     -3.856  0.1122E+02  0.6000E+02
     -3.748  0.1080E+02  0.6133E+02
     -3.641  0.5122E+01  0.6214E+02
     -3.534  0.5387E+01  0.6268E+02
     -3.427  0.6357E+01  0.6331E+02
     -3.320  0.8938E+01  0.6408E+02
     -3.213  0.1403E+02  0.6531E+02
     -3.106  0.2131E+02  0.6712E+02
     -2.999  0.6678E+01  0.6890E+02
     -2.892  0.6739E+01  0.6961E+02
     -2.785  0.7020E+01  0.7035E+02
     -2.678  0.7446E+01  0.7112E+02
     -2.570  0.9298E+01  0.7199E+02
     -2.463  0.1807E+02  0.7336E+02
     -2.356  0.1438E+02  0.7508E+02
     -2.249  0.1159E+02  0.7646E+02
     -2.142  0.1405E+02  0.7773E+02
     -2.035  0.4447E+02  0.8037E+02
     -1.928  0.1885E+02  0.8263E+02
     -1.821  0.1300E+02  0.8465E+02
     -1.714  0.1392E+02  0.8606E+02
     -1.607  0.1590E+02  0.8765E+02
     -1.500  0.9939E+01  0.8911E+02
     -1.392  0.6704E+01  0.9000E+02
     -1.285  0.7620E+01  0.9074E+02
     -1.178  0.8302E+01  0.9160E+02
     -1.071  0.9085E+01  0.9253E+02
     -0.964  0.1031E+02  0.9357E+02
     -0.857  0.1022E+02  0.9467E+02
     -0.750  0.1066E+02  0.9577E+02
     -0.643  0.1798E+02  0.9746E+02
     -0.536  0.1136E+02  0.9877E+02
     -0.429  0.1159E+02  0.9998E+02
     -0.321  0.1191E+02  0.1013E+03
     -0.214  0.1018E+02  0.1024E+03
     -0.107  0.1021E+02  0.1035E+03
     -0.000  0.9796E+01  0.1046E+03
      0.107  0.9619E+01  0.1056E+03
      0.214  0.9529E+01  0.1066E+03
      0.321  0.9540E+01  0.1077E+03
      0.428  0.9202E+01  0.1087E+03
      0.535  0.9009E+01  0.1096E+03
      0.642  0.9050E+01  0.1106E+03
      0.749  0.9690E+01  0.1116E+03
      0.857  0.9690E+01  0.1126E+03
      0.964  0.1009E+02  0.1137E+03
      1.071  0.1095E+02  0.1149E+03
      1.178  0.9649E+01  0.1160E+03
      1.285  0.8225E+01  0.1169E+03
      1.392  0.6641E+01  0.1177E+03
      1.499  0.5881E+01  0.1184E+03
      1.606  0.5008E+01  0.1190E+03
      1.713  0.3736E+01  0.1194E+03
      1.820  0.2824E+01  0.1198E+03
      1.927  0.3450E+01  0.1201E+03
      2.035  0.5084E+01  0.1205E+03
      2.142  0.7591E+01  0.1212E+03
      2.249  0.1176E+02  0.1222E+03
      2.356  0.7896E+01  0.1232E+03
      2.463  0.6784E+01  0.1240E+03
      2.570  0.5979E+01  0.1247E+03
      2.677  0.4528E+01  0.1253E+03
      2.784  0.3700E+01  0.1257E+03
      2.891  0.3248E+01  0.1261E+03
      2.998  0.2902E+01  0.1264E+03
      3.106  0.2546E+01  0.1267E+03
      3.213  0.2217E+01  0.1269E+03
      3.320  0.1911E+01  0.1272E+03
      3.427  0.1556E+01  0.1273E+03
      3.534  0.1346E+01  0.1275E+03
      3.641  0.1136E+01  0.1276E+03
      3.748  0.9258E+00  0.1277E+03
      3.855  0.7157E+00  0.1278E+03
      3.962  0.5311E+00  0.1279E+03
      4.069  0.3679E+00  0.1279E+03
      4.176  0.2187E+00  0.1280E+03
      4.284  0.8171E-01  0.1280E+03
      4.391  0.2733E-01  0.1280E+03
      4.498  0.1408E+00  0.1280E+03
      4.605  0.2671E+00  0.1280E+03
      4.712  0.4089E+00  0.1281E+03
      4.819  0.5688E+00  0.1281E+03
      4.926  0.7605E+00  0.1282E+03
      5.033  0.9853E+00  0.1283E+03
      5.140  0.1210E+01  0.1284E+03
      5.247  0.1436E+01  0.1285E+03
      5.354  0.1661E+01  0.1287E+03
      5.462  0.1887E+01  0.1289E+03
      5.569  0.3278E+01  0.1292E+03
      5.676  0.3870E+01  0.1296E+03
      5.783  0.4221E+01  0.1300E+03
      5.890  0.6480E+01  0.1305E+03
      5.997  0.1001E+02  0.1314E+03
      6.104  0.1042E+02  0.1327E+03
      6.211  0.8210E+01  0.1337E+03
      6.318  0.6648E+01  0.1345E+03
      6.425  0.6052E+01  0.1351E+03
      6.532  0.5708E+01  0.1358E+03
      6.640  0.5209E+01  0.1364E+03
      6.747  0.4551E+01  0.1369E+03
      6.854  0.4149E+01  0.1374E+03
      6.961  0.3771E+01  0.1378E+03
      7.068  0.3797E+01  0.1382E+03
      7.175  0.4147E+01  0.1386E+03
      7.282  0.4599E+01  0.1391E+03
      7.389  0.4847E+01  0.1396E+03
      7.496  0.4738E+01  0.1401E+03
      7.603  0.4624E+01  0.1406E+03
      7.711  0.4434E+01  0.1411E+03
      7.818  0.4269E+01  0.1415E+03
      7.925  0.4157E+01  0.1420E+03
      8.032  0.4083E+01  0.1424E+03
      8.139  0.4032E+01  0.1429E+03
      8.246  0.3993E+01  0.1433E+03
      8.353  0.3966E+01  0.1437E+03
      8.460  0.4040E+01  0.1442E+03
      8.567  0.4207E+01  0.1446E+03
      8.674  0.4090E+01  0.1450E+03
      8.781  0.3964E+01  0.1455E+03
      8.889  0.3898E+01  0.1459E+03
      8.996  0.3874E+01  0.1463E+03
      9.103  0.3829E+01  0.1467E+03
      9.210  0.3848E+01  0.1471E+03
      9.317  0.3883E+01  0.1475E+03
      9.424  0.3914E+01  0.1480E+03
      9.531  0.3947E+01  0.1484E+03
      9.638  0.3977E+01  0.1488E+03
      9.745  0.3998E+01  0.1492E+03
      9.852  0.4260E+01  0.1497E+03
      9.959  0.4638E+01  0.1502E+03
     10.067  0.6407E+01  0.1507E+03
     10.174  0.5665E+01  0.1514E+03
     10.281  0.5437E+01  0.1520E+03
     10.388  0.5553E+01  0.1526E+03
     10.495  0.5409E+01  0.1532E+03
     10.602  0.6606E+01  0.1538E+03
     10.709  0.4263E+01  0.1544E+03
     10.816  0.2744E+01  0.1548E+03
     10.923  0.3219E+01  0.1551E+03
     11.030  0.4013E+01  0.1555E+03
     11.137  0.3165E+01  0.1558E+03
     11.245  0.2995E+01  0.1562E+03
     11.352  0.3064E+01  0.1565E+03
     11.459  0.3224E+01  0.1568E+03
     11.566  0.4022E+01  0.1572E+03
     11.673  0.6555E+01  0.1577E+03
     11.780  0.7364E+01  0.1585E+03
     11.887  0.9490E+01  0.1594E+03
     11.994  0.1135E+02  0.1605E+03
     12.101  0.1289E+02  0.1619E+03
     12.208  0.1314E+02  0.1633E+03
     12.316  0.1340E+02  0.1647E+03
     12.423  0.1334E+02  0.1662E+03
     12.530  0.8878E+01  0.1674E+03
     12.637  0.1801E+01  0.1679E+03
     12.744  0.7220E-01  0.1680E+03
     12.851  0.4337E-02  0.1680E+03
     12.958  0.0000E+00  0.1680E+03
     13.065  0.0000E+00  0.1680E+03
     13.172  0.0000E+00  0.1680E+03
     13.279  0.0000E+00  0.1680E+03
     13.386  0.0000E+00  0.1680E+03
     13.494  0.0000E+00  0.1680E+03
     13.601  0.0000E+00  0.1680E+03
     13.708  0.0000E+00  0.1680E+03
     13.815  0.0000E+00  0.1680E+03
     13.922  0.0000E+00  0.1680E+03
     14.029  0.0000E+00  0.1680E+03
     14.136  0.0000E+00  0.1680E+03
     14.243  0.0000E+00  0.1680E+03
     14.350  0.0000E+00  0.1680E+03
     14.457  0.0000E+00  0.1680E+03
     14.564  0.0000E+00  0.1680E+03
     14.672  0.0000E+00  0.1680E+03
     14.779  0.0000E+00  0.1680E+03
     14.886  0.0000E+00  0.1680E+03
