   32   32    1    1
  0.7976710E+01  0.4934311E-09  0.4934311E-09  0.1210634E-08  0.5000000E-15
  1.000000000000000E-004
  CAR 
 graphite                                
    128    163     84
 
  0.0000000E+00  0.0000000E+00  0.0000000E+00  0.3086420E-02
    1      -14.152140
    2      -13.854935
    3      -13.854061
    4      -13.515961
    5       -8.753637
    6       -8.750862
    7       -8.748151
    8       -8.608140
    9       -8.603996
   10       -8.603547
   11       -8.603204
   12       -8.603082
   13       -8.598737
   14       -8.510666
   15       -8.508988
   16       -8.507253
   17       -7.599878
   18       -7.598364
   19       -7.597923
   20       -7.559879
   21       -7.557268
   22       -7.556055
   23       -7.555751
   24       -7.555726
   25       -7.552416
   26       -7.424520
   27       -7.422734
   28       -7.420551
   29       -3.380389
   30       -1.959478
   31       -1.956952
   32       -0.791881
   33       -0.789312
   34       -0.788241
   35       -0.722803
   36       -0.720161
   37       -0.720133
   38       -0.718745
   39       -0.716989
   40       -0.715598
   41       -0.648998
   42       -0.646431
   43       -0.645246
   44       -0.167863
   45        2.510452
   46        2.512437
   47        2.514803
   48        2.628888
   49        2.632697
   50        2.653210
   51        2.655182
   52        2.659988
   53        2.662371
   54        2.682314
   55        2.686474
   56        3.270496
   57        3.274177
   58        3.274424
   59        3.274557
   60        3.274932
   61        3.278636
   62        3.624058
   63        3.625398
   64        3.626423
   65        7.255988
   66        7.262578
   67        7.264247
   68        7.264484
   69        7.265068
   70        7.270492
   71        7.286362
   72        7.287279
   73        7.288415
   74        8.163395
   75        8.165814
   76        8.168079
   77       11.034965
   78       12.622016
   79       12.626070
   80       12.629185
   81       13.006406
   82       13.010996
   83       13.011185
   84       13.014300
 
  0.1111111E+00 -0.1387779E-16  0.0000000E+00  0.6172840E-02
    1      -14.077913
    2      -13.781829
    3      -13.780957
    4      -13.444159
    5       -9.580667
    6       -9.358404
    7       -9.357708
    8       -9.117285
    9       -9.023570
   10       -9.020840
   11       -8.828095
   12       -8.825481
   13       -8.824758
   14       -8.822854
   15       -8.630009
   16       -8.627353
   17       -7.361430
   18       -7.360009
   19       -7.216101
   20       -7.215503
   21       -7.214472
   22       -7.212098
   23       -7.030686
   24       -7.028960
   25       -6.869472
   26       -6.694949
   27       -6.692845
   28       -6.497267
   29       -3.290117
   30       -1.873048
   31       -1.870528
   32       -1.022386
   33       -1.019529
   34       -0.946534
   35       -0.944474
   36       -0.942043
   37       -0.941391
   38       -0.865736
   39       -0.862929
   40       -0.716863
   41       -0.647983
   42       -0.645110
   43       -0.574698
   44       -0.086519
   45        1.869697
   46        2.321733
   47        2.353946
   48        2.360087
   49        2.375843
   50        2.377653
   51        2.392733
   52        2.470361
   53        2.499919
   54        2.505922
   55        2.536050
   56        2.849707
   57        2.852294
   58        3.218856
   59        3.222661
   60        3.222943
   61        3.224147
   62        3.709967
   63        3.749664
   64        3.751436
   65        7.289285
   66        7.290193
   67        7.391624
   68        7.394105
   69        7.395299
   70        7.401216
   71        7.429006
   72        7.798236
   73        7.803817
   74        8.301544
   75        8.304149
   76        8.804389
   77       11.117825
   78       12.668854
   79       12.960004
   80       12.965653
   81       13.050438
   82       13.052039
   83       13.343812
   84       13.349629
 
  0.2222222E+00 -0.1387779E-16  0.0000000E+00  0.6172840E-02
    1      -13.855591
    2      -13.562758
    3      -13.561896
    4      -13.229367
    5      -10.602730
    6      -10.358578
    7      -10.357853
    8      -10.088302
    9       -9.381744
   10       -9.379552
   11       -9.163941
   12       -9.161919
   13       -9.161374
   14       -9.159544
   15       -8.926345
   16       -8.924095
   17       -6.697359
   18       -6.695666
   19       -6.527257
   20       -6.526653
   21       -6.525453
   22       -6.523345
   23       -6.336163
   24       -6.334318
   25       -5.542129
   26       -5.373984
   27       -5.371982
   28       -5.190719
   29       -3.020767
   30       -1.638737
   31       -1.636110
   32       -1.614537
   33       -1.612031
   34       -1.548082
   35       -1.546107
   36       -1.543971
   37       -1.543145
   38       -1.450353
   39       -1.447754
   40       -0.501285
   41       -0.433625
   42       -0.430662
   43       -0.361675
   44        0.156095
   45        0.802968
   46        1.482994
   47        1.535463
   48        1.540410
   49        1.593465
   50        1.964717
   51        1.966987
   52        2.043268
   53        2.084460
   54        2.088698
   55        2.122199
   56        2.123570
   57        2.134242
   58        3.097670
   59        3.101604
   60        3.102035
   61        3.103205
   62        3.282208
   63        3.961709
   64        3.963827
   65        7.385055
   66        7.386596
   67        7.725022
   68        7.727110
   69        7.728188
   70        7.733675
   71        8.373051
   72        8.584821
   73        8.587555
   74        9.015726
   75        9.020384
   76       10.007689
   77       11.367633
   78       12.796836
   79       13.167683
   80       13.169293
   81       13.537343
   82       13.891718
   83       13.914481
   84       13.958966
 
  0.3333333E+00 -0.2775558E-16  0.0000000E+00  0.6172840E-02
    1      -13.486375
    2      -13.198920
    3      -13.198073
    4      -12.872620
    5      -11.523155
    6      -11.264479
    7      -11.263710
    8      -10.975468
    9       -9.643002
   10       -9.641030
   11       -9.416606
   12       -9.414755
   13       -9.414408
   14       -9.412540
   15       -9.166943
   16       -9.164910
   17       -5.884189
   18       -5.882242
   19       -5.724364
   20       -5.723685
   21       -5.722496
   22       -5.720058
   23       -5.550691
   24       -5.548610
   25       -4.098072
   26       -3.949678
   27       -3.947428
   28       -3.788889
   29       -2.574562
   30       -2.462048
   31       -2.459771
   32       -2.359347
   33       -2.357117
   34       -2.355720
   35       -2.354594
   36       -2.245620
   37       -2.243318
   38       -1.187429
   39       -1.184932
   40       -0.242855
   41       -0.151484
   42       -0.085854
   43       -0.082706
   44       -0.015992
   45        0.282777
   46        0.359978
   47        0.363989
   48        0.441918
   49        0.555306
   50        1.016254
   51        1.018492
   52        1.474918
   53        1.525548
   54        1.530052
   55        1.581647
   56        1.907776
   57        1.910146
   58        2.538542
   59        2.973699
   60        2.977701
   61        2.978213
   62        2.979483
   63        4.103294
   64        4.105699
   65        7.616085
   66        7.618350
   67        8.114762
   68        8.116223
   69        8.117109
   70        8.122158
   71        8.832287
   72        8.835064
   73        9.839798
   74       10.485996
   75       10.490099
   76       11.367222
   77       11.784322
   78       12.991507
   79       13.353137
   80       13.354940
   81       13.601544
   82       13.819510
   83       13.867580
   84       13.872607
 
  0.4444444E+00 -0.2775558E-16  0.0000000E+00  0.6172840E-02
    1      -12.972091
    2      -12.692141
    3      -12.691313
    4      -12.375668
    5      -12.315876
    6      -12.045559
    7      -12.044758
    8      -11.741493
    9       -9.777175
   10       -9.775293
   11       -9.547615
   12       -9.545774
   13       -9.545610
   14       -9.543675
   15       -9.293635
   16       -9.291693
   17       -5.114107
   18       -5.111981
   19       -4.994207
   20       -4.993327
   21       -4.992957
   22       -4.989063
   23       -4.875166
   24       -4.872848
   25       -3.195877
   26       -3.194162
   27       -3.118795
   28       -3.115725
   29       -3.115365
   30       -3.113934
   31       -3.015282
   32       -3.013496
   33       -2.604710
   34       -2.479217
   35       -2.476556
   36       -2.343670
   37       -1.955995
   38       -1.173884
   39       -1.118234
   40       -1.019605
   41       -1.016458
   42       -0.908008
   43       -0.593338
   44       -0.591181
   45        0.145861
   46        0.148141
   47        0.316156
   48        0.378698
   49        0.382120
   50        0.445734
   51        0.873955
   52        0.931727
   53        0.935779
   54        0.994494
   55        1.101665
   56        1.776266
   57        1.790530
   58        1.792760
   59        2.899143
   60        2.903179
   61        2.903721
   62        2.905064
   63        4.160411
   64        4.162969
   65        7.838274
   66        7.841062
   67        8.380767
   68        8.381377
   69        8.381808
   70        8.386750
   71        8.947156
   72        8.949868
   73       11.480146
   74       12.011733
   75       12.015691
   76       12.358821
   77       12.760554
   78       13.012908
   79       13.112722
   80       13.356989
   81       13.368258
   82       13.372885
   83       13.581655
   84       13.595371
 
 -0.8470329E-21  0.1111111E+00  0.0000000E+00  0.6172840E-02
    1      -14.077911
    2      -13.781827
    3      -13.780955
    4      -13.444157
    5       -9.580770
    6       -9.358523
    7       -9.357862
    8       -9.117493
    9       -9.023500
   10       -9.020541
   11       -8.827815
   12       -8.825480
   13       -8.824774
   14       -8.822296
   15       -8.629805
   16       -8.627064
   17       -7.362724
   18       -7.360215
   19       -7.218433
   20       -7.216014
   21       -7.214435
   22       -7.211957
   23       -7.031953
   24       -7.028909
   25       -6.868338
   26       -6.693117
   27       -6.692563
   28       -6.496257
   29       -3.290122
   30       -1.873054
   31       -1.870533
   32       -1.020834
   33       -1.019747
   34       -0.944563
   35       -0.944395
   36       -0.941505
   37       -0.941333
   38       -0.864198
   39       -0.863138
   40       -0.718121
   41       -0.648030
   42       -0.647754
   43       -0.576138
   44       -0.086527
   45        1.868798
   46        2.325144
   47        2.358968
   48        2.360065
   49        2.375770
   50        2.378956
   51        2.394897
   52        2.468405
   53        2.499940
   54        2.500762
   55        2.532476
   56        2.849349
   57        2.850534
   58        3.219865
   59        3.222644
   60        3.222929
   61        3.225908
   62        3.708813
   63        3.749909
   64        3.752166
   65        7.287953
   66        7.289680
   67        7.389142
   68        7.393492
   69        7.395426
   70        7.399702
   71        7.430992
   72        7.800964
   73        7.804960
   74        8.299805
   75        8.303513
   76        8.806232
   77       11.117813
   78       12.668164
   79       12.961436
   80       12.964904
   81       13.050070
   82       13.051077
   83       13.346431
   84       13.347795
 
  0.1111111E+00  0.1111111E+00  0.0000000E+00  0.6172840E-02
    1      -13.929626
    2      -13.635718
    3      -13.634853
    4      -13.300875
    5      -10.051228
    6      -10.047995
    7       -9.818486
    8       -9.815245
    9       -9.815215
   10       -9.811884
   11       -9.559774
   12       -9.556469
   13       -8.561607
   14       -8.417659
   15       -8.416016
   16       -8.323138
   17       -7.413295
   18       -7.374766
   19       -7.371124
   20       -7.244780
   21       -6.187977
   22       -6.184477
   23       -6.015766
   24       -6.011364
   25       -6.011333
   26       -6.008708
   27       -5.823525
   28       -5.819992
   29       -3.110305
   30       -1.712641
   31       -1.700533
   32       -1.698024
   33       -1.620850
   34       -1.618320
   35       -1.522537
   36       -0.876437
   37       -0.873674
   38       -0.801028
   39       -0.799485
   40       -0.799456
   41       -0.795203
   42       -0.722024
   43       -0.718959
   44        0.075480
   45        1.407182
   46        1.409748
   47        1.789259
   48        1.823404
   49        1.828882
   50        1.857364
   51        2.163391
   52        2.185737
   53        2.191408
   54        2.220314
   55        2.491573
   56        2.493387
   57        2.493626
   58        2.497362
   59        2.776461
   60        3.536185
   61        3.539068
   62        3.624913
   63        3.627267
   64        3.877696
   65        7.189114
   66        7.194955
   67        7.299115
   68        7.792747
   69        7.795437
   70        7.911307
   71        8.336960
   72        8.342748
   73        8.343386
   74        8.345546
   75        9.317053
   76        9.320112
   77       11.284569
   78       13.046301
   79       13.050652
   80       13.420863
   81       13.424834
   82       13.424909
   83       13.429725
   84       13.821776
 
  0.2222222E+00  0.1111111E+00  0.0000000E+00  0.6172840E-02
    1      -13.633867
    2      -13.344240
    3      -13.343387
    4      -13.015049
    5      -11.025084
    6      -10.774210
    7      -10.773462
    8      -10.495230
    9      -10.394429
   10      -10.153805
   11      -10.153083
   12       -9.887693
   13       -8.633531
   14       -8.443834
   15       -8.442826
   16       -8.253717
   17       -7.009611
   18       -6.874017
   19       -6.871046
   20       -6.700596
   21       -5.396371
   22       -5.234264
   23       -5.233669
   24       -5.059744
   25       -4.796622
   26       -4.639583
   27       -4.637591
   28       -4.469195
   29       -2.752431
   30       -2.629315
   31       -2.521528
   32       -2.519060
   33       -2.403699
   34       -1.411109
   35       -1.357614
   36       -1.355125
   37       -1.322302
   38       -1.321832
   39       -1.228870
   40       -0.586764
   41       -0.514180
   42       -0.511298
   43       -0.436588
   44        0.332969
   45        0.396573
   46        0.823573
   47        0.877793
   48        0.883275
   49        0.934420
   50        1.055820
   51        1.547100
   52        1.549240
   53        1.608666
   54        1.645176
   55        1.651094
   56        1.692229
   57        2.207156
   58        2.208882
   59        2.892406
   60        2.982189
   61        3.514938
   62        3.737105
   63        3.739875
   64        4.259649
   65        7.179592
   66        7.197404
   67        7.203109
   68        7.825670
   69        8.307045
   70        8.909205
   71        8.912287
   72        9.050896
   73        9.703339
   74        9.707445
   75        9.745803
   76       10.603931
   77       11.619976
   78       13.212662
   79       13.576581
   80       13.578088
   81       13.900010
   82       14.017962
   83       14.119935
   84       14.123055
 
  0.3333333E+00  0.1111111E+00  0.0000000E+00  0.6172840E-02
    1      -13.192102
    2      -12.908911
    3      -12.908075
    4      -12.588207
    5      -11.882331
    6      -11.618331
    7      -11.617548
    8      -11.322571
    9      -10.604397
   10      -10.360082
   11      -10.359348
   12      -10.089413
   13       -8.787156
   14       -8.579076
   15       -8.578390
   16       -8.354920
   17       -6.253490
   18       -6.107629
   19       -6.104847
   20       -5.947190
   21       -4.582956
   22       -4.446510
   23       -4.445295
   24       -4.303188
   25       -3.564105
   26       -3.457596
   27       -3.454912
   28       -3.335228
   29       -3.332198
   30       -3.199939
   31       -3.197708
   32       -3.054594
   33       -2.219863
   34       -2.112253
   35       -2.021449
   36       -2.020144
   37       -1.919179
   38       -0.850340
   39       -0.847755
   40       -0.660605
   41       -0.439126
   42       -0.354116
   43       -0.349849
   44       -0.268358
   45       -0.168399
   46       -0.099467
   47       -0.096456
   48       -0.025359
   49        0.628672
   50        0.630879
   51        0.836694
   52        0.869978
   53        0.973331
   54        1.025599
   55        1.030671
   56        1.085816
   57        2.024742
   58        2.026634
   59        2.207721
   60        2.862826
   61        3.425715
   62        3.826139
   63        3.828529
   64        4.701458
   65        6.944504
   66        7.315908
   67        7.319905
   68        7.933186
   69        8.800243
   70        9.362645
   71        9.364964
   72        9.988900
   73       10.614138
   74       11.200801
   75       11.204328
   76       11.966308
   77       12.121826
   78       13.367867
   79       13.663736
   80       13.770028
   81       13.784994
   82       13.786624
   83       13.856727
   84       13.861011
 
  0.4444444E+00  0.1111111E+00  0.0000000E+00  0.6172840E-02
    1      -12.608450
    2      -12.605431
    3      -12.334980
    4      -12.331911
    5      -12.331786
    6      -12.328757
    7      -12.024260
    8      -12.021146
    9      -10.674679
   10      -10.429459
   11      -10.428719
   12      -10.157243
   13       -8.844951
   14       -8.633262
   15       -8.632627
   16       -8.403254
   17       -5.724027
   18       -5.623963
   19       -5.621399
   20       -5.533557
   21       -4.077866
   22       -4.041513
   23       -3.996518
   24       -3.993783
   25       -3.992482
   26       -3.989138
   27       -3.914985
   28       -3.910932
   29       -2.504127
   30       -2.459017
   31       -2.455630
   32       -2.383424
   33       -1.860789
   34       -1.857308
   35       -1.752917
   36       -1.746677
   37       -1.746619
   38       -1.746296
   39       -1.632986
   40       -1.629814
   41       -1.519960
   42       -1.517446
   43       -0.182246
   44       -0.179357
   45       -0.178870
   46       -0.175153
   47        0.359840
   48        0.364366
   49        0.423620
   50        0.425146
   51        0.425212
   52        0.433859
   53        0.490906
   54        0.496920
   55        0.762835
   56        1.481176
   57        1.484042
   58        1.962105
   59        1.964098
   60        2.840353
   61        3.392048
   62        3.848343
   63        3.850216
   64        4.900489
   65        6.831649
   66        7.382741
   67        7.385284
   68        7.986958
   69        9.023211
   70        9.540272
   71        9.542504
   72       10.047211
   73       12.236478
   74       12.240132
   75       12.672713
   76       12.681318
   77       12.682811
   78       12.683607
   79       12.774542
   80       12.778020
   81       13.318682
   82       13.322481
   83       13.756598
   84       13.759743
 
 -0.4444444E+00  0.1111111E+00  0.0000000E+00  0.6172840E-02
    1      -13.192188
    2      -12.908998
    3      -12.908163
    4      -12.588292
    5      -11.882194
    6      -11.618194
    7      -11.617410
    8      -11.322432
    9      -10.604608
   10      -10.360292
   11      -10.359557
   12      -10.089623
   13       -8.786794
   14       -8.578652
   15       -8.578037
   16       -8.354489
   17       -6.252917
   18       -6.106124
   19       -6.105203
   20       -5.946642
   21       -4.583979
   22       -4.448283
   23       -4.445426
   24       -4.304050
   25       -3.565101
   26       -3.457753
   27       -3.456888
   28       -3.335796
   29       -3.333079
   30       -3.200466
   31       -3.197847
   32       -3.054923
   33       -2.219966
   34       -2.111044
   35       -2.021139
   36       -2.017850
   37       -1.917815
   38       -0.850436
   39       -0.847859
   40       -0.660449
   41       -0.438756
   42       -0.353088
   43       -0.350345
   44       -0.268177
   45       -0.168058
   46       -0.099371
   47       -0.095845
   48       -0.024994
   49        0.628805
   50        0.631052
   51        0.836370
   52        0.869927
   53        0.973122
   54        1.026120
   55        1.029484
   56        1.085294
   57        2.024382
   58        2.026448
   59        2.207834
   60        2.863253
   61        3.425355
   62        3.827206
   63        3.828524
   64        4.702366
   65        6.943997
   66        7.316662
   67        7.319005
   68        7.933154
   69        8.799876
   70        9.361892
   71        9.365134
   72        9.988907
   73       10.613962
   74       11.200447
   75       11.204358
   76       11.966211
   77       12.121672
   78       13.367812
   79       13.663773
   80       13.770430
   81       13.784363
   82       13.786813
   83       13.856940
   84       13.871990
 
 -0.3333333E+00  0.1111111E+00  0.0000000E+00  0.6172840E-02
    1      -13.633928
    2      -13.344300
    3      -13.343447
    4      -13.015109
    5      -11.024917
    6      -10.774039
    7      -10.773291
    8      -10.495035
    9      -10.394883
   10      -10.154237
   11      -10.153518
   12       -9.888125
   13       -8.632704
   14       -8.442697
   15       -8.442151
   16       -8.252683
   17       -7.009421
   18       -6.872497
   19       -6.871997
   20       -6.700256
   21       -5.397340
   22       -5.236070
   23       -5.233734
   24       -5.060631
   25       -4.796954
   26       -4.640015
   27       -4.637805
   28       -4.469512
   29       -2.752505
   30       -2.630668
   31       -2.521863
   32       -2.521494
   33       -2.405104
   34       -1.409520
   35       -1.357686
   36       -1.355195
   37       -1.321885
   38       -1.318982
   39       -1.227199
   40       -0.586526
   41       -0.514054
   42       -0.510941
   43       -0.436346
   44        0.333145
   45        0.396499
   46        0.823979
   47        0.879412
   48        0.881830
   49        0.934220
   50        1.055306
   51        1.547238
   52        1.549420
   53        1.608938
   54        1.646657
   55        1.649354
   56        1.691604
   57        2.206399
   58        2.208513
   59        2.893248
   60        2.982327
   61        3.514224
   62        3.739090
   63        3.739855
   64        4.260865
   65        7.179591
   66        7.198312
   67        7.201542
   68        7.825411
   69        8.306621
   70        8.908201
   71        8.912479
   72        9.050702
   73        9.703073
   74        9.707417
   75        9.745643
   76       10.603781
   77       11.619860
   78       13.212483
   79       13.576178
   80       13.578165
   81       13.899932
   82       14.023361
   83       14.121772
   84       14.124865
 
 -0.2222222E+00  0.1111111E+00  0.0000000E+00  0.6172840E-02
    1      -13.929663
    2      -13.635754
    3      -13.634889
    4      -13.300911
    5      -10.050225
    6      -10.049404
    7       -9.816264
    8       -9.815573
    9       -9.815321
   10       -9.814623
   11       -9.558823
   12       -9.557961
   13       -8.560082
   14       -8.415458
   15       -8.415102
   16       -8.321661
   17       -7.413310
   18       -7.373382
   19       -7.373117
   20       -7.245107
   21       -6.186967
   22       -6.186436
   23       -6.013658
   24       -6.013065
   25       -6.011601
   26       -6.010894
   27       -5.822558
   28       -5.822039
   29       -3.110349
   30       -1.714174
   31       -1.700576
   32       -1.698067
   33       -1.621299
   34       -1.620993
   35       -1.524125
   36       -0.874190
   37       -0.873978
   38       -0.799399
   39       -0.799146
   40       -0.796510
   41       -0.796329
   42       -0.719662
   43       -0.719504
   44        0.075435
   45        1.407348
   46        1.408992
   47        1.789466
   48        1.825678
   49        1.825755
   50        1.856465
   51        2.164430
   52        2.188926
   53        2.189036
   54        2.219866
   55        2.491319
   56        2.493523
   57        2.493689
   58        2.496049
   59        2.777658
   60        3.538624
   61        3.539083
   62        3.624515
   63        3.626723
   64        3.878903
   65        7.189964
   66        7.193887
   67        7.299134
   68        7.792961
   69        7.794787
   70        7.910752
   71        8.337683
   72        8.341061
   73        8.342770
   74        8.346066
   75        9.317611
   76        9.319323
   77       11.284496
   78       13.048769
   79       13.051833
   80       13.424485
   81       13.426206
   82       13.427466
   83       13.429316
   84       13.827358
 
 -0.1111111E+00  0.1111111E+00  0.0000000E+00  0.6172840E-02
    1      -14.077923
    2      -13.781839
    3      -13.780967
    4      -13.444169
    5       -9.581655
    6       -9.359448
    7       -9.358740
    8       -9.118397
    9       -9.022593
   10       -9.020095
   11       -8.826712
   12       -8.824628
   13       -8.824551
   14       -8.821631
   15       -8.628908
   16       -8.626473
   17       -7.362549
   18       -7.360496
   19       -7.217989
   20       -7.214680
   21       -7.214601
   22       -7.213790
   23       -7.031495
   24       -7.029485
   25       -6.868815
   26       -6.694473
   27       -6.692173
   28       -6.496734
   29       -3.290137
   30       -1.873068
   31       -1.870548
   32       -1.022346
   33       -1.019862
   34       -0.945696
   35       -0.944471
   36       -0.944440
   37       -0.940406
   38       -0.865850
   39       -0.863050
   40       -0.716459
   41       -0.647535
   42       -0.644811
   43       -0.574372
   44       -0.086541
   45        1.867787
   46        2.324187
   47        2.356582
   48        2.361458
   49        2.376252
   50        2.379488
   51        2.395360
   52        2.468224
   53        2.498247
   54        2.503456
   55        2.533421
   56        2.847706
   57        2.850036
   58        3.221646
   59        3.222628
   60        3.222880
   61        3.226809
   62        3.707576
   63        3.750884
   64        3.752422
   65        7.287795
   66        7.290016
   67        7.388484
   68        7.395147
   69        7.395743
   70        7.398121
   71        7.430855
   72        7.799994
   73        7.805551
   74        8.299758
   75        8.303094
   76        8.806326
   77       11.117788
   78       12.671985
   79       12.959162
   80       12.963292
   81       13.053505
   82       13.055143
   83       13.341867
   84       13.346681
 
 -0.3388132E-20  0.2222222E+00  0.0000000E+00  0.6172840E-02
    1      -13.855583
    2      -13.562750
    3      -13.561888
    4      -13.229359
    5      -10.602709
    6      -10.358561
    7      -10.357837
    8      -10.088293
    9       -9.382141
   10       -9.379082
   11       -9.164637
   12       -9.161930
   13       -9.161387
   14       -9.158572
   15       -8.926653
   16       -8.923598
   17       -6.698755
   18       -6.695564
   19       -6.529802
   20       -6.527136
   21       -6.525428
   22       -6.522701
   23       -6.337504
   24       -6.334077
   25       -5.541119
   26       -5.372252
   27       -5.371734
   28       -5.189737
   29       -3.020786
   30       -1.637601
   31       -1.635861
   32       -1.614560
   33       -1.612055
   34       -1.546618
   35       -1.546109
   36       -1.543184
   37       -1.542616
   38       -1.449216
   39       -1.447477
   40       -0.502621
   41       -0.433689
   42       -0.433444
   43       -0.363197
   44        0.156064
   45        0.802472
   46        1.485703
   47        1.540247
   48        1.540428
   49        1.595635
   50        1.964342
   51        1.966105
   52        2.041047
   53        2.083724
   54        2.084487
   55        2.121740
   56        2.124835
   57        2.131508
   58        3.098378
   59        3.101557
   60        3.101902
   61        3.105173
   62        3.281343
   63        3.962124
   64        3.964692
   65        7.383615
   66        7.385835
   67        7.722186
   68        7.726548
   69        7.728230
   70        7.732485
   71        8.374830
   72        8.582825
   73        8.587363
   74        9.017729
   75        9.021296
   76       10.009016
   77       11.367598
   78       12.796111
   79       13.167290
   80       13.168191
   81       13.536555
   82       13.892661
   83       13.926718
   84       13.972980
 
  0.1111111E+00  0.2222222E+00  0.0000000E+00  0.6172840E-02
    1      -13.633861
    2      -13.344234
    3      -13.343381
    4      -13.015042
    5      -11.025042
    6      -10.774167
    7      -10.773422
    8      -10.495189
    9      -10.394460
   10      -10.153830
   11      -10.153114
   12       -9.887717
   13       -8.633519
   14       -8.443808
   15       -8.442825
   16       -8.253704
   17       -7.009680
   18       -6.874014
   19       -6.871233
   20       -6.700711
   21       -5.397471
   22       -5.236034
   23       -5.234080
   24       -5.060837
   25       -4.795529
   26       -4.637778
   27       -4.637223
   28       -4.468104
   29       -2.752446
   30       -2.629211
   31       -2.521353
   32       -2.519061
   33       -2.403625
   34       -1.409713
   35       -1.357630
   36       -1.355142
   37       -1.321907
   38       -1.319362
   39       -1.227387
   40       -0.588201
   41       -0.514399
   42       -0.514096
   43       -0.438177
   44        0.332594
   45        0.396519
   46        0.825108
   47        0.880112
   48        0.883266
   49        0.935236