16   
1    

1    
  0.0100000000000000   0.0000000000000000   0.0000000000000000
  -0.4248483300   -0.0037402600   -0.0026447700
   0.0638892000    0.0000206700    0.0000146100
   0.0017636800    0.0357989600   -0.0111711100
   0.0018176900   -0.0358987100    0.0110806000
   0.0017636800    0.0014007600    0.0374752800
   0.0018176900   -0.0015193500   -0.0375391600
  -0.0007412400   -0.0000480100   -0.0000339500
   0.0041752800    0.0000161200    0.0000114000
   0.1172813100    0.0279982200    0.0197977300
   0.1119134700   -0.0245196500   -0.0173380100
   0.0691734300    0.0003353200    0.0001388300
  -0.0062142400   -0.0000650700    0.0000229300
   0.0691734300    0.0002426600    0.0002698700
  -0.0062142400   -0.0000000700   -0.0000689900
  -0.0023887400   -0.0022293900   -0.0015764200
  -0.0023620700    0.0022078000    0.0015611500
