<?xml version="1.0" encoding="ISO-8859-1"?>
<modeling>
 <generator>
  <i name="program" type="string">vasp </i>
  <i name="version" type="string">5.3.5  </i>
  <i name="subversion" type="string">31Mar14 (build Nov 02 2014 15:17:37) complex                          parallel </i>
  <i name="platform" type="string">ion-Intel-MKL </i>
  <i name="date" type="string">2017 02 12 </i>
  <i name="time" type="string">19:12:14 </i>
 </generator>
 <incar>
  <i type="string" name="SYSTEM">graphite</i>
  <i type="string" name="PREC">accurate</i>
  <i type="int" name="NELM">   200</i>
  <i type="int" name="IBRION">     2</i>
  <i name="EDIFF">      0.00000001</i>
  <i name="EDIFFG">      0.00100000</i>
  <i type="int" name="NSW">   200</i>
  <i type="int" name="ISIF">     2</i>
  <i name="ENCUT">    800.00000000</i>
  <i type="int" name="ISMEAR">    -5</i>
  <i type="logical" name="LWAVE"> F  </i>
  <i type="logical" name="LCHARG"> F  </i>
  <i type="int" name="NELM">   200</i>
  <i type="string" name="GGA">PE</i>
 </incar>
 <kpoints>
  <generation param="Gamma">
   <v type="int" name="divisions">      12       12        8 </v>
   <v name="usershift">      0.00000000       0.00000000       0.00000000 </v>
   <v name="genvec1">      0.08333333       0.00000000      -0.00000000 </v>
   <v name="genvec2">      0.00000000       0.08333333       0.00000000 </v>
   <v name="genvec3">      0.00000000       0.00000000       0.12500000 </v>
   <v name="shift">      0.00000000       0.00000000       0.00000000 </v>
  </generation>
  <varray name="kpointlist" >
   <v>       0.00000000       0.00000000       0.00000000 </v>
   <v>       0.08333333      -0.00000000      -0.00000000 </v>
   <v>       0.16666667      -0.00000000      -0.00000000 </v>
   <v>       0.25000000       0.00000000      -0.00000000 </v>
   <v>       0.33333333      -0.00000000      -0.00000000 </v>
   <v>       0.41666667      -0.00000000      -0.00000000 </v>
   <v>       0.50000000       0.00000000      -0.00000000 </v>
   <v>       0.08333333       0.08333333      -0.00000000 </v>
   <v>       0.16666667       0.08333333      -0.00000000 </v>
   <v>       0.25000000       0.08333333      -0.00000000 </v>
   <v>       0.33333333       0.08333333      -0.00000000 </v>
   <v>       0.41666667       0.08333333       0.00000000 </v>
   <v>       0.50000000       0.08333333       0.00000000 </v>
   <v>      -0.41666667       0.08333333       0.00000000 </v>
   <v>      -0.33333333       0.08333333       0.00000000 </v>
   <v>      -0.25000000       0.08333333       0.00000000 </v>
   <v>      -0.16666667       0.08333333       0.00000000 </v>
   <v>      -0.08333333       0.08333333       0.00000000 </v>
   <v>       0.16666667       0.16666667      -0.00000000 </v>
   <v>       0.25000000       0.16666667      -0.00000000 </v>
   <v>       0.33333333       0.16666667      -0.00000000 </v>
   <v>       0.41666667       0.16666667      -0.00000000 </v>
   <v>       0.50000000       0.16666667      -0.00000000 </v>
   <v>      -0.41666667       0.16666667      -0.00000000 </v>
   <v>      -0.33333333       0.16666667       0.00000000 </v>
   <v>      -0.25000000       0.16666667       0.00000000 </v>
   <v>      -0.16666667       0.16666667       0.00000000 </v>
   <v>       0.25000000       0.25000000      -0.00000000 </v>
   <v>       0.33333333       0.25000000      -0.00000000 </v>
   <v>       0.41666667       0.25000000      -0.00000000 </v>
   <v>       0.50000000       0.25000000      -0.00000000 </v>
   <v>      -0.41666667       0.25000000       0.00000000 </v>
   <v>      -0.33333333       0.25000000       0.00000000 </v>
   <v>      -0.25000000       0.25000000       0.00000000 </v>
   <v>       0.33333333       0.33333333      -0.00000000 </v>
   <v>       0.41666667       0.33333333      -0.00000000 </v>
   <v>       0.50000000       0.33333333       0.00000000 </v>
   <v>      -0.41666667       0.33333333       0.00000000 </v>
   <v>      -0.33333333       0.33333333       0.00000000 </v>
   <v>       0.41666667       0.41666667      -0.00000000 </v>
   <v>       0.50000000       0.41666667      -0.00000000 </v>
   <v>      -0.41666667       0.41666667      -0.00000000 </v>
   <v>       0.50000000       0.50000000      -0.00000000 </v>
   <v>       0.00000000       0.00000000       0.12500000 </v>
   <v>       0.08333333      -0.00000000       0.12500000 </v>
   <v>       0.16666667      -0.00000000       0.12500000 </v>
   <v>       0.25000000       0.00000000       0.12500000 </v>
   <v>       0.33333333      -0.00000000       0.12500000 </v>
   <v>       0.41666667      -0.00000000       0.12500000 </v>
   <v>       0.50000000       0.00000000       0.12500000 </v>
   <v>      -0.41666667       0.00000000       0.12500000 </v>
   <v>      -0.33333333       0.00000000       0.12500000 </v>
   <v>      -0.25000000       0.00000000       0.12500000 </v>
   <v>      -0.16666667       0.00000000       0.12500000 </v>
   <v>      -0.08333333       0.00000000       0.12500000 </v>
   <v>       0.08333333       0.08333333       0.12500000 </v>
   <v>       0.16666667       0.08333333       0.12500000 </v>
   <v>       0.25000000       0.08333333       0.12500000 </v>
   <v>       0.33333333       0.08333333       0.12500000 </v>
   <v>       0.41666667       0.08333333       0.12500000 </v>
   <v>       0.50000000       0.08333333       0.12500000 </v>
   <v>      -0.41666667       0.08333333       0.12500000 </v>
   <v>      -0.33333333       0.08333333       0.12500000 </v>
   <v>      -0.25000000       0.08333333       0.12500000 </v>
   <v>      -0.16666667       0.08333333       0.12500000 </v>
   <v>      -0.08333333       0.08333333       0.12500000 </v>
   <v>       0.16666667       0.16666667       0.12500000 </v>
   <v>       0.33333333       0.16666667       0.12500000 </v>
   <v>       0.41666667       0.16666667       0.12500000 </v>
   <v>       0.50000000       0.16666667       0.12500000 </v>
   <v>      -0.41666667       0.16666667       0.12500000 </v>
   <v>      -0.33333333       0.16666667       0.12500000 </v>
   <v>      -0.25000000       0.16666667       0.12500000 </v>
   <v>      -0.16666667       0.16666667       0.12500000 </v>
   <v>      -0.08333333       0.16666667       0.12500000 </v>
   <v>       0.33333333       0.25000000       0.12500000 </v>
   <v>       0.41666667       0.25000000       0.12500000 </v>
   <v>       0.50000000       0.25000000       0.12500000 </v>
   <v>      -0.41666667       0.25000000       0.12500000 </v>
   <v>       0.33333333       0.33333333       0.12500000 </v>
   <v>       0.41666667       0.33333333       0.12500000 </v>
   <v>       0.50000000       0.33333333       0.12500000 </v>
   <v>      -0.41666667       0.33333333       0.12500000 </v>
   <v>      -0.33333333       0.33333333       0.12500000 </v>
   <v>      -0.25000000       0.33333333       0.12500000 </v>
   <v>      -0.16666667       0.33333333       0.12500000 </v>
   <v>      -0.08333333       0.33333333       0.12500000 </v>
   <v>       0.41666667       0.41666667       0.12500000 </v>
   <v>       0.50000000       0.41666667       0.12500000 </v>
   <v>      -0.41666667       0.41666667       0.12500000 </v>
   <v>      -0.33333333       0.41666667       0.12500000 </v>
   <v>      -0.25000000       0.41666667       0.12500000 </v>
   <v>      -0.16666667       0.41666667       0.12500000 </v>
   <v>      -0.08333333       0.41666667       0.12500000 </v>
   <v>       0.50000000       0.50000000       0.12500000 </v>
   <v>      -0.41666667       0.50000000       0.12500000 </v>
   <v>      -0.33333333       0.50000000       0.12500000 </v>
   <v>      -0.25000000       0.50000000       0.12500000 </v>
   <v>      -0.16666667       0.50000000       0.12500000 </v>
   <v>      -0.08333333       0.50000000       0.12500000 </v>
   <v>      -0.41666667      -0.41666667       0.12500000 </v>
   <v>      -0.33333333      -0.41666667       0.12500000 </v>
   <v>      -0.25000000      -0.41666667       0.12500000 </v>
   <v>      -0.16666667      -0.41666667       0.12500000 </v>
   <v>      -0.08333333      -0.41666667       0.12500000 </v>
   <v>      -0.33333333      -0.33333333       0.12500000 </v>
   <v>      -0.25000000      -0.33333333       0.12500000 </v>
   <v>      -0.16666667      -0.33333333       0.12500000 </v>
   <v>      -0.08333333      -0.33333333       0.12500000 </v>
   <v>      -0.25000000      -0.25000000       0.12500000 </v>
   <v>      -0.16666667      -0.25000000       0.12500000 </v>
   <v>      -0.08333333      -0.25000000       0.12500000 </v>
   <v>      -0.16666667      -0.16666667       0.12500000 </v>
   <v>      -0.08333333      -0.16666667       0.12500000 </v>
   <v>      -0.08333333      -0.08333333       0.12500000 </v>
   <v>       0.16666667       0.08333333       0.25000000 </v>
   <v>       0.33333333       0.08333333       0.25000000 </v>
   <v>       0.41666667       0.08333333       0.25000000 </v>
   <v>       0.50000000       0.08333333       0.25000000 </v>
   <v>      -0.41666667       0.08333333       0.25000000 </v>
   <v>      -0.33333333       0.08333333       0.25000000 </v>
   <v>      -0.25000000       0.08333333       0.25000000 </v>
   <v>      -0.16666667       0.08333333       0.25000000 </v>
   <v>      -0.08333333       0.08333333       0.25000000 </v>
   <v>       0.41666667       0.33333333       0.25000000 </v>
   <v>      -0.41666667       0.33333333       0.25000000 </v>
   <v>      -0.33333333       0.33333333       0.25000000 </v>
   <v>      -0.25000000       0.33333333       0.25000000 </v>
   <v>      -0.16666667       0.33333333       0.25000000 </v>
   <v>      -0.08333333       0.33333333       0.25000000 </v>
   <v>      -0.41666667       0.41666667       0.25000000 </v>
   <v>      -0.33333333       0.41666667       0.25000000 </v>
   <v>      -0.25000000       0.41666667       0.25000000 </v>
   <v>      -0.16666667       0.41666667       0.25000000 </v>
   <v>      -0.25000000       0.50000000       0.25000000 </v>
   <v>      -0.33333333      -0.41666667       0.25000000 </v>
   <v>       0.00000000       0.00000000       0.37500000 </v>
   <v>       0.08333333      -0.00000000       0.37500000 </v>
   <v>       0.16666667      -0.00000000       0.37500000 </v>
   <v>       0.33333333      -0.00000000       0.37500000 </v>
   <v>       0.41666667      -0.00000000       0.37500000 </v>
   <v>      -0.41666667       0.00000000       0.37500000 </v>
   <v>      -0.33333333       0.00000000       0.37500000 </v>
   <v>      -0.25000000       0.00000000       0.37500000 </v>
   <v>      -0.16666667       0.00000000       0.37500000 </v>
   <v>      -0.08333333       0.00000000       0.37500000 </v>
   <v>       0.08333333       0.08333333       0.37500000 </v>
   <v>       0.16666667       0.08333333       0.37500000 </v>
   <v>       0.33333333       0.08333333       0.37500000 </v>
   <v>       0.41666667       0.08333333       0.37500000 </v>
   <v>      -0.41666667       0.08333333       0.37500000 </v>
   <v>      -0.33333333       0.08333333       0.37500000 </v>
   <v>      -0.25000000       0.08333333       0.37500000 </v>
   <v>      -0.16666667       0.08333333       0.37500000 </v>
   <v>      -0.08333333       0.08333333       0.37500000 </v>
   <v>       0.16666667       0.16666667       0.37500000 </v>
   <v>       0.33333333       0.16666667       0.37500000 </v>
   <v>       0.41666667       0.16666667       0.37500000 </v>
   <v>      -0.41666667       0.16666667       0.37500000 </v>
   <v>      -0.33333333       0.16666667       0.37500000 </v>
   <v>      -0.25000000       0.16666667       0.37500000 </v>
   <v>      -0.16666667       0.16666667       0.37500000 </v>
   <v>      -0.08333333       0.16666667       0.37500000 </v>
   <v>       0.33333333       0.33333333       0.37500000 </v>
   <v>       0.41666667       0.33333333       0.37500000 </v>
   <v>      -0.41666667       0.33333333       0.37500000 </v>
   <v>      -0.33333333       0.33333333       0.37500000 </v>
   <v>      -0.25000000       0.33333333       0.37500000 </v>
   <v>      -0.16666667       0.33333333       0.37500000 </v>
   <v>      -0.08333333       0.33333333       0.37500000 </v>
   <v>       0.41666667       0.41666667       0.37500000 </v>
   <v>      -0.41666667       0.41666667       0.37500000 </v>
   <v>      -0.33333333       0.41666667       0.37500000 </v>
   <v>      -0.16666667       0.41666667       0.37500000 </v>
   <v>      -0.08333333       0.41666667       0.37500000 </v>
   <v>      -0.41666667      -0.41666667       0.37500000 </v>
   <v>      -0.33333333      -0.41666667       0.37500000 </v>
   <v>      -0.16666667      -0.41666667       0.37500000 </v>
   <v>      -0.08333333      -0.41666667       0.37500000 </v>
   <v>      -0.33333333      -0.33333333       0.37500000 </v>
   <v>      -0.16666667      -0.33333333       0.37500000 </v>
   <v>      -0.08333333      -0.33333333       0.37500000 </v>
   <v>      -0.16666667      -0.25000000       0.37500000 </v>
   <v>      -0.16666667      -0.16666667       0.37500000 </v>
   <v>      -0.08333333      -0.16666667       0.37500000 </v>
   <v>      -0.08333333      -0.08333333       0.37500000 </v>
   <v>       0.16666667       0.08333333       0.50000000 </v>
   <v>       0.41666667       0.08333333       0.50000000 </v>
   <v>      -0.41666667       0.08333333       0.50000000 </v>
   <v>      -0.33333333       0.08333333       0.50000000 </v>
   <v>      -0.08333333       0.08333333       0.50000000 </v>
   <v>       0.33333333       0.16666667       0.50000000 </v>
   <v>      -0.33333333       0.16666667       0.50000000 </v>
   <v>      -0.16666667       0.16666667       0.50000000 </v>
  </varray>
  <varray name="weights" >
   <v>       0.00086806 </v>
   <v>       0.00347222 </v>
   <v>       0.00347222 </v>
   <v>       0.00694444 </v>
   <v>       0.00347222 </v>
   <v>       0.00347222 </v>
   <v>       0.00347222 </v>
   <v>       0.00173611 </v>
   <v>       0.00347222 </v>
   <v>       0.01041667 </v>
   <v>       0.00694444 </v>
   <v>       0.00347222 </v>
   <v>       0.01041667 </v>
   <v>       0.00694444 </v>
   <v>       0.00347222 </v>
   <v>       0.01041667 </v>
   <v>       0.00694444 </v>
   <v>       0.00173611 </v>
   <v>       0.00173611 </v>
   <v>       0.01041667 </v>
   <v>       0.00347222 </v>
   <v>       0.00694444 </v>
   <v>       0.01041667 </v>
   <v>       0.00347222 </v>
   <v>       0.00694444 </v>
   <v>       0.01041667 </v>
   <v>       0.00173611 </v>
   <v>       0.00520833 </v>
   <v>       0.01041667 </v>
   <v>       0.01041667 </v>
   <v>       0.02083333 </v>
   <v>       0.01041667 </v>
   <v>       0.01041667 </v>
   <v>       0.01041667 </v>
   <v>       0.00173611 </v>
   <v>       0.00347222 </v>
   <v>       0.01041667 </v>
   <v>       0.00694444 </v>
   <v>       0.00173611 </v>
   <v>       0.00173611 </v>
   <v>       0.01041667 </v>
   <v>       0.00173611 </v>
   <v>       0.00260417 </v>
   <v>       0.00173611 </v>
   <v>       0.00347222 </v>
   <v>       0.00347222 </v>
   <v>       0.00520833 </v>
   <v>       0.00347222 </v>
   <v>       0.00347222 </v>
   <v>       0.00520833 </v>
   <v>       0.00347222 </v>
   <v>       0.00347222 </v>
   <v>       0.00520833 </v>
   <v>       0.00347222 </v>
   <v>       0.00347222 </v>
   <v>       0.00173611 </v>
   <v>       0.00347222 </v>
   <v>       0.00694444 </v>
   <v>       0.00347222 </v>
   <v>       0.00347222 </v>
   <v>       0.00694444 </v>
   <v>       0.00347222 </v>
   <v>       0.00347222 </v>
   <v>       0.00694444 </v>
   <v>       0.00347222 </v>
   <v>       0.00347222 </v>
   <v>       0.00173611 </v>
   <v>       0.00347222 </v>
   <v>       0.00347222 </v>
   <v>       0.00694444 </v>
   <v>       0.00347222 </v>
   <v>       0.00347222 </v>
   <v>       0.00694444 </v>
   <v>       0.00347222 </v>
   <v>       0.00347222 </v>
   <v>       0.00694444 </v>
   <v>       0.00694444 </v>
   <v>       0.01041667 </v>
   <v>       0.00694444 </v>
   <v>       0.00173611 </v>
   <v>       0.00347222 </v>
   <v>       0.00694444 </v>
   <v>       0.00347222 </v>
   <v>       0.00347222 </v>
   <v>       0.00694444 </v>
   <v>       0.00347222 </v>
   <v>       0.00347222 </v>
   <v>       0.00173611 </v>
   <v>       0.00694444 </v>
   <v>       0.00347222 </v>
   <v>       0.00347222 </v>
   <v>       0.00694444 </v>
   <v>       0.00347222 </v>
   <v>       0.00347222 </v>
   <v>       0.00520833 </v>
   <v>       0.00694444 </v>
   <v>       0.00694444 </v>
   <v>       0.01041667 </v>
   <v>       0.00694444 </v>
   <v>       0.00694444 </v>
   <v>       0.00173611 </v>
   <v>       0.00347222 </v>
   <v>       0.00694444 </v>
   <v>       0.00347222 </v>
   <v>       0.00347222 </v>
   <v>       0.00173611 </v>
   <v>       0.00694444 </v>
   <v>       0.00347222 </v>
   <v>       0.00347222 </v>
   <v>       0.00520833 </v>
   <v>       0.00694444 </v>
   <v>       0.00694444 </v>
   <v>       0.00173611 </v>
   <v>       0.00347222 </v>
   <v>       0.00173611 </v>
   <v>       0.00347222 </v>
   <v>       0.00694444 </v>
   <v>       0.00694444 </v>
   <v>       0.02083333 </v>
   <v>       0.01388889 </v>
   <v>       0.00694444 </v>
   <v>       0.02083333 </v>
   <v>       0.00694444 </v>
   <v>       0.00694444 </v>
   <v>       0.00694444 </v>
   <v>       0.00694444 </v>
   <v>       0.00694444 </v>
   <v>       0.02083333 </v>
   <v>       0.01388889 </v>
   <v>       0.00347222 </v>
   <v>       0.00694444 </v>
   <v>       0.00694444 </v>
   <v>       0.02083333 </v>
   <v>       0.00347222 </v>
   <v>       0.00520833 </v>
   <v>       0.00347222 </v>
   <v>       0.00173611 </v>
   <v>       0.00347222 </v>
   <v>       0.00347222 </v>
   <v>       0.00347222 </v>
   <v>       0.00347222 </v>
   <v>       0.00347222 </v>
   <v>       0.00347222 </v>
   <v>       0.00520833 </v>
   <v>       0.00347222 </v>
   <v>       0.00347222 </v>
   <v>       0.00173611 </v>
   <v>       0.00347222 </v>
   <v>       0.00347222 </v>
   <v>       0.00347222 </v>
   <v>       0.00347222 </v>
   <v>       0.00347222 </v>
   <v>       0.00694444 </v>
   <v>       0.00347222 </v>
   <v>       0.00347222 </v>
   <v>       0.00173611 </v>
   <v>       0.00347222 </v>
   <v>       0.00347222 </v>
   <v>       0.00347222 </v>
   <v>       0.00347222 </v>
   <v>       0.00694444 </v>
   <v>       0.00347222 </v>
   <v>       0.00347222 </v>
   <v>       0.00173611 </v>
   <v>       0.00347222 </v>
   <v>       0.00347222 </v>
   <v>       0.00347222 </v>
   <v>       0.00694444 </v>
   <v>       0.00347222 </v>
   <v>       0.00347222 </v>
   <v>       0.00173611 </v>
   <v>       0.00347222 </v>
   <v>       0.00347222 </v>
   <v>       0.00347222 </v>
   <v>       0.00347222 </v>
   <v>       0.00173611 </v>
   <v>       0.00347222 </v>
   <v>       0.00347222 </v>
   <v>       0.00347222 </v>
   <v>       0.00173611 </v>
   <v>       0.00347222 </v>
   <v>       0.00347222 </v>
   <v>       0.00694444 </v>
   <v>       0.00173611 </v>
   <v>       0.00347222 </v>
   <v>       0.00173611 </v>
   <v>       0.00694444 </v>
   <v>       0.00347222 </v>
   <v>       0.00347222 </v>
   <v>       0.00694444 </v>
   <v>       0.00347222 </v>
   <v>       0.00347222 </v>
   <v>       0.00347222 </v>
   <v>       0.00347222 </v>
  </varray>
  <varray name="tetrahedronlist"  type="int" >
   <v type="int" >        4        1        2        8       56 </v>
   <v type="int" >        4        1        2       45       56 </v>
   <v type="int" >        4        1       44       45       56 </v>
   <v type="int" >        4        2        8        9       57 </v>
   <v type="int" >        4        2        3        9       57 </v>
   <v type="int" >        4        2        3       46       57 </v>
   <v type="int" >        4        2        8       56       57 </v>
   <v type="int" >        4        2       45       56       57 </v>
   <v type="int" >        4        2       45       46       57 </v>
   <v type="int" >        4        3        9       10       58 </v>
   <v type="int" >        4        3        4       10       58 </v>
   <v type="int" >        4        3        4       47       58 </v>
   <v type="int" >        4        3        9       57       58 </v>
   <v type="int" >        4        3       46       57       58 </v>
   <v type="int" >        4        3       46       47       58 </v>
   <v type="int" >        4        4       10       11       59 </v>
   <v type="int" >        4        4        5       11       59 </v>
   <v type="int" >        4        4        5       48       59 </v>
   <v type="int" >        4        4       10       58       59 </v>
   <v type="int" >        4        4       47       58       59 </v>
   <v type="int" >        4        4       47       48       59 </v>
   <v type="int" >        4        5       11       12       60 </v>
   <v type="int" >        4        5        6       12       60 </v>
   <v type="int" >        4        5        6       49       60 </v>
   <v type="int" >        4        5       11       59       60 </v>
   <v type="int" >        4        5       48       59       60 </v>
   <v type="int" >        4        5       48       49       60 </v>
   <v type="int" >        4        6       12       13       61 </v>
   <v type="int" >        4        6        7       13       61 </v>
   <v type="int" >        4        6        7       50       61 </v>
   <v type="int" >        4        6       12       60       61 </v>
   <v type="int" >        4        6       49       60       61 </v>
   <v type="int" >        4        6       49       50       61 </v>
   <v type="int" >        4        7       13       14       62 </v>
   <v type="int" >        4        6        7       14       62 </v>
   <v type="int" >        4        6        7       51       62 </v>
   <v type="int" >        4        7       13       61       62 </v>
   <v type="int" >        4        7       50       61       62 </v>
   <v type="int" >        4        7       50       51       62 </v>
   <v type="int" >        4        6       14       15       63 </v>
   <v type="int" >        4        5        6       15       63 </v>
   <v type="int" >        4        5        6       52       63 </v>
   <v type="int" >        4        6       14       62       63 </v>
   <v type="int" >        4        6       51       62       63 </v>
   <v type="int" >        4        6       51       52       63 </v>
   <v type="int" >        4        5       15       16       64 </v>
   <v type="int" >        4        4        5       16       64 </v>
   <v type="int" >        4        4        5       53       64 </v>
   <v type="int" >        4        5       15       63       64 </v>
   <v type="int" >        4        5       52       63       64 </v>
   <v type="int" >        4        5       52       53       64 </v>
   <v type="int" >        4        4       16       17       65 </v>
   <v type="int" >        4        3        4       17       65 </v>
   <v type="int" >        4        3        4       54       65 </v>
   <v type="int" >        4        4       16       64       65 </v>
   <v type="int" >        4        4       53       64       65 </v>
   <v type="int" >        4        4       53       54       65 </v>
   <v type="int" >        4        3       17       18       66 </v>
   <v type="int" >        4        2        3       18       66 </v>
   <v type="int" >        4        2        3       55       66 </v>
   <v type="int" >        4        3       17       65       66 </v>
   <v type="int" >        4        3       54       65       66 </v>
   <v type="int" >        4        3       54       55       66 </v>
   <v type="int" >        4        2        2       18       45 </v>
   <v type="int" >        4        1        2        2       45 </v>
   <v type="int" >        4        1        2       44       45 </v>
   <v type="int" >        4        2       18       45       66 </v>
   <v type="int" >        4        2       45       55       66 </v>
   <v type="int" >        4        2       44       45       55 </v>
   <v type="int" >        4        8        9       19       67 </v>
   <v type="int" >        4        8        9       57       67 </v>
   <v type="int" >        4        8       56       57       67 </v>
   <v type="int" >        4        9       19       20       58 </v>
   <v type="int" >        4        9       10       20       58 </v>
   <v type="int" >        4        9       10       58       58 </v>
   <v type="int" >        4        9       19       58       67 </v>
   <v type="int" >        4        9       57       58       67 </v>
   <v type="int" >        4        9       57       58       58 </v>
   <v type="int" >        4       10       20       21       68 </v>
   <v type="int" >        4       10       11       21       68 </v>
   <v type="int" >        4       10       11       59       68 </v>
   <v type="int" >        4       10       20       58       68 </v>
   <v type="int" >        4       10       58       58       68 </v>
   <v type="int" >        4       10       58       59       68 </v>
   <v type="int" >        4       11       21       22       69 </v>
   <v type="int" >        4       11       12       22       69 </v>
   <v type="int" >        4       11       12       60       69 </v>
   <v type="int" >        4       11       21       68       69 </v>
   <v type="int" >        4       11       59       68       69 </v>
   <v type="int" >        4       11       59       60       69 </v>
   <v type="int" >        4       12       22       23       70 </v>
   <v type="int" >        4       12       13       23       70 </v>
   <v type="int" >        4       12       13       61       70 </v>
   <v type="int" >        4       12       22       69       70 </v>
   <v type="int" >        4       12       60       69       70 </v>
   <v type="int" >        4       12       60       61       70 </v>
   <v type="int" >        4       13       23       24       71 </v>
   <v type="int" >        4       13       14       24       71 </v>
   <v type="int" >        4       13       14       62       71 </v>
   <v type="int" >        4       13       23       70       71 </v>
   <v type="int" >        4       13       61       70       71 </v>
   <v type="int" >        4       13       61       62       71 </v>
   <v type="int" >        4       14       24       25       72 </v>
   <v type="int" >        4       14       15       25       72 </v>
   <v type="int" >        4       14       15       63       72 </v>
   <v type="int" >        4       14       24       71       72 </v>
   <v type="int" >        4       14       62       71       72 </v>
   <v type="int" >        4       14       62       63       72 </v>
   <v type="int" >        4       15       25       26       73 </v>
   <v type="int" >        4       15       16       26       73 </v>
   <v type="int" >        4       15       16       64       73 </v>
   <v type="int" >        4       15       25       72       73 </v>
   <v type="int" >        4       15       63       72       73 </v>
   <v type="int" >        4       15       63       64       73 </v>
   <v type="int" >        4       16       26       27       74 </v>
   <v type="int" >        4       16       17       27       74 </v>
   <v type="int" >        4       16       17       65       74 </v>
   <v type="int" >        4       16       26       73       74 </v>
   <v type="int" >        4       16       64       73       74 </v>
   <v type="int" >        4       16       64       65       74 </v>
   <v type="int" >        4       17       17       27       75 </v>
   <v type="int" >        4       17       17       18       75 </v>
   <v type="int" >        4       17       18       66       75 </v>
   <v type="int" >        4       17       27       74       75 </v>
   <v type="int" >        4       17       65       74       75 </v>
   <v type="int" >        4       17       65       66       75 </v>
   <v type="int" >        4        3       17       18       46 </v>
   <v type="int" >        4        2        3       18       46 </v>
   <v type="int" >        4        2       18       45       46 </v>
   <v type="int" >        4       17       18       46       75 </v>
   <v type="int" >        4       18       46       66       75 </v>
   <v type="int" >        4       18       45       46       66 </v>
   <v type="int" >        4       19       20       28       47 </v>
   <v type="int" >        4       19       20       47       58 </v>
   <v type="int" >        4       19       47       58       67 </v>
   <v type="int" >        4       20       28       29       76 </v>
   <v type="int" >        4       20       21       29       76 </v>
   <v type="int" >        4       20       21       68       76 </v>
   <v type="int" >        4       20       28       47       76 </v>
   <v type="int" >        4       20       47       58       76 </v>
   <v type="int" >        4       20       58       68       76 </v>
   <v type="int" >        4       21       29       30       77 </v>
   <v type="int" >        4       21       22       30       77 </v>
   <v type="int" >        4       21       22       69       77 </v>
   <v type="int" >        4       21       29       76       77 </v>
   <v type="int" >        4       21       68       76       77 </v>
   <v type="int" >        4       21       68       69       77 </v>
   <v type="int" >        4       22       30       31       78 </v>
   <v type="int" >        4       22       23       31       78 </v>
   <v type="int" >        4       22       23       70       78 </v>
   <v type="int" >        4       22       30       77       78 </v>
   <v type="int" >        4       22       69       77       78 </v>
   <v type="int" >        4       22       69       70       78 </v>
   <v type="int" >        4       23       31       32       79 </v>
   <v type="int" >        4       23       24       32       79 </v>
   <v type="int" >        4       23       24       71       79 </v>
   <v type="int" >        4       23       31       78       79 </v>
   <v type="int" >        4       23       70       78       79 </v>
   <v type="int" >        4       23       70       71       79 </v>
   <v type="int" >        4       24       32       33       79 </v>
   <v type="int" >        4       24       25       33       79 </v>
   <v type="int" >        4       24       25       72       79 </v>
   <v type="int" >        4       24       32       79       79 </v>
   <v type="int" >        4       24       71       79       79 </v>
   <v type="int" >        4       24       71       72       79 </v>
   <v type="int" >        4       25       33       34       78 </v>
   <v type="int" >        4       25       26       34       78 </v>
   <v type="int" >        4       25       26       73       78 </v>
   <v type="int" >        4       25       33       78       79 </v>
   <v type="int" >        4       25       72       78       79 </v>
   <v type="int" >        4       25       72       73       78 </v>
   <v type="int" >        4       26       26       34       77 </v>
   <v type="int" >        4       26       26       27       77 </v>
   <v type="int" >        4       26       27       74       77 </v>
   <v type="int" >        4       26       34       77       78 </v>
   <v type="int" >        4       26       73       77       78 </v>
   <v type="int" >        4       26       73       74       77 </v>
   <v type="int" >        4       16       26       27       76 </v>
   <v type="int" >        4       16       17       27       76 </v>
   <v type="int" >        4       17       27       75       76 </v>
   <v type="int" >        4       26       27       76       77 </v>
   <v type="int" >        4       27       74       76       77 </v>
   <v type="int" >        4       27       74       75       76 </v>
   <v type="int" >        4        4       16       17       47 </v>
   <v type="int" >        4        3        4       17       47 </v>
   <v type="int" >        4        3       17       46       47 </v>
   <v type="int" >        4       16       17       47       76 </v>
   <v type="int" >        4       17       47       75       76 </v>
   <v type="int" >        4       17       46       47       75 </v>
   <v type="int" >        4       28       29       35       80 </v>
   <v type="int" >        4       28       29       76       80 </v>
   <v type="int" >        4       28       47       76       80 </v>
   <v type="int" >        4       29       35       36       81 </v>
   <v type="int" >        4       29       30       36       81 </v>
   <v type="int" >        4       29       30       77       81 </v>
   <v type="int" >        4       29       35       80       81 </v>
   <v type="int" >        4       29       76       80       81 </v>
   <v type="int" >        4       29       76       77       81 </v>
   <v type="int" >        4       30       36       37       82 </v>
   <v type="int" >        4       30       31       37       82 </v>
   <v type="int" >        4       30       31       78       82 </v>
   <v type="int" >        4       30       36       81       82 </v>
   <v type="int" >        4       30       77       81       82 </v>
   <v type="int" >        4       30       77       78       82 </v>
   <v type="int" >        4       31       37       38       83 </v>
   <v type="int" >        4       31       32       38       83 </v>
   <v type="int" >        4       31       32       79       83 </v>
   <v type="int" >        4       31       37       82       83 </v>
   <v type="int" >        4       31       78       82       83 </v>
   <v type="int" >        4       31       78       79       83 </v>
   <v type="int" >        4       32       38       39       84 </v>
   <v type="int" >        4       32       33       39       84 </v>
   <v type="int" >        4       32       33       79       84 </v>
   <v type="int" >        4       32       38       83       84 </v>
   <v type="int" >        4       32       79       83       84 </v>
   <v type="int" >        4       32       79       79       84 </v>
   <v type="int" >        4       33       33       39       85 </v>
   <v type="int" >        4       33       33       34       85 </v>
   <v type="int" >        4       33       34       78       85 </v>
   <v type="int" >        4       33       39       84       85 </v>
   <v type="int" >        4       33       79       84       85 </v>
   <v type="int" >        4       33       78       79       85 </v>
   <v type="int" >        4       25       33       34       86 </v>
   <v type="int" >        4       25       26       34       86 </v>
   <v type="int" >        4       26       34       77       86 </v>
   <v type="int" >        4       33       34       85       86 </v>
   <v type="int" >        4       34       78       85       86 </v>
   <v type="int" >        4       34       77       78       86 </v>
   <v type="int" >        4       15       25       26       87 </v>
   <v type="int" >        4       15       16       26       87 </v>
   <v type="int" >        4       16       26       76       87 </v>
   <v type="int" >        4       25       26       86       87 </v>
   <v type="int" >        4       26       77       86       87 </v>
   <v type="int" >        4       26       76       77       87 </v>
   <v type="int" >        4        5       15       16       48 </v>
   <v type="int" >        4        4        5       16       48 </v>
   <v type="int" >        4        4       16       47       48 </v>
   <v type="int" >        4       15       16       48       87 </v>
   <v type="int" >        4       16       48       76       87 </v>
   <v type="int" >        4       16       47       48       76 </v>
   <v type="int" >        4       35       36       40       88 </v>
   <v type="int" >        4       35       36       81       88 </v>
   <v type="int" >        4       35       80       81       88 </v>
   <v type="int" >        4       36       40       41       89 </v>
   <v type="int" >        4       36       37       41       89 </v>
   <v type="int" >        4       36       37       82       89 </v>
   <v type="int" >        4       36       40       88       89 </v>
   <v type="int" >        4       36       81       88       89 </v>
   <v type="int" >        4       36       81       82       89 </v>
   <v type="int" >        4       37       41       42       90 </v>
   <v type="int" >        4       37       38       42       90 </v>
   <v type="int" >        4       37       38       83       90 </v>
   <v type="int" >        4       37       41       89       90 </v>
   <v type="int" >        4       37       82       89       90 </v>
   <v type="int" >        4       37       82       83       90 </v>
   <v type="int" >        4       38       38       42       91 </v>
   <v type="int" >        4       38       38       39       91 </v>
   <v type="int" >        4       38       39       84       91 </v>
   <v type="int" >        4       38       42       90       91 </v>
   <v type="int" >        4       38       83       90       91 </v>
   <v type="int" >        4       38       83       84       91 </v>
   <v type="int" >        4       32       38       39       92 </v>
   <v type="int" >        4       32       33       39       92 </v>
   <v type="int" >        4       33       39       85       92 </v>
   <v type="int" >        4       38       39       91       92 </v>
   <v type="int" >        4       39       84       91       92 </v>
   <v type="int" >        4       39       84       85       92 </v>
   <v type="int" >        4       24       32       33       93 </v>
   <v type="int" >        4       24       25       33       93 </v>
   <v type="int" >        4       25       33       86       93 </v>
   <v type="int" >        4       32       33       92       93 </v>
   <v type="int" >        4       33       85       92       93 </v>
   <v type="int" >        4       33       85       86       93 </v>
   <v type="int" >        4       14       24       25       94 </v>
   <v type="int" >        4       14       15       25       94 </v>
   <v type="int" >        4       15       25       87       94 </v>
   <v type="int" >        4       24       25       93       94 </v>
   <v type="int" >        4       25       86       93       94 </v>
   <v type="int" >        4       25       86       87       94 </v>
   <v type="int" >        4        6       14       15       49 </v>
   <v type="int" >        4        5        6       15       49 </v>
   <v type="int" >        4        5       15       48       49 </v>
   <v type="int" >        4       14       15       49       94 </v>
   <v type="int" >        4       15       49       87       94 </v>
   <v type="int" >        4       15       48       49       87 </v>
   <v type="int" >        4       40       41       43       95 </v>
   <v type="int" >        4       40       41       89       95 </v>
   <v type="int" >        4       40       88       89       95 </v>
   <v type="int" >        8       41       41       43       96 </v>
   <v type="int" >        4       41       41       42       96 </v>
   <v type="int" >        4       41       42       90       96 </v>
   <v type="int" >        8       41       43       95       96 </v>
   <v type="int" >        4       41       89       95       96 </v>
   <v type="int" >        4       41       89       90       96 </v>
   <v type="int" >        4       37       41       42       97 </v>
   <v type="int" >        4       37       38       42       97 </v>
   <v type="int" >        4       38       42       91       97 </v>
   <v type="int" >        4       41       42       96       97 </v>
   <v type="int" >        4       42       90       96       97 </v>
   <v type="int" >        4       42       90       91       97 </v>
   <v type="int" >        4       31       37       38       98 </v>
   <v type="int" >        4       31       32       38       98 </v>
   <v type="int" >        4       32       38       92       98 </v>
   <v type="int" >        4       37       38       97       98 </v>
   <v type="int" >        4       38       91       97       98 </v>
   <v type="int" >        4       38       91       92       98 </v>
   <v type="int" >        4       23       31       32       99 </v>
   <v type="int" >        4       23       24       32       99 </v>
   <v type="int" >        4       24       32       93       99 </v>
   <v type="int" >        4       31       32       98       99 </v>
   <v type="int" >        4       32       92       98       99 </v>
   <v type="int" >        4       32       92       93       99 </v>
   <v type="int" >        4       13       23       24      100 </v>
   <v type="int" >        4       13       14       24      100 </v>
   <v type="int" >        4       14       24       94      100 </v>
   <v type="int" >        4       23       24       99      100 </v>
   <v type="int" >        4       24       93       99      100 </v>
   <v type="int" >        4       24       93       94      100 </v>
   <v type="int" >        8        7       13       14       50 </v>
   <v type="int" >        4        6        7       14       50 </v>
   <v type="int" >        4        6       14       49       50 </v>
   <v type="int" >        8       13       14       50      100 </v>
   <v type="int" >        4       14       50       94      100 </v>
   <v type="int" >        4       14       49       50       94 </v>
   <v type="int" >        4       40       41       43      101 </v>
   <v type="int" >        4       41       43       96      101 </v>
   <v type="int" >        4       43       95       96      101 </v>
   <v type="int" >        4       36       40       41      102 </v>
   <v type="int" >        4       36       37       41      102 </v>
   <v type="int" >        4       37       41       97      102 </v>
   <v type="int" >        4       40       41      101      102 </v>
   <v type="int" >        4       41       96      101      102 </v>
   <v type="int" >        4       41       96       97      102 </v>
   <v type="int" >        4       30       36       37      103 </v>
   <v type="int" >        4       30       31       37      103 </v>
   <v type="int" >        4       31       37       98      103 </v>
   <v type="int" >        4       36       37      102      103 </v>
   <v type="int" >        4       37       97      102      103 </v>
   <v type="int" >        4       37       97       98      103 </v>
   <v type="int" >        4       22       30       31      104 </v>
   <v type="int" >        4       22       23       31      104 </v>
   <v type="int" >        4       23       31       99      104 </v>
   <v type="int" >        4       30       31      103      104 </v>
   <v type="int" >        4       31       98      103      104 </v>
   <v type="int" >        4       31       98       99      104 </v>
   <v type="int" >        4       12       22       23      105 </v>
   <v type="int" >        4       12       13       23      105 </v>
   <v type="int" >        4       13       23      100      105 </v>
   <v type="int" >        4       22       23      104      105 </v>
   <v type="int" >        4       23       99      104      105 </v>
   <v type="int" >        4       23       99      100      105 </v>
   <v type="int" >        4        6       12       13       51 </v>
   <v type="int" >        4        6        7       13       51 </v>
   <v type="int" >        4        7       13       50       51 </v>
   <v type="int" >        4       12       13       51      105 </v>
   <v type="int" >        4       13       51      100      105 </v>
   <v type="int" >        4       13       50       51      100 </v>
   <v type="int" >        4       35       36       40      106 </v>
   <v type="int" >        4       36       40      102      106 </v>
   <v type="int" >        4       40      101      102      106 </v>
   <v type="int" >        4       29       35       36      107 </v>
   <v type="int" >        4       29       30       36      107 </v>
   <v type="int" >        4       30       36      103      107 </v>
   <v type="int" >        4       35       36      106      107 </v>
   <v type="int" >        4       36      102      106      107 </v>
   <v type="int" >        4       36      102      103      107 </v>
   <v type="int" >        4       21       29       30      108 </v>
   <v type="int" >        4       21       22       30      108 </v>
   <v type="int" >        4       22       30      104      108 </v>
   <v type="int" >        4       29       30      107      108 </v>
   <v type="int" >        4       30      103      107      108 </v>
   <v type="int" >        4       30      103      104      108 </v>
   <v type="int" >        4       11       21       22      109 </v>
   <v type="int" >        4       11       12       22      109 </v>
   <v type="int" >        4       12       22      105      109 </v>
   <v type="int" >        4       21       22      108      109 </v>
   <v type="int" >        4       22      104      108      109 </v>
   <v type="int" >        4       22      104      105      109 </v>
   <v type="int" >        4        5       11       12       52 </v>
   <v type="int" >        4        5        6       12       52 </v>
   <v type="int" >        4        6       12       51       52 </v>
   <v type="int" >        4       11       12       52      109 </v>
   <v type="int" >        4       12       52      105      109 </v>
   <v type="int" >        4       12       51       52      105 </v>
   <v type="int" >        4       28       29       35      110 </v>
   <v type="int" >        4       29       35      107      110 </v>
   <v type="int" >        4       35      106      107      110 </v>
   <v type="int" >        4       20       28       29      111 </v>
   <v type="int" >        4       20       21       29      111 </v>
   <v type="int" >        4       21       29      108      111 </v>
   <v type="int" >        4       28       29      110      111 </v>
   <v type="int" >        4       29      107      110      111 </v>
   <v type="int" >        4       29      107      108      111 </v>
   <v type="int" >        4       10       20       21      112 </v>
   <v type="int" >        4       10       11       21      112 </v>
   <v type="int" >        4       11       21      109      112 </v>
   <v type="int" >        4       20       21      111      112 </v>
   <v type="int" >        4       21      108      111      112 </v>
   <v type="int" >        4       21      108      109      112 </v>
   <v type="int" >        4        4       10       11       53 </v>
   <v type="int" >        4        4        5       11       53 </v>
   <v type="int" >        4        5       11       52       53 </v>
   <v type="int" >        4       10       11       53      112 </v>
   <v type="int" >        4       11       53      109      112 </v>
   <v type="int" >        4       11       52       53      109 </v>
   <v type="int" >        4       19       20       28      113 </v>
   <v type="int" >        4       20       28      111      113 </v>
   <v type="int" >        4       28      110      111      113 </v>
   <v type="int" >        4        9       19       20      114 </v>
   <v type="int" >        4        9       10       20      114 </v>
   <v type="int" >        4       10       20      112      114 </v>
   <v type="int" >        4       19       20      113      114 </v>
   <v type="int" >        4       20      111      113      114 </v>
   <v type="int" >        4       20      111      112      114 </v>
   <v type="int" >        4        3        9       10       54 </v>
   <v type="int" >        4        3        4       10       54 </v>
   <v type="int" >        4        4       10       53       54 </v>
   <v type="int" >        4        9       10       54      114 </v>
   <v type="int" >        4       10       54      112      114 </v>
   <v type="int" >        4       10       53       54      112 </v>
   <v type="int" >        4        8        9       19      115 </v>
   <v type="int" >        4        9       19      114      115 </v>
   <v type="int" >        4       19      113      114      115 </v>
   <v type="int" >        4        2        8        9       55 </v>
   <v type="int" >        4        2        3        9       55 </v>
   <v type="int" >        4        3        9       54       55 </v>
   <v type="int" >        4        8        9       55      115 </v>
   <v type="int" >        4        9       55      114      115 </v>
   <v type="int" >        4        9       54       55      114 </v>
   <v type="int" >        4        1        2        8       44 </v>
   <v type="int" >        4        2        8       44       55 </v>
   <v type="int" >        4        8       44       55      115 </v>
   <v type="int" >        4       17       44       45       56 </v>
   <v type="int" >        4       10       17       44       45 </v>
   <v type="int" >        4        4       10       17       44 </v>
   <v type="int" >        4       45       56       57      116 </v>
   <v type="int" >        4       45       46       57      116 </v>
   <v type="int" >        4       20       45       46      116 </v>
   <v type="int" >        4       17       45       56      116 </v>
   <v type="int" >        4       10       17       45      116 </v>
   <v type="int" >        4       10       20       45      116 </v>
   <v type="int" >        4       20       46       57       58 </v>
   <v type="int" >        4       20       46       47       58 </v>
   <v type="int" >        4       20       28       46       47 </v>
   <v type="int" >        4       20       46       57      116 </v>
   <v type="int" >        4       20       20       46      116 </v>
   <v type="int" >        4       20       20       28       46 </v>
   <v type="int" >        4       47       58       59      117 </v>
   <v type="int" >        4       47       48       59      117 </v>
   <v type="int" >        4       29       47       48      117 </v>
   <v type="int" >        4       20       47       58      117 </v>
   <v type="int" >        4       20       28       47      117 </v>
   <v type="int" >        4       28       29       47      117 </v>
   <v type="int" >        4       48       59       60      118 </v>
   <v type="int" >        4       48       49       60      118 </v>
   <v type="int" >        4       30       48       49      118 </v>
   <v type="int" >        4       48       59      117      118 </v>
   <v type="int" >        4       29       48      117      118 </v>
   <v type="int" >        4       29       30       48      118 </v>
   <v type="int" >        4       49       60       61      119 </v>
   <v type="int" >        4       49       50       61      119 </v>
   <v type="int" >        4       31       49       50      119 </v>
   <v type="int" >        4       49       60      118      119 </v>
   <v type="int" >        4       30       49      118      119 </v>
   <v type="int" >        4       30       31       49      119 </v>
   <v type="int" >        4       50       61       62      120 </v>
   <v type="int" >        4       50       51       62      120 </v>
   <v type="int" >        4       32       50       51      120 </v>
   <v type="int" >        4       50       61      119      120 </v>
   <v type="int" >        4       31       50      119      120 </v>
   <v type="int" >        4       31       32       50      120 </v>
   <v type="int" >        4       51       62       63      121 </v>
   <v type="int" >        4       51       52       63      121 </v>
   <v type="int" >        4       33       51       52      121 </v>
   <v type="int" >        4       51       62      120      121 </v>
   <v type="int" >        4       32       51      120      121 </v>
   <v type="int" >        4       32       33       51      121 </v>
   <v type="int" >        4       52       63       64      122 </v>
   <v type="int" >        4       52       53       64      122 </v>
   <v type="int" >        4       34       52       53      122 </v>
   <v type="int" >        4       52       63      121      122 </v>
   <v type="int" >        4       33       52      121      122 </v>
   <v type="int" >        4       33       34       52      122 </v>
   <v type="int" >        4       53       64       65      123 </v>
   <v type="int" >        4       53       54       65      123 </v>
   <v type="int" >        4       26       53       54      123 </v>
   <v type="int" >        4       53       64      122      123 </v>
   <v type="int" >        4       34       53      122      123 </v>
   <v type="int" >        4       26       34       53      123 </v>
   <v type="int" >        4       54       65       66      124 </v>
   <v type="int" >        4       54       55       66      124 </v>
   <v type="int" >        4       16       54       55      124 </v>
   <v type="int" >        4       54       65      123      124 </v>
   <v type="int" >        4       26       54      123      124 </v>
   <v type="int" >        4       16       26       54      124 </v>
   <v type="int" >        4       10       45       55       66 </v>
   <v type="int" >        4       10       44       45       55 </v>
   <v type="int" >        4        4       10       44       55 </v>
   <v type="int" >        4       10       55       66      124 </v>
   <v type="int" >        4       10       16       55      124 </v>
   <v type="int" >        4        4       10       16       55 </v>
   <v type="int" >        4       17       56       57       67 </v>
   <v type="int" >        4       17       56       57      116 </v>
   <v type="int" >        4       17       17       56      116 </v>
   <v type="int" >        4       10       57       58       67 </v>
   <v type="int" >        4       10       57       58       58 </v>
   <v type="int" >        4       10       20       57       58 </v>
   <v type="int" >        4       10       17       57       67 </v>
   <v type="int" >        4       10       17       57      116 </v>
   <v type="int" >        4       10       20       57      116 </v>
   <v type="int" >        4       58       58       68      124 </v>
   <v type="int" >        4       58       59       68      124 </v>
   <v type="int" >        4       58       59      117      124 </v>
   <v type="int" >        4       10       58       58      124 </v>
   <v type="int" >        4       10       20       58      124 </v>
   <v type="int" >        4       20       58      117      124 </v>
   <v type="int" >        4       59       68       69      123 </v>
   <v type="int" >        4       59       60       69      123 </v>
   <v type="int" >        4       59       60      118      123 </v>
   <v type="int" >        4       59       68      123      124 </v>
   <v type="int" >        4       59      117      123      124 </v>
   <v type="int" >        4       59      117      118      123 </v>
   <v type="int" >        4       60       69       70      122 </v>
   <v type="int" >        4       60       61       70      122 </v>
   <v type="int" >        4       60       61      119      122 </v>
   <v type="int" >        4       60       69      122      123 </v>
   <v type="int" >        4       60      118      122      123 </v>
   <v type="int" >        4       60      118      119      122 </v>
   <v type="int" >        4       61       70       71      121 </v>
   <v type="int" >        4       61       62       71      121 </v>
   <v type="int" >        4       61       62      120      121 </v>
   <v type="int" >        4       61       70      121      122 </v>
   <v type="int" >        4       61      119      121      122 </v>
   <v type="int" >        4       61      119      120      121 </v>
   <v type="int" >        4       62       71       72      120 </v>
   <v type="int" >        4       62       63       72      120 </v>
   <v type="int" >        4       62       63      120      121 </v>
   <v type="int" >        4       62       71      120      121 </v>
   <v type="int" >        8       62      120      120      121 </v>
   <v type="int" >        4       63       72       73      119 </v>
   <v type="int" >        4       63       64       73      119 </v>
   <v type="int" >        4       63       64      119      122 </v>
   <v type="int" >        4       63       72      119      120 </v>
   <v type="int" >        4       63      119      120      121 </v>
   <v type="int" >        4       63      119      121      122 </v>
   <v type="int" >        4       64       73       74      118 </v>
   <v type="int" >        4       64       65       74      118 </v>
   <v type="int" >        4       64       65      118      123 </v>
   <v type="int" >        4       64       73      118      119 </v>
   <v type="int" >        4       64      118      119      122 </v>
   <v type="int" >        4       64      118      122      123 </v>
   <v type="int" >        4       65       74       75      117 </v>
   <v type="int" >        4       65       66       75      117 </v>
   <v type="int" >        4       65       66      117      124 </v>
   <v type="int" >        4       65       74      117      118 </v>
   <v type="int" >        4       65      117      118      123 </v>
   <v type="int" >        4       65      117      123      124 </v>
   <v type="int" >        4       20       46       66       75 </v>
   <v type="int" >        4       20       45       46       66 </v>
   <v type="int" >        4       10       20       45       66 </v>
   <v type="int" >        4       20       66       75      117 </v>
   <v type="int" >        4       20       66      117      124 </v>
   <v type="int" >        4       10       20       66      124 </v>
   <v type="int" >        4        4       47       58       67 </v>
   <v type="int" >        4        4       10       58       67 </v>
   <v type="int" >        4        4       10       17       67 </v>
   <v type="int" >        4       16       47       58       76 </v>
   <v type="int" >        4       16       58       68       76 </v>
   <v type="int" >        4       16       58       68      124 </v>
   <v type="int" >        4        4       16       47       58 </v>
   <v type="int" >        4        4       10       16       58 </v>
   <v type="int" >        4       10       16       58      124 </v>
   <v type="int" >        4       26       68       76       77 </v>
   <v type="int" >        4       26       68       69       77 </v>
   <v type="int" >        4       26       68       69      123 </v>
   <v type="int" >        4       16       26       68       76 </v>
   <v type="int" >        4       16       26       68      124 </v>
   <v type="int" >        4       26       68      123      124 </v>
   <v type="int" >        4       34       69       77       78 </v>
   <v type="int" >        4       34       69       70       78 </v>
   <v type="int" >        4       34       69       70      122 </v>
   <v type="int" >        4       26       34       69       77 </v>
   <v type="int" >        4       26       34       69      123 </v>
   <v type="int" >        4       34       69      122      123 </v>
   <v type="int" >        4       33       70       78       79 </v>
   <v type="int" >        4       33       70       71       79 </v>
   <v type="int" >        4       33       70       71      121 </v>
   <v type="int" >        4       33       34       70       78 </v>
   <v type="int" >        4       33       34       70      122 </v>
   <v type="int" >        4       33       70      121      122 </v>
   <v type="int" >        4       32       71       79       79 </v>
   <v type="int" >        4       32       71       72       79 </v>
   <v type="int" >        4       32       71       72      120 </v>
   <v type="int" >        4       32       33       71       79 </v>
   <v type="int" >        4       32       33       71      121 </v>
   <v type="int" >        4       32       71      120      121 </v>
   <v type="int" >        4       31       72       78       79 </v>
   <v type="int" >        4       31       72       73       78 </v>
   <v type="int" >        4       31       72       73      119 </v>
   <v type="int" >        4       31       32       72       79 </v>
   <v type="int" >        4       31       32       72      120 </v>
   <v type="int" >        4       31       72      119      120 </v>
   <v type="int" >        4       30       73       77       78 </v>
   <v type="int" >        4       30       73       74       77 </v>
   <v type="int" >        4       30       73       74      118 </v>
   <v type="int" >        4       30       31       73       78 </v>
   <v type="int" >        4       30       31       73      119 </v>
   <v type="int" >        4       30       73      118      119 </v>
   <v type="int" >        4       29       74       76       77 </v>
   <v type="int" >        4       29       74       75       76 </v>
   <v type="int" >        4       29       74       75      117 </v>
   <v type="int" >        4       29       30       74       77 </v>
   <v type="int" >        4       29       30       74      118 </v>
   <v type="int" >        4       29       74      117      118 </v>
   <v type="int" >        4       28       47       75       76 </v>
   <v type="int" >        4       28       46       47       75 </v>
   <v type="int" >        4       20       28       46       75 </v>
   <v type="int" >        4       28       29       75       76 </v>
   <v type="int" >        4       28       29       75      117 </v>
   <v type="int" >        4       20       28       75      117 </v>
   <v type="int" >        4       11       47       76       80 </v>
   <v type="int" >        4       11       16       47       76 </v>
   <v type="int" >        4        4       11       16       47 </v>
   <v type="int" >        4       76       80       81      125 </v>
   <v type="int" >        4       76       77       81      125 </v>
   <v type="int" >        4       26       76       77      125 </v>
   <v type="int" >        4       11       76       80      125 </v>
   <v type="int" >        4       11       16       76      125 </v>
   <v type="int" >        4       16       26       76      125 </v>
   <v type="int" >        4       77       81       82      122 </v>
   <v type="int" >        4       77       78       82      122 </v>
   <v type="int" >        4       34       77       78      122 </v>
   <v type="int" >        4       77       81      122      125 </v>
   <v type="int" >        4       26       77      122      125 </v>
   <v type="int" >        4       26       34       77      122 </v>
   <v type="int" >        4       78       82       83      126 </v>
   <v type="int" >        4       78       79       83      126 </v>
   <v type="int" >        4       33       78       79      126 </v>
   <v type="int" >        4       78       82      122      126 </v>
   <v type="int" >        4       34       78      122      126 </v>
   <v type="int" >        4       33       34       78      126 </v>
   <v type="int" >        4       79       83       84      127 </v>
   <v type="int" >        4       79       79       84      127 </v>
   <v type="int" >        4       32       79       79      127 </v>
   <v type="int" >        4       79       83      126      127 </v>
   <v type="int" >        4       33       79      126      127 </v>
   <v type="int" >        4       32       33       79      127 </v>
   <v type="int" >        4       79       84       85      128 </v>
   <v type="int" >        4       78       79       85      128 </v>
   <v type="int" >        4       31       78       79      128 </v>
   <v type="int" >        4       79       84      127      128 </v>
   <v type="int" >        4       32       79      127      128 </v>
   <v type="int" >        4       31       32       79      128 </v>
   <v type="int" >        4       78       85       86      129 </v>
   <v type="int" >        4       77       78       86      129 </v>
   <v type="int" >        4       30       77       78      129 </v>
   <v type="int" >        4       78       85      128      129 </v>
   <v type="int" >        4       31       78      128      129 </v>
   <v type="int" >        4       30       31       78      129 </v>
   <v type="int" >        4       77       86       87      130 </v>
   <v type="int" >        4       76       77       87      130 </v>
   <v type="int" >        4       29       76       77      130 </v>
   <v type="int" >        4       77       86      129      130 </v>
   <v type="int" >        4       30       77      129      130 </v>
   <v type="int" >        4       29       30       77      130 </v>
   <v type="int" >        4       29       48       76       87 </v>
   <v type="int" >        4       29       47       48       76 </v>
   <v type="int" >        4       28       29       47       76 </v>
   <v type="int" >        4       29       76       87      130 </v>
   <v type="int" >        4       29       29       76      130 </v>
   <v type="int" >        4       28       29       29       76 </v>
   <v type="int" >        4       22       80       81       88 </v>
   <v type="int" >        4       22       80       81      125 </v>
   <v type="int" >        4       11       22       80      125 </v>
   <v type="int" >        4       81       88       89      119 </v>
   <v type="int" >        4       81       82       89      119 </v>
   <v type="int" >        4       81       82      119      122 </v>
   <v type="int" >        4       22       81       88      119 </v>
   <v type="int" >        4       22       81      119      125 </v>
   <v type="int" >        4       81      119      122      125 </v>
   <v type="int" >        4       82       89       90      131 </v>
   <v type="int" >        4       82       83       90      131 </v>
   <v type="int" >        4       82       83      126      131 </v>
   <v type="int" >        4       82       89      119      131 </v>
   <v type="int" >        4       82      119      122      131 </v>
   <v type="int" >        4       82      122      126      131 </v>
   <v type="int" >        4       83       90       91      132 </v>
   <v type="int" >        4       83       84       91      132 </v>
   <v type="int" >        4       83       84      127      132 </v>
   <v type="int" >        4       83       90      131      132 </v>
   <v type="int" >        4       83      126      131      132 </v>
   <v type="int" >        4       83      126      127      132 </v>
   <v type="int" >        4       84       91       92      133 </v>
   <v type="int" >        4       84       85       92      133 </v>
   <v type="int" >        4       84       85      128      133 </v>
   <v type="int" >        4       84       91      132      133 </v>
   <v type="int" >        4       84      127      132      133 </v>
   <v type="int" >        4       84      127      128      133 </v>
   <v type="int" >        4       85       92       93      134 </v>
   <v type="int" >        4       85       86       93      134 </v>
   <v type="int" >        4       85       86      129      134 </v>
   <v type="int" >        4       85       92      133      134 </v>
   <v type="int" >        4       85      128      133      134 </v>
   <v type="int" >        4       85      128      129      134 </v>
   <v type="int" >        4       86       93       94      129 </v>
   <v type="int" >        4       86       87       94      129 </v>
   <v type="int" >        4       86       87      129      130 </v>
   <v type="int" >        4       86       93      129      134 </v>
   <v type="int" >        4       86      129      129      134 </v>
   <v type="int" >        4       86      129      129      130 </v>
   <v type="int" >        4       30       49       87       94 </v>
   <v type="int" >        4       30       48       49       87 </v>
   <v type="int" >        4       29       30       48       87 </v>
   <v type="int" >        4       30       87       94      129 </v>
   <v type="int" >        4       30       87      129      130 </v>
   <v type="int" >        4       29       30       87      130 </v>
   <v type="int" >        4       31       88       89       95 </v>
   <v type="int" >        4       31       88       89      119 </v>
   <v type="int" >        4       22       31       88      119 </v>
   <v type="int" >        4       89       95       96      128 </v>
   <v type="int" >        4       89       90       96      128 </v>
   <v type="int" >        4       89       90      128      131 </v>
   <v type="int" >        4       31       89       95      128 </v>
   <v type="int" >        4       31       89      119      128 </v>
   <v type="int" >        4       89      119      128      131 </v>
   <v type="int" >        4       90       96       97      133 </v>
   <v type="int" >        4       90       91       97      133 </v>
   <v type="int" >        4       90       91      132      133 </v>
   <v type="int" >        4       90       96      128      133 </v>
   <v type="int" >        4       90      128      131      133 </v>
   <v type="int" >        4       90      131      132      133 </v>
   <v type="int" >        4       91       97       98      135 </v>
   <v type="int" >        4       91       92       98      135 </v>
   <v type="int" >        4       91       92      133      135 </v>
   <v type="int" >        4       91       97      133      135 </v>
   <v type="int" >        8       91      132      133      135 </v>
   <v type="int" >        4       92       98       99      133 </v>
   <v type="int" >        4       92       93       99      133 </v>
   <v type="int" >        4       92       93      133      134 </v>
   <v type="int" >        8       92       98      133      135 </v>
   <v type="int" >        8       92      133      133      135 </v>
   <v type="int" >        4       92      133      133      134 </v>
   <v type="int" >        4       93       99      100      128 </v>
   <v type="int" >        4       93       94      100      128 </v>
   <v type="int" >        4       93       94      128      129 </v>
   <v type="int" >        4       93       99      128      133 </v>
   <v type="int" >        4       93      128      133      134 </v>
   <v type="int" >        4       93      128      129      134 </v>
   <v type="int" >        4       31       50       94      100 </v>
   <v type="int" >        4       31       49       50       94 </v>
   <v type="int" >        4       30       31       49       94 </v>
   <v type="int" >        4       31       94      100      128 </v>
   <v type="int" >        4       31       94      128      129 </v>
   <v type="int" >        4       30       31       94      129 </v>
   <v type="int" >        4       38       95       96      101 </v>
   <v type="int" >        4       38       95       96      128 </v>
   <v type="int" >        4       31       38       95      128 </v>
   <v type="int" >        4       96      101      102      136 </v>
   <v type="int" >        4       96       97      102      136 </v>
   <v type="int" >        4       96       97      133      136 </v>
   <v type="int" >        4       38       96      101      136 </v>
   <v type="int" >        4       38       96      128      136 </v>
   <v type="int" >        4       96      128      133      136 </v>
   <v type="int" >        4       97      102      103      133 </v>
   <v type="int" >        4       97       98      103      133 </v>
   <v type="int" >        8       97       98      133      135 </v>
   <v type="int" >        4       97      102      133      136 </v>
   <v type="int" >        4       97      133      133      136 </v>
   <v type="int" >        8       97      133      133      135 </v>
   <v type="int" >        4       98      103      104      132 </v>
   <v type="int" >        4       98       99      104      132 </v>
   <v type="int" >        8       98       99      132      133 </v>
   <v type="int" >        4       98      103      132      133 </v>
   <v type="int" >       16       98      132      133      135 </v>
   <v type="int" >        4       99      104      105      127 </v>
   <v type="int" >        4       99      100      105      127 </v>
   <v type="int" >        4       99      100      127      128 </v>
   <v type="int" >        4       99      104      127      132 </v>
   <v type="int" >        4       99      127      132      133 </v>
   <v type="int" >        4       99      127      128      133 </v>
   <v type="int" >        4       32       51      100      105 </v>
   <v type="int" >        4       32       50       51      100 </v>
   <v type="int" >        4       31       32       50      100 </v>
   <v type="int" >        4       32      100      105      127 </v>
   <v type="int" >        4       32      100      127      128 </v>
   <v type="int" >        4       31       32      100      128 </v>
   <v type="int" >        4       38      101      102      106 </v>
   <v type="int" >        4       38      101      102      136 </v>
   <v type="int" >        4       38       38      101      136 </v>
   <v type="int" >        4      102      106      107      128 </v>
   <v type="int" >        4      102      103      107      128 </v>
   <v type="int" >        4      102      103      128      133 </v>
   <v type="int" >        4       38      102      106      128 </v>
   <v type="int" >        4       38      102      128      136 </v>
   <v type="int" >        4      102      128      133      136 </v>
   <v type="int" >        4      103      107      108      131 </v>
   <v type="int" >        4      103      104      108      131 </v>
   <v type="int" >        4      103      104      131      132 </v>
   <v type="int" >        4      103      107      128      131 </v>
   <v type="int" >        4      103      128      131      133 </v>
   <v type="int" >        4      103      131      132      133 </v>
   <v type="int" >        4      104      108      109      126 </v>
   <v type="int" >        4      104      105      109      126 </v>
   <v type="int" >        4      104      105      126      127 </v>
   <v type="int" >        4      104      108      126      131 </v>
   <v type="int" >        4      104      126      131      132 </v>
   <v type="int" >        4      104      126      127      132 </v>
   <v type="int" >        4       33       52      105      109 </v>
   <v type="int" >        4       33       51       52      105 </v>
   <v type="int" >        4       32       33       51      105 </v>
   <v type="int" >        4       33      105      109      126 </v>
   <v type="int" >        4       33      105      126      127 </v>
   <v type="int" >        4       32       33      105      127 </v>
   <v type="int" >        4       31      106      107      110 </v>
   <v type="int" >        4       31      106      107      128 </v>
   <v type="int" >        4       31       38      106      128 </v>
   <v type="int" >        4      107      110      111      119 </v>
   <v type="int" >        4      107      108      111      119 </v>
   <v type="int" >        4      107      108      119      131 </v>
   <v type="int" >        4       31      107      110      119 </v>
   <v type="int" >        4       31      107      119      128 </v>
   <v type="int" >        4      107      119      128      131 </v>
   <v type="int" >        4      108      111      112      122 </v>
   <v type="int" >        4      108      109      112      122 </v>
   <v type="int" >        4      108      109      122      126 </v>
   <v type="int" >        4      108      111      119      122 </v>
   <v type="int" >        4      108      119      122      131 </v>
   <v type="int" >        4      108      122      126      131 </v>
   <v type="int" >        4       34       53      109      112 </v>
   <v type="int" >        4       34       52       53      109 </v>
   <v type="int" >        4       33       34       52      109 </v>
   <v type="int" >        4       34      109      112      122 </v>
   <v type="int" >        4       34      109      122      126 </v>
   <v type="int" >        4       33       34      109      126 </v>
   <v type="int" >        4       22      110      111      113 </v>
   <v type="int" >        4       22      110      111      119 </v>
   <v type="int" >        4       22       31      110      119 </v>
   <v type="int" >        4      111      113      114      125 </v>
   <v type="int" >        4      111      112      114      125 </v>
   <v type="int" >        4      111      112      122      125 </v>
   <v type="int" >        4       22      111      113      125 </v>
   <v type="int" >        4       22      111      119      125 </v>
   <v type="int" >        4      111      119      122      125 </v>
   <v type="int" >        4       26       54      112      114 </v>
   <v type="int" >        4       26       53       54      112 </v>
   <v type="int" >        4       26       34       53      112 </v>
   <v type="int" >        4       26      112      114      125 </v>
   <v type="int" >        4       26      112      122      125 </v>
   <v type="int" >        4       26       34      112      122 </v>
   <v type="int" >        4       11      113      114      115 </v>
   <v type="int" >        4       11      113      114      125 </v>
   <v type="int" >        4       11       22      113      125 </v>
   <v type="int" >        4       16       55      114      115 </v>
   <v type="int" >        4       16       54       55      114 </v>
   <v type="int" >        4       16       26       54      114 </v>
   <v type="int" >        4       11       16      114      115 </v>
   <v type="int" >        4       11       16      114      125 </v>
   <v type="int" >        4       16       26      114      125 </v>
   <v type="int" >        4        4       44       55      115 </v>
   <v type="int" >        4        4       16       55      115 </v>
   <v type="int" >        4        4       11       16      115 </v>
   <v type="int" >        4        4       10       17      147 </v>
   <v type="int" >        4        4       10      138      147 </v>
   <v type="int" >        4        4      137      138      147 </v>
   <v type="int" >        4       10       17      116      148 </v>
   <v type="int" >        4       10       20      116      148 </v>
   <v type="int" >        4       10       20      139      148 </v>
   <v type="int" >        4       10       17      147      148 </v>
   <v type="int" >        4       10      138      147      148 </v>
   <v type="int" >        4       10      138      139      148 </v>
   <v type="int" >        4       20       20      111      116 </v>
   <v type="int" >        4       20       20       28      111 </v>
   <v type="int" >        4       20       28      110      111 </v>
   <v type="int" >        4       20      111      116      148 </v>
   <v type="int" >        4       20      111      139      148 </v>
   <v type="int" >        4       20      110      111      139 </v>
[...]
       <r>   -2.6409    1.0000 </r>
       <r>    2.9298    1.0000 </r>
       <r>    4.9670    1.0000 </r>
       <r>   17.0233    0.0000 </r>
       <r>   19.2953    0.0000 </r>
       <r>   22.0450    0.0000 </r>
       <r>   23.9004    0.0000 </r>
      </set>
      <set comment="kpoint 184">
       <r>   -5.5776    1.0000 </r>
       <r>   -3.0624    1.0000 </r>
       <r>    4.2129    1.0000 </r>
       <r>    5.6579    1.0000 </r>
       <r>   16.5692    0.0000 </r>
       <r>   19.6903    0.0000 </r>
       <r>   20.2580    0.0000 </r>
       <r>   24.0999    0.0000 </r>
      </set>
      <set comment="kpoint 185">
       <r>   -6.0519    1.0000 </r>
       <r>   -2.8124    1.0000 </r>
       <r>    4.7593    1.0000 </r>
       <r>    5.8603    1.0000 </r>
       <r>   17.4346    0.0000 </r>
       <r>   18.1834    0.0000 </r>
       <r>   20.1637    0.0000 </r>
       <r>   24.3418    0.0000 </r>
      </set>
      <set comment="kpoint 186">
       <r>   -6.8360    1.0000 </r>
       <r>   -2.4850    1.0000 </r>
       <r>    6.1912    1.0000 </r>
       <r>    6.2543    1.0000 </r>
       <r>   17.1782    0.0000 </r>
       <r>   18.4444    0.0000 </r>
       <r>   18.5244    0.0000 </r>
       <r>   24.4426    0.0000 </r>
      </set>
      <set comment="kpoint 187">
       <r>   -6.7867    1.0000 </r>
       <r>   -1.8576    1.0000 </r>
       <r>    4.7662    1.0000 </r>
       <r>    6.0467    1.0000 </r>
       <r>   17.3195    0.0000 </r>
       <r>   18.2725    0.0000 </r>
       <r>   20.1089    0.0000 </r>
       <r>   23.8651    0.0000 </r>
      </set>
      <set comment="kpoint 188">
       <r>   -5.4705    1.0000 </r>
       <r>   -0.5005    1.0000 </r>
       <r>    2.8890    1.0000 </r>
       <r>    3.1589    1.0000 </r>
       <r>   14.5546    0.0000 </r>
       <r>   16.1255    0.0000 </r>
       <r>   24.0589    0.0000 </r>
       <r>   24.9150    0.0000 </r>
      </set>
      <set comment="kpoint 189">
       <r>   -3.0530    1.0000 </r>
       <r>   -3.0530    1.0000 </r>
       <r>    2.7309    1.0000 </r>
       <r>    2.7309    1.0000 </r>
       <r>   15.0605    0.0000 </r>
       <r>   15.0605    0.0000 </r>
       <r>   25.2624    0.0000 </r>
       <r>   25.2624    0.0000 </r>
      </set>
      <set comment="kpoint 190">
       <r>   -4.0433    1.0000 </r>
       <r>   -1.7148    1.0000 </r>
       <r>    1.5657    1.0000 </r>
       <r>    3.1247    1.0000 </r>
       <r>   15.3498    0.0000 </r>
       <r>   17.3569    0.0000 </r>
       <r>   23.8316    0.0000 </r>
       <r>   24.8294    0.0000 </r>
      </set>
      <set comment="kpoint 191">
       <r>   -5.6795    1.0000 </r>
       <r>   -3.2586    1.0000 </r>
       <r>    4.7616    1.0000 </r>
       <r>    5.7931    1.0000 </r>
       <r>   17.4753    0.0000 </r>
       <r>   18.1474    0.0000 </r>
       <r>   20.1811    0.0000 </r>
       <r>   24.5304    0.0000 </r>
      </set>
      <set comment="kpoint 192">
       <r>   -6.8893    1.0000 </r>
       <r>    0.7984    1.0000 </r>
       <r>    2.2396    1.0000 </r>
       <r>    4.6895    1.0000 </r>
       <r>   16.9383    0.0000 </r>
       <r>   19.2742    0.0000 </r>
       <r>   20.4590    0.0000 </r>
       <r>   23.2063    0.0000 </r>
      </set>
      <set comment="kpoint 193">
       <r>   -2.6877    1.0000 </r>
       <r>   -2.6877    1.0000 </r>
       <r>    1.7693    1.0000 </r>
       <r>    1.7693    1.0000 </r>
       <r>   17.4687    0.0000 </r>
       <r>   17.4687    0.0000 </r>
       <r>   23.5357    0.0000 </r>
       <r>   23.5357    0.0000 </r>
      </set>
      <set comment="kpoint 194">
       <r>   -4.3743    1.0000 </r>
       <r>   -2.1206    1.0000 </r>
       <r>    1.7116    1.0000 </r>
       <r>    3.6058    1.0000 </r>
       <r>   18.0714    0.0000 </r>
       <r>   19.1791    0.0000 </r>
       <r>   22.7657    0.0000 </r>
       <r>   23.0393    0.0000 </r>
      </set>
     </set>
    </set>
   </array>
  </eigenvalues>
  <separator name="orbital magnetization" >
   <v name="MAGDIPOLOUT">      0.00000000      0.00000000      0.00000000</v>
  </separator>
  <dos>
   <i name="efermi">      9.50580756 </i>
   <total>
    <array>
     <dimension dim="1">gridpoints</dimension>
     <dimension dim="2">spin</dimension>
     <field>energy</field>
     <field>total</field>
     <field>integrated</field>
     <set>
      <set comment="spin 1">
       <r>   -13.7477     0.0000     0.0000 </r>
       <r>   -13.6093     0.0000     0.0000 </r>
       <r>   -13.4709     0.0000     0.0000 </r>
       <r>   -13.3325     0.0000     0.0000 </r>
       <r>   -13.1941     0.0000     0.0000 </r>
       <r>   -13.0557     0.0000     0.0000 </r>
       <r>   -12.9173     0.0000     0.0000 </r>
       <r>   -12.7789     0.0000     0.0000 </r>
       <r>   -12.6405     0.0000     0.0000 </r>
       <r>   -12.5021     0.0000     0.0000 </r>
       <r>   -12.3637     0.0000     0.0000 </r>
       <r>   -12.2253     0.0000     0.0000 </r>
       <r>   -12.0868     0.0000     0.0000 </r>
       <r>   -11.9484     0.0000     0.0000 </r>
       <r>   -11.8100     0.0000     0.0000 </r>
       <r>   -11.6716     0.0055     0.0001 </r>
       <r>   -11.5332     0.0410     0.0031 </r>
       <r>   -11.3948     0.0618     0.0104 </r>
       <r>   -11.2564     0.0721     0.0196 </r>
       <r>   -11.1180     0.0854     0.0305 </r>
       <r>   -10.9796     0.0953     0.0431 </r>
       <r>   -10.8412     0.1036     0.0568 </r>
       <r>   -10.7028     0.1137     0.0719 </r>
       <r>   -10.5644     0.1246     0.0883 </r>
       <r>   -10.4260     0.1315     0.1060 </r>
       <r>   -10.2876     0.1386     0.1247 </r>
       <r>   -10.1492     0.1445     0.1444 </r>
       <r>   -10.0108     0.1505     0.1648 </r>
       <r>    -9.8724     0.1575     0.1861 </r>
       <r>    -9.7340     0.1645     0.2084 </r>
       <r>    -9.5956     0.1710     0.2316 </r>
       <r>    -9.4572     0.1772     0.2557 </r>
       <r>    -9.3188     0.1842     0.2807 </r>
       <r>    -9.1804     0.1914     0.3066 </r>
       <r>    -9.0420     0.1967     0.3335 </r>
       <r>    -8.9036     0.2021     0.3611 </r>
       <r>    -8.7652     0.2075     0.3895 </r>
       <r>    -8.6268     0.2130     0.4186 </r>
       <r>    -8.4884     0.2185     0.4484 </r>
       <r>    -8.3500     0.2242     0.4791 </r>
       <r>    -8.2116     0.2302     0.5105 </r>
       <r>    -8.0732     0.2364     0.5428 </r>
       <r>    -7.9348     0.2429     0.5760 </r>
       <r>    -7.7964     0.2497     0.6100 </r>
       <r>    -7.6580     0.2563     0.6451 </r>
       <r>    -7.5196     0.2632     0.6810 </r>
       <r>    -7.3812     0.2706     0.7179 </r>
       <r>    -7.2428     0.2783     0.7559 </r>
       <r>    -7.1044     0.2868     0.7950 </r>
       <r>    -6.9660     0.2967     0.8354 </r>
       <r>    -6.8276     0.3078     0.8772 </r>
       <r>    -6.6892     0.3220     0.9207 </r>
       <r>    -6.5508     0.3428     0.9666 </r>
       <r>    -6.4124     0.3671     1.0157 </r>
       <r>    -6.2740     0.3962     1.0684 </r>
       <r>    -6.1356     0.4268     1.1272 </r>
       <r>    -5.9972     0.3878     1.1823 </r>
       <r>    -5.8588     0.3787     1.2353 </r>
       <r>    -5.7204     0.3744     1.2873 </r>
       <r>    -5.5820     0.3719     1.3391 </r>
       <r>    -5.4436     0.3567     1.3895 </r>
       <r>    -5.3052     0.3425     1.4379 </r>
       <r>    -5.1668     0.3368     1.4847 </r>
       <r>    -5.0284     0.3339     1.5315 </r>
       <r>    -4.8900     0.3181     1.5767 </r>
       <r>    -4.7516     0.3019     1.6195 </r>
       <r>    -4.6132     0.2940     1.6607 </r>
       <r>    -4.4748     0.2910     1.7011 </r>
       <r>    -4.3364     0.2931     1.7415 </r>
       <r>    -4.1980     0.2937     1.7821 </r>
       <r>    -4.0596     0.2893     1.8225 </r>
       <r>    -3.9212     0.2817     1.8621 </r>
       <r>    -3.7828     0.2574     1.8997 </r>
       <r>    -3.6444     0.2209     1.9328 </r>
       <r>    -3.5060     0.1847     1.9607 </r>
       <r>    -3.3676     0.1151     1.9816 </r>
       <r>    -3.2292     0.1097     1.9967 </r>
       <r>    -3.0908     0.1238     2.0126 </r>
       <r>    -2.9524     0.1542     2.0317 </r>
       <r>    -2.8140     0.1780     2.0548 </r>
       <r>    -2.6756     0.1971     2.0803 </r>
       <r>    -2.5372     0.2352     2.1102 </r>
       <r>    -2.3988     0.2969     2.1468 </r>
       <r>    -2.2604     0.3948     2.1935 </r>
       <r>    -2.1220     0.5405     2.2586 </r>
       <r>    -1.9836     0.6865     2.3431 </r>
       <r>    -1.8452     0.7739     2.4454 </r>
       <r>    -1.7068     0.7467     2.5527 </r>
       <r>    -1.5684     0.6160     2.6475 </r>
       <r>    -1.4300     0.5201     2.7252 </r>
       <r>    -1.2916     0.4569     2.7926 </r>
       <r>    -1.1532     0.4116     2.8527 </r>
       <r>    -1.0148     0.3732     2.9068 </r>
       <r>    -0.8764     0.3480     2.9566 </r>
       <r>    -0.7380     0.3249     3.0031 </r>
       <r>    -0.5996     0.3064     3.0467 </r>
       <r>    -0.4612     0.2941     3.0882 </r>
       <r>    -0.3228     0.2849     3.1283 </r>
       <r>    -0.1844     0.2773     3.1672 </r>
       <r>    -0.0460     0.2670     3.2049 </r>
       <r>     0.0924     0.2544     3.2410 </r>
       <r>     0.2308     0.2397     3.2752 </r>
       <r>     0.3692     0.2293     3.3075 </r>
       <r>     0.5076     0.2601     3.3407 </r>
       <r>     0.6460     0.3250     3.3808 </r>
       <r>     0.7844     0.4104     3.4314 </r>
       <r>     0.9228     0.5248     3.4964 </r>
       <r>     1.0612     0.5956     3.5747 </r>
       <r>     1.1996     0.5948     3.6586 </r>
       <r>     1.3380     0.5616     3.7380 </r>
       <r>     1.4764     0.5535     3.8150 </r>
       <r>     1.6148     0.5514     3.8916 </r>
       <r>     1.7532     0.5481     3.9680 </r>
       <r>     1.8916     0.5383     4.0430 </r>
       <r>     2.0300     0.5362     4.1173 </r>
       <r>     2.1684     0.5441     4.1919 </r>
       <r>     2.3068     0.5559     4.2681 </r>
       <r>     2.4452     0.5669     4.3458 </r>
       <r>     2.5836     0.6093     4.4273 </r>
       <r>     2.7220     0.6344     4.5136 </r>
       <r>     2.8604     0.6650     4.6041 </r>
       <r>     2.9988     0.6922     4.6979 </r>
       <r>     3.1372     0.7384     4.7967 </r>
       <r>     3.2756     0.8093     4.9035 </r>
       <r>     3.4140     0.8526     5.0190 </r>
       <r>     3.5524     0.8252     5.1359 </r>
       <r>     3.6908     0.8098     5.2486 </r>
       <r>     3.8292     0.8012     5.3602 </r>
       <r>     3.9676     0.8003     5.4710 </r>
       <r>     4.1060     0.7927     5.5813 </r>
       <r>     4.2444     0.7855     5.6904 </r>
       <r>     4.3828     0.7783     5.7987 </r>
       <r>     4.5212     0.7677     5.9057 </r>
       <r>     4.6596     0.7573     6.0112 </r>
       <r>     4.7980     0.7517     6.1155 </r>
       <r>     4.9364     0.7463     6.2192 </r>
       <r>     5.0748     0.7404     6.3221 </r>
       <r>     5.2132     0.7316     6.4240 </r>
       <r>     5.3516     0.7236     6.5247 </r>
       <r>     5.4900     0.7179     6.6244 </r>
       <r>     5.6284     0.7124     6.7234 </r>
       <r>     5.7668     0.7051     6.8215 </r>
       <r>     5.9052     0.6987     6.9186 </r>
       <r>     6.0436     0.6945     7.0151 </r>
       <r>     6.1820     0.6849     7.1106 </r>
       <r>     6.3204     0.6705     7.2043 </r>
       <r>     6.4588     0.6425     7.2964 </r>
       <r>     6.5972     0.5726     7.3810 </r>
       <r>     6.7356     0.4858     7.4539 </r>
       <r>     6.8740     0.4305     7.5172 </r>
       <r>     7.0124     0.3888     7.5738 </r>
       <r>     7.1508     0.3547     7.6251 </r>
       <r>     7.2892     0.3312     7.6725 </r>
       <r>     7.4276     0.3065     7.7167 </r>
       <r>     7.5660     0.2787     7.7572 </r>
       <r>     7.7044     0.2491     7.7937 </r>
       <r>     7.8428     0.2270     7.8266 </r>
       <r>     7.9812     0.2053     7.8565 </r>
       <r>     8.1196     0.1839     7.8835 </r>
       <r>     8.2580     0.1632     7.9075 </r>
       <r>     8.3964     0.1453     7.9288 </r>
       <r>     8.5348     0.1297     7.9479 </r>
       <r>     8.6732     0.1106     7.9645 </r>
       <r>     8.8116     0.0990     7.9790 </r>
       <r>     8.9500     0.0652     7.9903 </r>
       <r>     9.0884     0.0297     7.9972 </r>
       <r>     9.2268     0.0078     7.9996 </r>
       <r>     9.3652     0.0000     8.0000 </r>
       <r>     9.5036     0.0000     8.0000 </r>
       <r>     9.6420     0.0000     8.0000 </r>
       <r>     9.7804     0.0000     8.0000 </r>
       <r>     9.9188     0.0000     8.0000 </r>
       <r>    10.0572     0.0000     8.0000 </r>
       <r>    10.1956     0.0000     8.0000 </r>
       <r>    10.3340     0.0000     8.0000 </r>
       <r>    10.4724     0.0000     8.0000 </r>
       <r>    10.6108     0.0000     8.0000 </r>
       <r>    10.7493     0.0000     8.0000 </r>
       <r>    10.8877     0.0000     8.0000 </r>
       <r>    11.0261     0.0000     8.0000 </r>
       <r>    11.1645     0.0000     8.0000 </r>
       <r>    11.3029     0.0000     8.0000 </r>
       <r>    11.4413     0.0000     8.0000 </r>
       <r>    11.5797     0.0000     8.0000 </r>
       <r>    11.7181     0.0000     8.0000 </r>
       <r>    11.8565     0.0000     8.0000 </r>
       <r>    11.9949     0.0000     8.0000 </r>
       <r>    12.1333     0.0000     8.0000 </r>
       <r>    12.2717     0.0000     8.0000 </r>
       <r>    12.4101     0.0000     8.0000 </r>
       <r>    12.5485     0.0000     8.0000 </r>
       <r>    12.6869     0.0000     8.0000 </r>
       <r>    12.8253     0.0000     8.0000 </r>
       <r>    12.9637     0.0000     8.0000 </r>
       <r>    13.1021     0.0000     8.0000 </r>
       <r>    13.2405     0.0000     8.0000 </r>
       <r>    13.3789     0.0000     8.0000 </r>
       <r>    13.5173     0.0009     8.0000 </r>
       <r>    13.6557     0.0179     8.0009 </r>
       <r>    13.7941     0.0595     8.0061 </r>
       <r>    13.9325     0.1078     8.0176 </r>
       <r>    14.0709     0.1588     8.0361 </r>
       <r>    14.2093     0.1932     8.0605 </r>
       <r>    14.3477     0.2237     8.0894 </r>
       <r>    14.4861     0.2537     8.1224 </r>
       <r>    14.6245     0.2949     8.1604 </r>
       <r>    14.7629     0.3330     8.2039 </r>
       <r>    14.9013     0.3804     8.2530 </r>
       <r>    15.0397     0.4337     8.3094 </r>
       <r>    15.1781     0.4755     8.3725 </r>
       <r>    15.3165     0.4847     8.4390 </r>
       <r>    15.4549     0.5090     8.5076 </r>
       <r>    15.5933     0.5351     8.5799 </r>
       <r>    15.7317     0.5562     8.6554 </r>
       <r>    15.8701     0.5799     8.7343 </r>
       <r>    16.0085     0.6005     8.8159 </r>
       <r>    16.1469     0.6268     8.9008 </r>
       <r>    16.2853     0.6567     8.9895 </r>
       <r>    16.4237     0.6931     9.0828 </r>
       <r>    16.5621     0.7393     9.1818 </r>
       <r>    16.7005     0.8041     9.2883 </r>
       <r>    16.8389     0.9156     9.4067 </r>
       <r>    16.9773     1.0495     9.5427 </r>
       <r>    17.1157     1.1716     9.6964 </r>
       <r>    17.2541     1.2976     9.8682 </r>
       <r>    17.3925     1.2593    10.0470 </r>
       <r>    17.5309     0.9407    10.2016 </r>
       <r>    17.6693     0.6710    10.3120 </r>
       <r>    17.8077     0.6448    10.3993 </r>
       <r>    17.9461     0.7619    10.4956 </r>
       <r>    18.0845     0.8806    10.6123 </r>
       <r>    18.2229     0.9544    10.7395 </r>
       <r>    18.3613     0.9425    10.8715 </r>
       <r>    18.4997     0.9119    10.9995 </r>
       <r>    18.6381     0.9209    11.1252 </r>
       <r>    18.7765     0.9933    11.2570 </r>
       <r>    18.9149     1.0515    11.3985 </r>
       <r>    19.0533     1.0283    11.5426 </r>
       <r>    19.1917     0.9838    11.6815 </r>
       <r>    19.3301     0.9541    11.8156 </r>
       <r>    19.4685     0.9189    11.9454 </r>
       <r>    19.6069     0.8509    12.0683 </r>
       <r>    19.7453     0.7770    12.1809 </r>
       <r>    19.8837     0.7115    12.2837 </r>
       <r>    20.0221     0.8577    12.3855 </r>
       <r>    20.1605     0.6150    12.4807 </r>
       <r>    20.2989     0.5489    12.5613 </r>
       <r>    20.4373     0.4899    12.6330 </r>
       <r>    20.5757     0.4537    12.6980 </r>
       <r>    20.7141     0.4273    12.7590 </r>
       <r>    20.8525     0.4323    12.8181 </r>
       <r>    20.9909     0.4692    12.8801 </r>
       <r>    21.1293     0.5359    12.9495 </r>
       <r>    21.2677     0.5777    13.0272 </r>
       <r>    21.4061     0.7333    13.1125 </r>
       <r>    21.5445     0.8225    13.2206 </r>
       <r>    21.6829     0.8555    13.3361 </r>
       <r>    21.8213     0.8960    13.4581 </r>
       <r>    21.9597     0.9240    13.5833 </r>
       <r>    22.0981     0.8755    13.7077 </r>
       <r>    22.2365     0.9603    13.8329 </r>
       <r>    22.3749     1.0225    13.9758 </r>
       <r>    22.5133     0.9936    14.1137 </r>
       <r>    22.6517     0.8611    14.2462 </r>
       <r>    22.7901     0.7657    14.3574 </r>
       <r>    22.9285     0.7722    14.4629 </r>
       <r>    23.0669     0.8168    14.5721 </r>
       <r>    23.2053     0.9140    14.6916 </r>
       <r>    23.3437     1.0422    14.8272 </r>
       <r>    23.4821     1.1067    14.9767 </r>
       <r>    23.6205     1.0716    15.1286 </r>
       <r>    23.7589     0.9814    15.2710 </r>
       <r>    23.8973     0.8341    15.3974 </r>
       <r>    24.0357     0.6956    15.5034 </r>
       <r>    24.1741     0.6069    15.5929 </r>
       <r>    24.3125     0.5404    15.6722 </r>
       <r>    24.4509     0.5004    15.7436 </r>
       <r>    24.5893     0.4700    15.8111 </r>
       <r>    24.7277     0.3484    15.8711 </r>
       <r>    24.8661     0.2129    15.9057 </r>
       <r>    25.0045     0.1896    15.9336 </r>
       <r>    25.1429     0.1686    15.9584 </r>
       <r>    25.2813     0.1261    15.9792 </r>
       <r>    25.4197     0.0653    15.9923 </r>
       <r>    25.5581     0.0241    15.9983 </r>
       <r>    25.6965     0.0030    15.9999 </r>
       <r>    25.8349     0.0000    16.0000 </r>
       <r>    25.9733     0.0000    16.0000 </r>
       <r>    26.1117     0.0000    16.0000 </r>
       <r>    26.2501     0.0000    16.0000 </r>
       <r>    26.3885     0.0000    16.0000 </r>
       <r>    26.5269     0.0000    16.0000 </r>
       <r>    26.6653     0.0000    16.0000 </r>
       <r>    26.8037     0.0000    16.0000 </r>
       <r>    26.9421     0.0000    16.0000 </r>
       <r>    27.0805     0.0000    16.0000 </r>
       <r>    27.2189     0.0000    16.0000 </r>
       <r>    27.3573     0.0000    16.0000 </r>
       <r>    27.4957     0.0000    16.0000 </r>
       <r>    27.6341     0.0000    16.0000 </r>
       <r>    27.7725     0.0000    16.0000 </r>
      </set>
     </set>
    </array>
   </total>
  </dos>
 </calculation>
 <structure name="finalpos" >
  <crystal>
   <varray name="basis" >
    <v>       2.54457938       0.00000000       0.00000000 </v>
    <v>       1.27228969       2.20367038       0.00000000 </v>
    <v>       1.27228969       0.73455679       2.07764036 </v>
   </varray>
   <i name="volume">     11.65019011 </i>
   <varray name="rec_basis" >
    <v>       0.39299226      -0.22689419      -0.16043842 </v>
    <v>       0.00000000       0.45378837      -0.16043842 </v>
    <v>       0.00000000       0.00000000       0.48131525 </v>
   </varray>
  </crystal>
  <varray name="positions" >
   <v>       0.00000000       0.00000000       0.00000000 </v>
   <v>       0.25000000       0.25000000       0.24999999 </v>
  </varray>
 </structure>
</modeling>
