   32   32    1    1
  0.8468675E+01  0.4932875E-09  0.4932875E-09  0.1286560E-08  0.5000000E-15
  1.000000000000000E-004
  CAR 
 graphite                                
    128    163     84
 
  0.0000000E+00  0.0000000E+00  0.0000000E+00  0.3086420E-02
    1      -14.625721
    2      -14.428868
    3      -14.428055
    4      -14.213113
    5       -9.274585
    6       -9.264469
    7       -9.262168
    8       -9.188257
    9       -9.186714
   10       -9.176178
   11       -9.175008
   12       -9.174947
   13       -9.170609
   14       -9.120772
   15       -9.107442
   16       -9.103999
   17       -8.176778
   18       -8.174658
   19       -8.172915
   20       -8.137835
   21       -8.137081
   22       -8.134845
   23       -8.134594
   24       -8.134424
   25       -8.131497
   26       -8.059362
   27       -8.058831
   28       -8.056861
   29       -3.635609
   30       -2.553963
   31       -2.551901
   32       -1.350819
   33       -1.348362
   34       -1.332781
   35       -1.310147
   36       -1.309395
   37       -1.309382
   38       -1.304925
   39       -1.292412
   40       -1.290714
   41       -1.267853
   42       -1.265033
   43       -1.249779
   44       -1.213560
   45        2.055630
   46        2.064452
   47        2.068435
   48        2.074095
   49        2.079762
   50        2.084506
   51        2.089048
   52        2.097288
   53        2.171846
   54        2.173568
   55        2.174825
   56        2.694653
   57        2.698253
   58        2.704868
   59        2.705442
   60        2.705660
   61        2.710679
   62        3.007541
   63        3.028392
   64        3.031159
   65        6.598683
   66        6.602110
   67        6.611078
   68        6.701899
   69        6.704263
   70        6.706720
   71        6.708623
   72        6.708956
   73        6.712104
   74        7.367161
   75        7.374763
   76        7.377243
   77        9.750759
   78       12.189454
   79       12.193290
   80       12.225068
   81       12.449208
   82       12.453272
   83       12.462835
   84       12.484596
 
  0.1111111E+00  0.2081668E-16  0.0000000E+00  0.6172840E-02
    1      -14.551809
    2      -14.355788
    3      -14.354979
    4      -14.140911
    5      -10.074927
    6       -9.931926
    7       -9.931025
    8       -9.780059
    9       -9.531890
   10       -9.523206
   11       -9.407807
   12       -9.407040
   13       -9.398306
   14       -9.397091
   15       -9.282297
   16       -9.271770
   17       -7.891978
   18       -7.888240
   19       -7.796443
   20       -7.793878
   21       -7.791029
   22       -7.789693
   23       -7.682291
   24       -7.677439
   25       -7.383018
   26       -7.270562
   27       -7.269201
   28       -7.148618
   29       -3.545771
   30       -2.467099
   31       -2.465036
   32       -1.578709
   33       -1.561608
   34       -1.533418
   35       -1.532986
   36       -1.516768
   37       -1.515092
   38       -1.486736
   39       -1.469623
   40       -1.276448
   41       -1.236945
   42       -1.233613
   43       -1.193801
   44       -1.130705
   45        1.558828
   46        1.758941
   47        1.777541
   48        1.781880
   49        1.799935
   50        1.900085
   51        1.916055
   52        1.921471
   53        1.938342
   54        2.045630
   55        2.048819
   56        2.278241
   57        2.281629
   58        2.643103
   59        2.646572
   60        2.652734
   61        2.654670
   62        2.965728
   63        3.089712
   64        3.108106
   65        6.652143
   66        6.659234
   67        6.834073
   68        6.837811
   69        6.839706
   70        6.843191
   71        6.890618
   72        7.246107
   73        7.249984
   74        7.504205
   75        7.512257
   76        7.989351
   77        9.837566
   78       12.233715
   79       12.489412
   80       12.492512
   81       12.527539
   82       12.562285
   83       12.758861
   84       12.798496
 
  0.2222222E+00  0.2775558E-16  0.0000000E+00  0.6172840E-02
    1      -14.330394
    2      -14.136742
    3      -14.135945
    4      -13.924714
    5      -11.091097
    6      -10.932599
    7      -10.931883
    8      -10.762387
    9       -9.882983
   10       -9.877096
   11       -9.742692
   12       -9.742221
   13       -9.736660
   14       -9.735354
   15       -9.594118
   16       -9.587573
   17       -7.216513
   18       -7.209329
   19       -7.108463
   20       -7.106023
   21       -7.100272
   22       -7.099092
   23       -6.989601
   24       -6.982151
   25       -6.055297
   26       -5.949126
   27       -5.947862
   28       -5.836320
   29       -3.277206
   30       -2.207301
   31       -2.205247
   32       -2.189171
   33       -2.173089
   34       -2.134151
   35       -2.133804
   36       -2.118503
   37       -2.116852
   38       -2.076746
   39       -2.060668
   40       -1.061071
   41       -1.022380
   42       -1.018961
   43       -0.979894
   44       -0.883392
   45        0.517712
   46        0.928798
   47        0.959232
   48        0.963193
   49        0.993539
   50        1.388886
   51        1.391615
   52        1.477139
   53        1.499782
   54        1.505095
   55        1.528281
   56        1.809027
   57        1.812763
   58        2.383357
   59        2.522137
   60        2.525452
   61        2.530116
   62        2.531906
   63        3.204659
   64        3.217826
   65        6.849271
   66        6.852337
   67        7.169141
   68        7.172374
   69        7.174899
   70        7.178398
   71        7.805893
   72        7.811036
   73        7.963921
   74        8.469452
   75        8.472624
   76        9.199801
   77       10.098846
   78       12.354731
   79       12.600815
   80       12.602799
   81       12.838043
   82       12.977530
   83       12.980981
   84       13.427973
 
  0.3333333E+00  0.5551115E-16  0.0000000E+00  0.6172840E-02
    1      -13.962737
    2      -13.772941
    3      -13.772166
    4      -13.565630
    5      -12.007493
    6      -11.838704
    7      -11.837993
    8      -11.656062
    9      -10.140923
   10      -10.137240
   11       -9.994581
   12       -9.994090
   13       -9.990960
   14       -9.989424
   15       -9.838551
   16       -9.834602
   17       -6.406192
   18       -6.397252
   19       -6.305705
   20       -6.303163
   21       -6.296083
   22       -6.294582
   23       -6.197463
   24       -6.188663
   25       -4.617036
   26       -4.524519
   27       -4.523019
   28       -4.426211
   29       -3.008108
   30       -2.994130
   31       -2.944180
   32       -2.943931
   33       -2.930731
   34       -2.928948
   35       -2.876634
   36       -2.862539
   37       -2.832462
   38       -1.777870
   39       -1.775812
   40       -0.711480
   41       -0.674275
   42       -0.670679
   43       -0.632816
   44       -0.515041
   45       -0.475863
   46       -0.261657
   47       -0.216025
   48       -0.212902
   49       -0.166994
   50        0.435815
   51        0.438188
   52        0.911628
   53        0.939877
   54        0.944737
   55        0.973375
   56        1.573057
   57        1.606923
   58        1.610016
   59        2.398478
   60        2.401780
   61        2.404587
   62        2.406182
   63        3.257933
   64        3.265893
   65        7.168932
   66        7.171456
   67        7.561511
   68        7.564013
   69        7.566338
   70        7.570312
   71        8.092666
   72        8.095825
   73        9.462428
   74        9.947640
   75        9.950606
   76       10.534216
   77       10.591461
   78       12.506931
   79       12.774859
   80       12.777136
   81       12.789309
   82       13.159291
   83       13.161632
   84       13.225469
 
  0.4444444E+00  0.5551115E-16  0.0000000E+00  0.6172840E-02
    1      -13.450520
    2      -13.266208
    3      -13.265471
    4      -13.065464
    5      -12.797088
    6      -12.619675
    7      -12.618925
    8      -12.427237
    9      -10.273595
   10      -10.271538
   11      -10.125053
   12      -10.124245
   13      -10.123216
   14      -10.121186
   15       -9.965979
   16       -9.963813
   17       -5.646985
   18       -5.640039
   19       -5.573375
   20       -5.570608
   21       -5.566617
   22       -5.563647
   23       -5.497318
   24       -5.491298
   25       -3.752239
   26       -3.744709
   27       -3.701723
   28       -3.700203
   29       -3.693798
   30       -3.691651
   31       -3.640931
   32       -3.632410
   33       -3.131161
   34       -3.053824
   35       -3.051939
   36       -2.971978
   37       -2.216596
   38       -1.653365
   39       -1.593280
   40       -1.590738
   41       -1.526572
   42       -1.438262
   43       -1.183306
   44       -1.181050
   45       -0.438865
   46       -0.436647
   47       -0.244266
   48       -0.208755
   49       -0.204903
   50       -0.169271
   51        0.083413
   52        0.312518
   53        0.345064
   54        0.349498
   55        0.382329
   56        0.777825
   57        1.496027
   58        1.498211
   59        2.324187
   60        2.327759
   61        2.328854
   62        2.330374
   63        3.269401
   64        3.272988
   65        7.437654
   66        7.440354
   67        7.829890
   68        7.831392
   69        7.832565
   70        7.837477
   71        8.242068
   72        8.245015
   73       11.096203
   74       11.142000
   75       11.487044
   76       11.490394
   77       11.902391
   78       12.024781
   79       12.709573
   80       12.832827
   81       12.876673
   82       12.887498
   83       12.990710
   84       13.015800
 
  0.0000000E+00  0.1111111E+00  0.0000000E+00  0.6172840E-02
    1      -14.551807
    2      -14.355787
    3      -14.354976
    4      -14.140909
    5      -10.075030
    6       -9.931946
    7       -9.931267
    8       -9.780228
    9       -9.531905
   10       -9.522864
   11       -9.407734
   12       -9.407048
   13       -9.398302
   14       -9.396360
   15       -9.282242
   16       -9.271356
   17       -7.892347
   18       -7.889309
   19       -7.796466
   20       -7.795560
   21       -7.791070
   22       -7.790514
   23       -7.682646
   24       -7.678242
   25       -7.381947
   26       -7.269260
   27       -7.268472
   28       -7.147642
   29       -3.545775
   30       -2.467103
   31       -2.465043
   32       -1.577432
   33       -1.561577
   34       -1.533404
   35       -1.530300
   36       -1.516956
   37       -1.515092
   38       -1.485392
   39       -1.469706
   40       -1.277620
   41       -1.236951
   42       -1.236172
   43       -1.195221
   44       -1.130712
   45        1.558080
   46        1.762644
   47        1.781878
   48        1.782516
   49        1.801852
   50        1.898164
   51        1.916048
   52        1.916534
   53        1.934483
   54        2.045791
   55        2.049655
   56        2.277839
   57        2.279997
   58        2.643566
   59        2.646510
   60        2.652888
   61        2.656740
   62        2.964330
   63        3.089808
   64        3.109554
   65        6.650006
   66        6.659082
   67        6.833657
   68        6.836057
   69        6.839366
   70        6.841303
   71        6.892891
   72        7.248758
   73        7.250985
   74        7.503953
   75        7.510422
   76        7.991024
   77        9.837559
   78       12.233041
   79       12.489077
   80       12.489421
   81       12.527927
   82       12.561529
   83       12.763065
   84       12.796224
 
  0.1111111E+00  0.1111111E+00  0.0000000E+00  0.6172840E-02
    1      -14.404034
    2      -14.209590
    3      -14.208789
    4      -13.996615
    5      -10.543035
    6      -10.539919
    7      -10.392621
    8      -10.390105
    9      -10.390077
   10      -10.386298
   11      -10.229745
   12      -10.226531
   13       -9.084784
   14       -8.999483
   15       -8.998541
   16       -8.933552
   17       -7.988942
   18       -7.953865
   19       -7.949858
   20       -7.879248
   21       -6.699141
   22       -6.695718
   23       -6.589967
   24       -6.586355
   25       -6.586325
   26       -6.583189
   27       -6.470919
   28       -6.467533
   29       -3.366470
   30       -2.293620
   31       -2.291558
   32       -2.248718
   33       -2.193563
   34       -2.191794
   35       -2.135211
   36       -1.433706
   37       -1.431125
   38       -1.389293
   39       -1.388427
   40       -1.388415
   41       -1.383752
   42       -1.343180
   43       -1.340157
   44       -0.965473
   45        1.110521
   46        1.113077
   47        1.229644
   48        1.248501
   49        1.252787
   50        1.269224
   51        1.587442
   52        1.600142
   53        1.605761
   54        1.621590
   55        1.917798
   56        1.919792
   57        1.919972
   58        1.924080
   59        2.438755
   60        2.787915
   61        2.790620
   62        2.961056
   63        2.964068
   64        3.266502
   65        6.604690
   66        6.630768
   67        6.636321
   68        7.165613
   69        7.335855
   70        7.338904
   71        7.788270
   72        7.792591
   73        7.793053
   74        7.794901
   75        8.512461
   76        8.515115
   77       10.012008
   78       12.607377
   79       12.611466
   80       12.859188
   81       12.862568
   82       12.862619
   83       12.867975
   84       12.928296
 
  0.2222222E+00  0.1111111E+00  0.0000000E+00  0.6172840E-02
    1      -14.109396
    2      -13.918083
    3      -13.917301
    4      -13.708889
    5      -11.512226
    6      -11.348988
    7      -11.348283
    8      -11.173130
    9      -10.885290
   10      -10.729478
   11      -10.728651
   12      -10.561854
   13       -9.144512
   14       -9.024698
   15       -9.024299
   16       -8.904107
   17       -7.542836
   18       -7.453841
   19       -7.450457
   20       -7.347291
   21       -5.910020
   22       -5.808205
   23       -5.807235
   24       -5.700466
   25       -5.312076
   26       -5.213497
   27       -5.212240
   28       -5.108973
   29       -3.160930
   30       -3.094869
   31       -3.093156
   32       -3.024057
   33       -3.009723
   34       -1.963518
   35       -1.948830
   36       -1.946766
   37       -1.910273
   38       -1.909949
   39       -1.854882
   40       -1.145012
   41       -1.102996
   42       -1.099653
   43       -1.056953
   44       -0.637833
   45        0.054342
   46        0.270457
   47        0.301717
   48        0.306169
   49        0.335989
   50        0.768157
   51        0.968605
   52        0.971010
   53        1.039749
   54        1.060403
   55        1.066446
   56        1.089084
   57        1.631148
   58        1.633144
   59        2.043691
   60        2.564549
   61        2.616673
   62        3.163160
   63        3.166065
   64        3.606746
   65        6.547632
   66        6.640247
   67        6.645351
   68        7.099307
   69        7.896248
   70        8.362691
   71        8.365099
   72        8.663524
   73        8.980500
   74        9.160983
   75        9.163739
   76        9.822300
   77       10.362002
   78       12.757703
   79       13.006428
   80       13.008365
   81       13.165123
   82       13.171857
   83       13.174149
   84       13.602902
 
  0.3333333E+00  0.1111111E+00  0.0000000E+00  0.6172840E-02
    1      -13.669338
    2      -13.482730
    3      -13.481977
    4      -13.279143
    5      -12.365755
    6      -12.193091
    7      -12.192357
    8      -12.006078
    9      -11.095054
   10      -10.936472
   11      -10.935634
   12      -10.766037
   13       -9.291944
   14       -9.158618
   15       -9.158120
   16       -9.018531
   17       -6.778986
   18       -6.686948
   19       -6.683740
   20       -6.586788
   21       -5.104316
   22       -5.019918
   23       -5.018206
   24       -4.931237
   25       -4.099797
   26       -4.032471
   27       -4.030560
   28       -3.957032
   29       -3.857259
   30       -3.773613
   31       -3.772126
   32       -3.685525
   33       -2.663910
   34       -2.607697
   35       -2.607077
   36       -2.546711
   37       -2.479023
   38       -1.437674
   39       -1.435674
   40       -0.982027
   41       -0.934861
   42       -0.928558
   43       -0.926570
   44       -0.879678
   45       -0.727646
   46       -0.687927
   47       -0.684460
   48       -0.643951
   49       -0.153803
   50        0.045793
   51        0.048034
   52        0.411101
   53        0.440833
   54        0.446004
   55        0.476878
   56        0.554079
   57        1.224026
   58        1.447059
   59        1.449020
   60        2.494153
   61        2.549172
   62        3.253543
   63        3.256063
   64        3.941066
   65        6.461603
   66        6.760557
   67        6.764917
   68        7.201869
   69        8.404592
   70        8.818023
   71        8.820756
   72        9.277204
   73       10.233508
   74       10.667103
   75       10.669968
   76       10.886317
   77       11.222781
   78       12.408264
   79       13.034146
   80       13.196915
   81       13.199429
   82       13.297768
   83       13.305644
   84       13.387981
 
  0.4444444E+00  0.1111111E+00  0.0000000E+00  0.6172840E-02
    1      -13.088456
    2      -13.085379
    3      -12.908818
    4      -12.906829
    5      -12.905875
    6      -12.902802
    7      -12.711853
    8      -12.708700
    9      -11.165899
   10      -11.006696
   11      -11.005849
   12      -10.835205
   13       -9.347437
   14       -9.211639
   15       -9.210993
   16       -9.067940
   17       -6.259593
   18       -6.199264
   19       -6.196241
   20       -6.140250
   21       -4.619987
   22       -4.610092
   23       -4.577165
   24       -4.575283
   25       -4.569367
   26       -4.565693
   27       -4.527549
   28       -4.519137
   29       -3.071124
   30       -3.039931
   31       -3.037356
   32       -2.996029
   33       -2.393308
   34       -2.389162
   35       -2.327761
   36       -2.323222
   37       -2.321252
   38       -2.320954
   39       -2.254875
   40       -2.251145
   41       -1.782989
   42       -1.780419
   43       -0.768370
   44       -0.766242
   45       -0.765524
   46       -0.761901
   47       -0.200145
   48       -0.195343
   49       -0.162630
   50       -0.162562
   51       -0.160356
   52       -0.152558
   53       -0.123721
   54       -0.116803
   55        0.472789
   56        0.475812
   57        0.480814
   58        1.383255
   59        1.385220
   60        2.449321
   61        2.532575
   62        3.277116
   63        3.279273
   64        4.075584
   65        6.431781
   66        6.828501
   67        6.831975
   68        7.256076
   69        8.627310
   70        8.995338
   71        8.998537
   72        9.362887
   73       11.575959
   74       11.578040
   75       11.841569
   76       11.845321
   77       12.159172
   78       12.164059
   79       12.164977
   80       12.167870
   81       12.613370
   82       12.617261
   83       13.269957
   84       13.276349
 
 -0.4444444E+00  0.1111111E+00  0.0000000E+00  0.6172840E-02
    1      -13.670081
    2      -13.483470
    3      -13.482702
    4      -13.279881
    5      -12.364598
    6      -12.191913
    7      -12.191197
    8      -12.004912
    9      -11.096816
   10      -10.938313
   11      -10.937472
   12      -10.767839
   13       -9.289088
   14       -9.155616
   15       -9.154909
   16       -9.015099
   17       -6.772544
   18       -6.679528
   19       -6.678136
   20       -6.580355
   21       -5.114213
   22       -5.030310
   23       -5.027023
   24       -4.940580
   25       -4.110190
   26       -4.042304
   27       -4.042056
   28       -3.967891
   29       -3.859804
   30       -3.776376
   31       -3.774520
   32       -3.688150
   33       -2.651356
   34       -2.595794
   35       -2.593304
   36       -2.533707
   37       -2.479828
   38       -1.438457
   39       -1.436485
   40       -0.980556
   41       -0.933117
   42       -0.927907
   43       -0.925037
   44       -0.878357
   45       -0.725094
   46       -0.685646
   47       -0.681699
   48       -0.641532
   49       -0.154608
   50        0.046926
   51        0.049232
   52        0.409510
   53        0.439865
   54        0.443442
   55        0.474741
   56        0.552418
   57        1.225156
   58        1.444937
   59        1.446943
   60        2.491050
   61        2.550323
   62        3.257435
   63        3.259448
   64        3.950625
   65        6.458550
   66        6.762386
   67        6.765118
   68        7.201758
   69        8.400665
   70        8.814012
   71        8.817665
   72        9.276328
   73       10.233789
   74       10.665911
   75       10.669139
   76       10.885186
   77       11.220587
   78       12.409789
   79       13.031581
   80       13.194345
   81       13.197325
   82       13.300913
   83       13.304767
   84       13.356832
 
 -0.3333333E+00  0.1111111E+00  0.0000000E+00  0.6172840E-02
    1      -14.109922
    2      -13.918617
    3      -13.917823
    4      -13.709423
    5      -11.510832
    6      -11.347591
    7      -11.346891
    8      -11.171732
    9      -10.888854
   10      -10.733012
   11      -10.732201
   12      -10.565524
   13       -9.138233
   14       -9.017736
   15       -9.017027
   16       -8.895870
   17       -7.539056
   18       -7.447890
   19       -7.447049
   20       -7.342114
   21       -5.919842
   22       -5.818822
   23       -5.816040
   24       -5.710026
   25       -5.314551
   26       -5.216106
   27       -5.214643
   28       -5.111514
   29       -3.174656
   30       -3.108032
   31       -3.107482
   32       -3.037850
   33       -3.010311
   34       -1.949429
   35       -1.947796
   36       -1.947043
   37       -1.895037
   38       -1.892916
   39       -1.838834
   40       -1.143029
   41       -1.101146
   42       -1.097586
   43       -1.055020
   44       -0.638421
   45        0.055667
   46        0.269401
   47        0.301739
   48        0.303282
   49        0.334283
   50        0.765005
   51        0.969827
   52        0.972298
   53        1.041617
   54        1.063010
   55        1.066129
   56        1.089092
   57        1.626956
   58        1.629045
   59        2.044801
   60        2.565723
   61        2.610324
   62        3.170336
   63        3.172424
   64        3.623815
   65        6.540658
   66        6.643142
   67        6.645520
   68        7.102177
   69        7.892194
   70        8.356433
   71        8.360439
   72        8.663312
   73        8.977203
   74        9.159531
   75        9.162645
   76        9.820037
   77       10.361166
   78       12.755776
   79       13.004360
   80       13.006819
   81       13.164579
   82       13.170312
   83       13.172937
   84       13.601885
 
 -0.2222222E+00  0.1111111E+00  0.0000000E+00  0.6172840E-02
    1      -14.404355
    2      -14.209910
    3      -14.209102
    4      -13.996940
    5      -10.546863
    6      -10.539867
    7      -10.395759
    8      -10.395031
    9      -10.388586
   10      -10.387822
   11      -10.233872
   12      -10.226609
   13       -9.074302
   14       -8.987174
   15       -8.986508
   16       -8.919524
   17       -7.989725
   18       -7.951791
   19       -7.951129
   20       -7.877764
   21       -6.704950
   22       -6.700083
   23       -6.595329
   24       -6.592709
   25       -6.589855
   26       -6.588545
   27       -6.476797
   28       -6.472047
   29       -3.366825
   30       -2.293971
   31       -2.291917
   32       -2.264169
   33       -2.208498
   34       -2.207801
   35       -2.150683
   36       -1.430471
   37       -1.415866
   38       -1.387250
   39       -1.383895
   40       -1.372008
   41       -1.369979
   42       -1.339826
   43       -1.325362
   44       -0.965830
   45        1.107185
   46        1.113442
   47        1.222970
   48        1.242936
   49        1.243822
   50        1.261854
   51        1.595476
   52        1.609924
   53        1.610476
   54        1.626930
   55        1.912681
   56        1.914930
   57        1.920594
   58        1.923616
   59        2.439626
   60        2.778707
   61        2.790613
   62        2.970065
   63        2.972284
   64        3.287394
   65        6.595520
   66        6.634374
   67        6.636679
   68        7.172232
   69        7.336275
   70        7.336727
   71        7.784955
   72        7.788634
   73        7.789267
   74        7.792259
   75        8.509351
   76        8.510865
   77       10.011484
   78       12.608571
   79       12.641680
   80       12.861245
   81       12.863288
   82       12.894864
   83       12.896030
   84       12.926850
 
 -0.1111111E+00  0.1111111E+00  0.0000000E+00  0.6172840E-02
    1      -14.551913
    2      -14.355894
    3      -14.355080
    4      -14.141014
    5      -10.082505
    6       -9.939618
    7       -9.939077
    8       -9.788438
    9       -9.522799
   10       -9.520648
   11       -9.398284
   12       -9.396920
   13       -9.396858
   14       -9.393503
   15       -9.271746
   16       -9.269104
   17       -7.891632
   18       -7.889494
   19       -7.795193
   20       -7.792667
   21       -7.792618
   22       -7.791286
   23       -7.680795
   24       -7.678977
   25       -7.387553
   26       -7.275972
   27       -7.273237
   28       -7.153407
   29       -3.545894
   30       -2.467220
   31       -2.465163
   32       -1.578782
   33       -1.576453
   34       -1.533571
   35       -1.533008
   36       -1.532993
   37       -1.528538
   38       -1.486960
   39       -1.484212
   40       -1.260470
   41       -1.220353
   42       -1.218400
   43       -1.178012
   44       -1.130832
   45        1.553402
   46        1.752204
   47        1.769805
   48        1.775405
   49        1.793872
   50        1.906487
   51        1.923648
   52        1.928160
   53        1.944500
   54        2.049047
   55        2.050688
   56        2.269919
   57        2.272402
   58        2.652396
   59        2.653588
   60        2.653790
   61        2.658646
   62        2.950358
   63        3.107363
   64        3.110159
   65        6.649883
   66        6.653280
   67        6.834522
   68        6.839669
   69        6.839985
   70        6.841554
   71        6.894971
   72        7.242873
   73        7.247584
   74        7.508504
   75        7.511070
   76        7.984903
   77        9.837380
   78       12.266382
   79       12.520175
   80       12.523583
   81       12.526266
   82       12.529597
   83       12.784868
   84       12.789969
 
  0.0000000E+00  0.2222222E+00  0.0000000E+00  0.6172840E-02
    1      -14.330387
    2      -14.136740
    3      -14.135932
    4      -13.924706
    5      -11.091076
    6      -10.932596
    7      -10.931856
    8      -10.762378
    9       -9.883173
   10       -9.876848
   11       -9.743086
   12       -9.742300
   13       -9.736655
   14       -9.734641
   15       -9.594227
   16       -9.587279
   17       -7.216895
   18       -7.210202
   19       -7.108480
   20       -7.107437
   21       -7.100328
   22       -7.099873
   23       -6.989937
   24       -6.982849
   25       -6.054326
   26       -5.947918
   27       -5.947169
   28       -5.835383
   29       -3.277224
   30       -2.207317
   31       -2.205269
   32       -2.187954
   33       -2.172991
   34       -2.134125
   35       -2.131294
   36       -2.118390
   37       -2.116851
   38       -2.075426
   39       -2.060621
   40       -1.062310
   41       -1.022387
   42       -1.021667
   43       -0.981398
   44       -0.883422
   45        0.517267
   46        0.931587
   47        0.963187
   48        0.963824
   49        0.995507
   50        1.388607
   51        1.390708
   52        1.475199
   53        1.499776
   54        1.500376
   55        1.525110
   56        1.809069
   57        1.813656
   58        2.382481
   59        2.522588
   60        2.525369
   61        2.530217
   62        2.533853
   63        3.204834
   64        3.219177
   65        6.847343
   66        6.852043
   67        7.168460
   68        7.170470
   69        7.174803
   70        7.176748
   71        7.804919
   72        7.809749
   73        7.965627
   74        8.471339
   75        8.473496
   76        9.201092
   77       10.098824
   78       12.354027
   79       12.600663
   80       12.601508
   81       12.837314
   82       12.977227
   83       12.981187
   84       13.425390
 
  0.1111111E+00  0.2222222E+00  0.0000000E+00  0.6172840E-02
    1      -14.109391
    2      -13.918082
    3      -13.917291
    4      -13.708883
    5      -11.512184
    6      -11.348979
    7      -11.348212
    8      -11.173092
    9      -10.885321
   10      -10.729483
   11      -10.728700
   12      -10.561875
   13       -9.144500
   14       -9.024680
   15       -9.024292
   16       -8.904094
   17       -7.542901
   18       -7.453842
   19       -7.450631
   20       -7.347401
   21       -5.911080
   22       -5.809378
   23       -5.808160
   24       -5.701511
   25       -5.311020
   26       -5.212283
   27       -5.211366
   28       -5.107934
   29       -3.160832
   30       -3.094704
   31       -3.093155
   32       -3.023987
   33       -3.009737
   34       -1.962202
   35       -1.948843
   36       -1.946789
   37       -1.910249
   38       -1.907230
   39       -1.853436
   40       -1.146351
   41       -1.103007
   42       -1.102519
   43       -1.058516
   44       -0.637856
   45        0.053974
   46        0.272053
   47        0.303884
   48        0.306171
   49        0.336740