  32  32   0   0
  0.6647258E+01  0.4934311E-09  0.4934311E-09  0.1008861E-08  0.5000000E-15
  1.000000000000000E-004
  CAR 
 graphite                                
     19.51172428    -14.85044945  301      7.56971435      1.00000000
    -14.850  0.0000E+00  0.0000E+00
    -14.736  0.0000E+00  0.0000E+00
    -14.621  0.0000E+00  0.0000E+00
    -14.507  0.0000E+00  0.0000E+00
    -14.392  0.0000E+00  0.0000E+00
    -14.278  0.0000E+00  0.0000E+00
    -14.163  0.0000E+00  0.0000E+00
    -14.049  0.0000E+00  0.0000E+00
    -13.934  0.0000E+00  0.0000E+00
    -13.820  0.0000E+00  0.0000E+00
    -13.705  0.0000E+00  0.0000E+00
    -13.591  0.0000E+00  0.0000E+00
    -13.476  0.0000E+00  0.0000E+00
    -13.361  0.0000E+00  0.0000E+00
    -13.247  0.0000E+00  0.0000E+00
    -13.132  0.0000E+00  0.0000E+00
    -13.018  0.0000E+00  0.0000E+00
    -12.903  0.0000E+00  0.0000E+00
    -12.789  0.4450E+00  0.9228E-02
    -12.674  0.9460E+00  0.9552E-01
    -12.560  0.1319E+01  0.2304E+00
    -12.445  0.1566E+01  0.3944E+00
    -12.331  0.1860E+01  0.5905E+00
    -12.216  0.2042E+01  0.8139E+00
    -12.101  0.2235E+01  0.1059E+01
    -11.987  0.2458E+01  0.1328E+01
    -11.872  0.2650E+01  0.1621E+01
    -11.758  0.2821E+01  0.1934E+01
    -11.643  0.3011E+01  0.2268E+01
    -11.529  0.3405E+01  0.2641E+01
    -11.414  0.3661E+01  0.3043E+01
    -11.300  0.4205E+01  0.3511E+01
    -11.185  0.4414E+01  0.4004E+01
    -11.071  0.3453E+01  0.4451E+01
    -10.956  0.3639E+01  0.4836E+01
    -10.842  0.5091E+01  0.5358E+01
    -10.727  0.5971E+01  0.5966E+01
    -10.612  0.5093E+01  0.6640E+01
    -10.498  0.5365E+01  0.7214E+01
    -10.383  0.3841E+01  0.7787E+01
    -10.269  0.3507E+01  0.8175E+01
    -10.154  0.5351E+01  0.8666E+01
    -10.040  0.6321E+01  0.9323E+01
     -9.925  0.4255E+01  0.9961E+01
     -9.811  0.4219E+01  0.1039E+02
     -9.696  0.5613E+01  0.1097E+02
     -9.582  0.5661E+01  0.1164E+02
     -9.467  0.4564E+01  0.1222E+02
     -9.353  0.4552E+01  0.1274E+02
     -9.238  0.5055E+01  0.1330E+02
     -9.123  0.5274E+01  0.1388E+02
     -9.009  0.6207E+01  0.1452E+02
     -8.894  0.5093E+01  0.1514E+02
     -8.780  0.5103E+01  0.1572E+02
     -8.665  0.5250E+01  0.1631E+02
     -8.551  0.5418E+01  0.1692E+02
     -8.436  0.5710E+01  0.1755E+02
     -8.322  0.5662E+01  0.1823E+02
     -8.207  0.5307E+01  0.1885E+02
     -8.093  0.5803E+01  0.1948E+02
     -7.978  0.6139E+01  0.2017E+02
     -7.863  0.5567E+01  0.2084E+02
     -7.749  0.5219E+01  0.2146E+02
     -7.634  0.4716E+01  0.2204E+02
     -7.520  0.4306E+01  0.2254E+02
     -7.405  0.4490E+01  0.2304E+02
     -7.291  0.5018E+01  0.2361E+02
     -7.176  0.6017E+01  0.2424E+02
     -7.062  0.6149E+01  0.2497E+02
     -6.947  0.5388E+01  0.2563E+02
     -6.833  0.5754E+01  0.2625E+02
     -6.718  0.6137E+01  0.2694E+02
     -6.604  0.5998E+01  0.2766E+02
     -6.489  0.1119E+02  0.2858E+02
     -6.374  0.4571E+01  0.2938E+02
     -6.260  0.3758E+01  0.2984E+02
     -6.145  0.3342E+01  0.3024E+02
     -6.031  0.3410E+01  0.3063E+02
     -5.916  0.2496E+01  0.3098E+02
     -5.802  0.1814E+01  0.3122E+02
     -5.687  0.1974E+01  0.3142E+02
     -5.573  0.5063E+01  0.3182E+02
     -5.458  0.3678E+01  0.3227E+02
     -5.344  0.4904E+01  0.3275E+02
     -5.229  0.5421E+01  0.3334E+02
     -5.115  0.4553E+01  0.3393E+02
     -5.000  0.4668E+01  0.3444E+02
     -4.885  0.6362E+01  0.3506E+02
     -4.771  0.8435E+01  0.3592E+02
     -4.656  0.6775E+01  0.3673E+02
     -4.542  0.6695E+01  0.3750E+02
     -4.427  0.6820E+01  0.3827E+02
     -4.313  0.6365E+01  0.3903E+02
     -4.198  0.6755E+01  0.3979E+02
     -4.084  0.5553E+01  0.4048E+02
     -3.969  0.5384E+01  0.4110E+02
     -3.855  0.5252E+01  0.4171E+02
     -3.740  0.5085E+01  0.4230E+02
     -3.625  0.5021E+01  0.4288E+02
     -3.511  0.5022E+01  0.4346E+02
     -3.396  0.4438E+01  0.4399E+02
     -3.282  0.3958E+01  0.4447E+02
     -3.167  0.3622E+01  0.4490E+02
     -3.053  0.3673E+01  0.4531E+02
     -2.938  0.4134E+01  0.4576E+02
     -2.824  0.5387E+01  0.4630E+02
     -2.709  0.7446E+01  0.4702E+02
     -2.595  0.8444E+01  0.4796E+02
     -2.480  0.7637E+01  0.4890E+02
     -2.366  0.6273E+01  0.4968E+02
     -2.251  0.6696E+01  0.5043E+02
     -2.136  0.5955E+01  0.5119E+02
     -2.022  0.3721E+01  0.5186E+02
     -1.907  0.4612E+01  0.5229E+02
     -1.793  0.7136E+01  0.5298E+02
     -1.678  0.8110E+01  0.5387E+02
     -1.564  0.7831E+01  0.5479E+02
     -1.449  0.7057E+01  0.5565E+02
     -1.335  0.5840E+01  0.5640E+02
     -1.220  0.6142E+01  0.5707E+02
     -1.106  0.7463E+01  0.5785E+02
     -0.991  0.8702E+01  0.5877E+02
     -0.876  0.9854E+01  0.5987E+02
     -0.762  0.1092E+02  0.6102E+02
     -0.647  0.8746E+01  0.6214E+02
     -0.533  0.7546E+01  0.6306E+02
     -0.418  0.7327E+01  0.6391E+02
     -0.304  0.8400E+01  0.6481E+02
     -0.189  0.9098E+01  0.6576E+02
     -0.075  0.8782E+01  0.6687E+02
      0.040  0.7893E+01  0.6786E+02
      0.154  0.8490E+01  0.6879E+02
      0.269  0.9874E+01  0.6983E+02
      0.383  0.1095E+02  0.7101E+02
      0.498  0.1131E+02  0.7230E+02
      0.613  0.1234E+02  0.7366E+02
      0.727  0.1168E+02  0.7502E+02
      0.842  0.1355E+02  0.7651E+02
      0.956  0.1201E+02  0.7796E+02
      1.071  0.1314E+02  0.7941E+02
      1.185  0.1083E+02  0.8078E+02
      1.300  0.1818E+02  0.8236E+02
      1.414  0.1116E+02  0.8395E+02
      1.529  0.1431E+02  0.8545E+02
      1.643  0.1220E+02  0.8700E+02
      1.758  0.1043E+02  0.8832E+02
      1.872  0.1088E+02  0.8950E+02
      1.987  0.1108E+02  0.9079E+02
      2.102  0.1083E+02  0.9206E+02
      2.216  0.1006E+02  0.9323E+02
      2.331  0.9509E+01  0.9434E+02
      2.445  0.9460E+01  0.9543E+02
      2.560  0.9619E+01  0.9652E+02
      2.674  0.1007E+02  0.9764E+02
      2.789  0.9801E+01  0.9878E+02
      2.903  0.9056E+01  0.9987E+02
      3.018  0.8953E+01  0.1009E+03
      3.132  0.8879E+01  0.1019E+03
      3.247  0.8932E+01  0.1030E+03
      3.362  0.9255E+01  0.1040E+03
      3.476  0.8898E+01  0.1051E+03
      3.591  0.8708E+01  0.1061E+03
      3.705  0.9639E+01  0.1071E+03
      3.820  0.9031E+01  0.1082E+03
      3.934  0.8943E+01  0.1092E+03
      4.049  0.8578E+01  0.1102E+03
      4.163  0.8129E+01  0.1112E+03
      4.278  0.9160E+01  0.1122E+03
      4.392  0.8306E+01  0.1132E+03
      4.507  0.7779E+01  0.1141E+03
      4.621  0.7076E+01  0.1150E+03
      4.736  0.5078E+01  0.1156E+03
      4.851  0.4467E+01  0.1162E+03
      4.965  0.4237E+01  0.1167E+03
      5.080  0.4046E+01  0.1172E+03
      5.194  0.3813E+01  0.1176E+03
      5.309  0.3985E+01  0.1181E+03
      5.423  0.5012E+01  0.1186E+03
      5.538  0.5766E+01  0.1192E+03
      5.652  0.6589E+01  0.1199E+03
      5.767  0.7170E+01  0.1207E+03
      5.881  0.5942E+01  0.1215E+03
      5.996  0.6485E+01  0.1222E+03
      6.110  0.8455E+01  0.1231E+03
      6.225  0.6339E+01  0.1239E+03
      6.340  0.5051E+01  0.1246E+03
      6.454  0.3781E+01  0.1251E+03
      6.569  0.3649E+01  0.1255E+03
      6.683  0.3337E+01  0.1259E+03
      6.798  0.4094E+01  0.1264E+03
      6.912  0.3442E+01  0.1268E+03
      7.027  0.2850E+01  0.1272E+03
      7.141  0.2520E+01  0.1275E+03
      7.256  0.2089E+01  0.1278E+03
      7.370  0.8068E+00  0.1279E+03
      7.485  0.2996E+00  0.1280E+03
      7.600  0.1201E+00  0.1280E+03
      7.714  0.3447E+00  0.1280E+03
      7.829  0.6352E+00  0.1281E+03
      7.943  0.9527E+00  0.1282E+03
      8.058  0.1117E+01  0.1283E+03
      8.172  0.1078E+01  0.1284E+03
      8.287  0.1165E+01  0.1286E+03
      8.401  0.1278E+01  0.1287E+03
      8.516  0.1420E+01  0.1289E+03
      8.630  0.1581E+01  0.1290E+03
      8.745  0.1742E+01  0.1292E+03
      8.859  0.2482E+01  0.1295E+03
      8.974  0.3095E+01  0.1298E+03
      9.089  0.3789E+01  0.1302E+03
      9.203  0.5072E+01  0.1307E+03
      9.318  0.6582E+01  0.1314E+03
      9.432  0.5727E+01  0.1321E+03
      9.547  0.5396E+01  0.1328E+03
      9.661  0.6976E+01  0.1335E+03
      9.776  0.7390E+01  0.1343E+03
      9.890  0.5878E+01  0.1351E+03
     10.005  0.4645E+01  0.1357E+03
     10.119  0.5525E+01  0.1363E+03
     10.234  0.5429E+01  0.1369E+03
     10.348  0.5192E+01  0.1375E+03
     10.463  0.5175E+01  0.1381E+03
     10.578  0.5136E+01  0.1387E+03
     10.692  0.5188E+01  0.1393E+03
     10.807  0.5077E+01  0.1399E+03
     10.921  0.4685E+01  0.1404E+03
     11.036  0.4590E+01  0.1410E+03
     11.150  0.4142E+01  0.1415E+03
     11.265  0.3955E+01  0.1419E+03
     11.379  0.4155E+01  0.1424E+03
     11.494  0.4292E+01  0.1429E+03
     11.608  0.4512E+01  0.1434E+03
     11.723  0.4275E+01  0.1439E+03
     11.838  0.3715E+01  0.1443E+03
     11.952  0.3609E+01  0.1448E+03
     12.067  0.3536E+01  0.1452E+03
     12.181  0.3513E+01  0.1456E+03
     12.296  0.3503E+01  0.1460E+03
     12.410  0.3494E+01  0.1464E+03
     12.525  0.3679E+01  0.1468E+03
     12.639  0.3243E+01  0.1472E+03
     12.754  0.3027E+01  0.1475E+03
     12.868  0.2901E+01  0.1479E+03
     12.983  0.2752E+01  0.1482E+03
     13.097  0.3145E+01  0.1485E+03
     13.212  0.3295E+01  0.1489E+03
     13.327  0.3072E+01  0.1493E+03
     13.441  0.3352E+01  0.1496E+03
     13.556  0.2332E+01  0.1500E+03
     13.670  0.1890E+01  0.1502E+03
     13.785  0.2781E+01  0.1505E+03
     13.899  0.4086E+01  0.1508E+03
     14.014  0.4017E+01  0.1513E+03
     14.128  0.3718E+01  0.1518E+03
     14.243  0.4102E+01  0.1522E+03
     14.357  0.4656E+01  0.1527E+03
     14.472  0.4502E+01  0.1532E+03
     14.586  0.5725E+01  0.1538E+03
     14.701  0.6695E+01  0.1546E+03
     14.816  0.5946E+01  0.1553E+03
     14.930  0.6131E+01  0.1560E+03
     15.045  0.6457E+01  0.1566E+03
     15.159  0.8004E+01  0.1577E+03
     15.274  0.7428E+01  0.1585E+03
     15.388  0.8102E+01  0.1594E+03
     15.503  0.8546E+01  0.1604E+03
     15.617  0.9874E+01  0.1614E+03
     15.732  0.1152E+02  0.1626E+03
     15.846  0.8184E+01  0.1638E+03
     15.961  0.6728E+01  0.1646E+03
     16.076  0.6193E+01  0.1654E+03
     16.190  0.6213E+01  0.1661E+03
     16.305  0.4098E+01  0.1667E+03
     16.419  0.2893E+01  0.1671E+03
     16.534  0.1973E+01  0.1674E+03
     16.648  0.1571E+01  0.1676E+03
     16.763  0.1238E+01  0.1677E+03
     16.877  0.8662E+00  0.1678E+03
     16.992  0.5533E+00  0.1679E+03
     17.106  0.2622E+00  0.1680E+03
     17.221  0.1478E+00  0.1680E+03
     17.335  0.7388E-01  0.1680E+03
     17.450  0.1624E-01  0.1680E+03
     17.565  0.0000E+00  0.1680E+03
     17.679  0.0000E+00  0.1680E+03
     17.794  0.0000E+00  0.1680E+03
     17.908  0.0000E+00  0.1680E+03
     18.023  0.0000E+00  0.1680E+03
     18.137  0.0000E+00  0.1680E+03
     18.252  0.0000E+00  0.1680E+03
     18.366  0.0000E+00  0.1680E+03
     18.481  0.0000E+00  0.1680E+03
     18.595  0.0000E+00  0.1680E+03
     18.710  0.0000E+00  0.1680E+03
     18.824  0.0000E+00  0.1680E+03
     18.939  0.0000E+00  0.1680E+03
     19.054  0.0000E+00  0.1680E+03
     19.168  0.0000E+00  0.1680E+03
     19.283  0.0000E+00  0.1680E+03
     19.397  0.0000E+00  0.1680E+03
     19.512  0.0000E+00  0.1680E+03
