    4    4  200    1
  0.9040271E+01  0.2467155E-09  0.2467155E-09  0.6860257E-09  0.5000000E-15
  1.000000000000000E-004
  CAR 
 graphite                                
     16    455     12
 
  0.0000000E+00  0.0000000E+00  0.0000000E+00  0.3858025E-03
    1      -15.122836
    2      -14.870349
    3       -3.924265
    4       -2.169930
    5        1.472312
    6        1.477007
    7        1.486977
    8        1.491661
    9        8.609943
   10       12.799250
   11       12.805832
   12       12.841957
 
  0.5555556E-01  0.3469447E-17  0.0000000E+00  0.1543210E-02
    1      -15.049272
    2      -14.797985
    3       -3.835117
    4       -2.085915
    5        1.174651
    6        1.195423
    7        1.315186
    8        1.333986
    9        8.699461
   10       12.831364
   11       12.886511
   12       13.122134
 
  0.1111111E+00  0.6938894E-17  0.0000000E+00  0.1543210E-02
    1      -14.829110
    2      -14.581215
    3       -3.568473
    4       -1.835575
    5        0.349366
    6        0.384332
    7        0.896587
    8        0.922808
    9        8.968625
   10       12.850665
   11       12.945792
   12       14.003699
 
  0.1666667E+00 -0.2775558E-16  0.0000000E+00  0.1543210E-02
    1      -14.463395
    2      -14.221179
    3       -3.127038
    4       -1.422617
    5       -0.834334
    6       -0.781681
    7        0.335168
    8        0.367518
    9        9.417631
   10       12.754125
   11       12.910493
   12       13.658678
 
  0.2222222E+00 -0.1387779E-16  0.0000000E+00  0.1543210E-02
    1      -13.954093
    2      -13.719693
    3       -2.516010
    4       -2.218482
    5       -2.146677
    6       -0.854975
    7       -0.260634
    8       -0.223521
    9       10.044205
   10       12.229904
   11       12.549546
   12       12.766960
 
  0.2777778E+00  0.0000000E+00  0.0000000E+00  0.1543210E-02
    1      -13.304220
    2      -13.079778
    3       -3.688037
    4       -3.596863
    5       -1.744917
    6       -0.814800
    7       -0.774721
    8       -0.147374
    9       10.645094
   10       10.840421
   11       11.282094
   12       12.302601
 
  0.3333333E+00 -0.2775558E-16  0.0000000E+00  0.1543210E-02
    1      -12.519044
    2      -12.306864
    3       -5.166138
    4       -5.055538
    5       -1.280042
    6       -1.237973
    7       -0.832020
    8        0.669606
    9        9.028310
   10        9.819822
   11       11.745714
   12       12.090099
 
  0.3888889E+00 -0.8326673E-16  0.0000000E+00  0.1543210E-02
    1      -11.608191
    2      -11.410583
    3       -6.596782
    4       -6.468599
    5       -1.628576
    6       -1.584775
    7        0.183373
    8        1.522661
    9        7.523079
   10        8.407805
   11       11.852782
   12       12.146001
 
  0.4444444E+00 -0.2775558E-16  0.0000000E+00  0.1543210E-02
    1      -10.600099
    2      -10.424109
    3       -7.919594
    4       -7.781391
    5       -1.843100
    6       -1.798505
    7        1.193264
    8        2.205547
    9        6.378846
   10        7.196859
   11       11.738746
   12       12.065927
 
  0.5000000E+00  0.0000000E+00  0.0000000E+00  0.7716049E-03
    1       -9.811247
    2       -9.717869
    3       -8.741378
    4       -8.670762
    5       -1.915415
    6       -1.870738
    7        1.773464
    8        2.382349
    9        5.987320
   10        6.605084
   11       11.698451
   12       12.033585
 
  0.5555556E-01  0.5555556E-01  0.0000000E+00  0.7716049E-03
    1      -14.902469
    2      -14.653391
    3       -3.657171
    4       -1.918876
    5        0.644250
    6        0.664913
    7        1.003027
    8        1.019600
    9        8.878971
   10       12.934578
   11       13.007404
   12       13.636669
 
  0.1111111E+00  0.5555556E-01  0.0000000E+00  0.1543210E-02
    1      -14.609536
    2      -14.364991
    3       -3.303089
    4       -1.587101
    5       -0.307645
    6       -0.271923
    7        0.458597
    8        0.484024
    9        9.238831
   10       13.026101
   11       13.143668
   12       14.122903
 
  0.1666667E+00  0.5555556E-01  0.0000000E+00  0.1543210E-02
    1      -14.171985
    2      -13.934224
    3       -2.776631
    4       -1.551378
    5       -1.494047
    6       -1.096284
    7       -0.165176
    8       -0.130246
    9        9.778208
   10       12.858574
   11       12.941881
   12       13.126464
 
  0.2222222E+00  0.5555556E-01  0.0000000E+00  0.1543210E-02
    1      -13.592331
    2      -13.363486
    3       -2.952890
    4       -2.874403
    5       -2.084753
    6       -0.768446
    7       -0.727121
    8       -0.457111
    9       10.493230
   10       11.375150
   11       11.898191
   12       12.736903
 
  0.2777778E+00  0.5555556E-01  0.0000000E+00  0.1543210E-02
    1      -12.874656
    2      -12.656889
    3       -4.412197
    4       -4.313162
    5       -1.294462
    6       -1.249224
    7       -1.240554
    8        0.309639
    9        9.789184
   10       10.474881
   11       11.371807
   12       12.502086
 
  0.3333333E+00  0.5555556E-01  0.0000000E+00  0.1543210E-02
    1      -12.026022
    2      -11.821608
    3       -5.859042
    4       -5.741154
    5       -1.710164
    6       -1.662266
    7       -0.269859
    8        1.158643
    9        8.228152
   10        9.047610
   11       12.205789
   12       12.395974
 
  0.3888889E+00  0.5555556E-01  0.0000000E+00  0.1543210E-02
    1      -11.061453
    2      -10.873659
    3       -7.237876
    4       -7.103897
    5       -1.996075
    6       -1.946696
    7        0.765093
    8        1.969297
    9        6.870485
   10        7.724342
   11       12.110937
   12       12.432682
 
  0.4444444E+00  0.5555556E-01  0.0000000E+00  0.1543210E-02
    1      -10.055944
    2       -9.906569
    3       -8.432375
    4       -8.307272
    5       -2.141642
    6       -2.091422
    7        1.661807
    8        2.423143
    9        6.071628
   10        6.738330
   11       12.032042
   12       12.373690
 
  0.5000000E+00  0.5555556E-01  0.0000000E+00  0.1543210E-02
    1      -10.056119
    2       -9.906729
    3       -8.432200
    4       -8.307082
    5       -2.141677
    6       -2.091457
    7        1.661752
    8        2.423147
    9        6.071633
   10        6.738325
   11       12.032125
   12       12.373780
 
 -0.4444444E+00  0.5555556E-01  0.0000000E+00  0.1543210E-02
    1      -11.061647
    2      -10.873852
    3       -7.237641
    4       -7.103663
    5       -1.996172
    6       -1.946794
    7        0.765002
    8        1.969264
    9        6.870485
   10        7.724302
   11       12.111191
   12       12.432959
 
 -0.3888889E+00  0.5555556E-01  0.0000000E+00  0.1543210E-02
    1      -12.026196
    2      -11.821782
    3       -5.858821
    4       -5.740937
    5       -1.710295
    6       -1.662401
    7       -0.269954
    8        1.158591
    9        8.228107
   10        9.047509
   11       12.206160
   12       12.396334
 
 -0.3333333E+00  0.5555556E-01  0.0000000E+00  0.1543210E-02
    1      -12.874806
    2      -12.657039
    3       -4.412042
    4       -4.313019
    5       -1.294565
    6       -1.249337
    7       -1.240644
    8        0.309581
    9        9.789060
   10       10.474703
   11       11.371684
   12       12.502713
 
 -0.2777778E+00  0.5555556E-01  0.0000000E+00  0.1543210E-02
    1      -13.592455
    2      -13.363609
    3       -2.952908
    4       -2.874447
    5       -2.084832
    6       -0.768389
    7       -0.727089
    8       -0.457167
    9       10.493107
   10       11.374923
   11       11.897934
   12       12.737816
 
 -0.2222222E+00  0.5555556E-01  0.0000000E+00  0.1543210E-02
    1      -14.172081
    2      -13.934320
    3       -2.776695
    4       -1.551801
    5       -1.494531
    6       -1.096331
    7       -0.164679
    8       -0.129811
    9        9.778109
   10       12.859839
   11       12.943143
   12       13.127930
 
 -0.1666667E+00  0.5555556E-01  0.0000000E+00  0.1543210E-02
    1      -14.609604
    2      -14.365060
    3       -3.303137
    4       -1.587137
    5       -0.308983
    6       -0.273374
    7        0.460088
    8        0.485396
    9        9.238758
   10       13.028249
   11       13.145920
   12       14.122543
 
 -0.1111111E+00  0.5555556E-01  0.0000000E+00  0.1543210E-02
    1      -14.902510
    2      -14.653432
    3       -3.657200
    4       -1.918898
    5        0.641195
    6        0.661865
    7        1.006142
    8        1.022709
    9        8.878926
   10       12.937705
   11       13.010600
   12       13.630785
 
 -0.5555556E-01  0.5555556E-01  0.0000000E+00  0.7716049E-03
    1      -15.049285
    2      -14.797999
    3       -3.835126
    4       -2.085923
    5        1.171237
    6        1.192020
    7        1.318629
    8        1.337426
    9        8.699446
   10       12.834034
   11       12.889284
   12       13.115552
 
  0.1111111E+00  0.1111111E+00  0.0000000E+00  0.7716049E-03
    1      -14.244745
    2      -14.005870
    3       -2.863798
    4       -1.206436
    5       -1.177148
    6       -1.173844
    7       -0.244132
    8       -0.221278
    9        9.690269
   10       13.103088
   11       13.437685
   12       13.558054
 
  0.1666667E+00  0.1111111E+00  0.0000000E+00  0.1543210E-02
    1      -13.736923
    2      -13.505874
    3       -2.352954
    4       -2.300666
    5       -2.255708
    6       -0.990457
    7       -0.955233
    8       -0.613438
    9       10.320523
   10       11.832916
   11       12.227381
   12       13.604974
 
  0.2222222E+00  0.1111111E+00  0.0000000E+00  0.1543210E-02
    1      -13.089382
    2      -12.868371
    3       -3.678608
    4       -3.599545
    5       -1.637527
    6       -1.589082
    7       -1.488317
    8        0.089705
    9       10.391700
   10       10.913046
   11       11.124346
   12       13.477782
 
  0.2777778E+00  0.1111111E+00  0.0000000E+00  0.1543210E-02
    1      -12.307602
    2      -12.098748
    3       -5.074304
    4       -4.971813
    5       -2.150444
    6       -2.094339
    7       -0.579206
    8        0.903617
    9        8.883701
   10        9.551606
   11       12.089800
   12       13.275121
 
  0.3333333E+00  0.1111111E+00  0.0000000E+00  0.1543210E-02
    1      -11.401906
    2      -11.207623
    3       -6.457118
    4       -6.334844
    5       -2.521933
    6       -2.461572
    7        0.433965
    8        1.759533
    9        7.446771
   10        8.218696
   11       13.021261
   12       13.215743
 
  0.3888889E+00  0.1111111E+00  0.0000000E+00  0.1543210E-02
    1      -10.401661
    2      -10.228947
    3       -7.750972
    4       -7.617204
    5       -2.747024
    6       -2.684499
    7        1.448097
    8        2.458428
    9        6.332501
   10        7.046004
   11       12.951932
   12       13.319094
 
  0.4444444E+00  0.1111111E+00  0.0000000E+00  0.1543210E-02
    1       -9.622719
    2       -9.531015
    3       -8.558092
    4       -8.490491
    5       -2.822466
    6       -2.759236
    7        2.040055
    8        2.643684
    9        5.964007
   10        6.440237
   11       12.911726
   12       13.291271
 
  0.5000000E+00  0.1111111E+00  0.0000000E+00  0.1543210E-02
    1      -10.402053
    2      -10.229330
    3       -7.750538
    4       -7.616765
    5       -2.747125
    6       -2.684602
    7        1.447943
    8        2.458405
    9        6.332490
   10        7.045952
   11       12.952243
   12       13.319449
 
 -0.4444444E+00  0.1111111E+00  0.0000000E+00  0.1543210E-02
    1      -11.402277
    2      -11.207991
    3       -6.456681
    4       -6.334416
    5       -2.522091
    6       -2.461739
    7        0.433782
    8        1.759450
    9        7.446689
   10        8.218535
   11       13.021815
   12       13.215962
 
 -0.3888889E+00  0.1111111E+00  0.0000000E+00  0.1543210E-02
    1      -12.307926
    2      -12.099071
    3       -5.073984
    4       -4.971515
    5       -2.150549
    6       -2.094465
    7       -0.579388
    8        0.903510
    9        8.883474
   10        9.551306
   11       12.089488
   12       13.276179
 
 -0.3333333E+00  0.1111111E+00  0.0000000E+00  0.1543210E-02
    1      -13.089655
    2      -12.868643
    3       -3.678620
    4       -3.599609
    5       -1.637327
    6       -1.588934
    7       -1.488483
    8        0.089595
    9       10.391268
   10       10.912602
   11       11.124056
   12       13.479455
 
 -0.2777778E+00  0.1111111E+00  0.0000000E+00  0.1543210E-02
    1      -13.737142
    2      -13.506093
    3       -2.353755
    4       -2.301553
    5       -2.255850
    6       -0.989454
    7       -0.954318
    8       -0.613538
    9       10.320287
   10       11.832256
   11       12.226828
   12       13.607891
 
 -0.2222222E+00  0.1111111E+00  0.0000000E+00  0.1543210E-02
    1      -14.244909
    2      -14.006034
    3       -2.863908
    4       -1.208613
    5       -1.177229
    6       -1.176009
    7       -0.241827
    8       -0.218970
    9        9.690090
   10       13.101867
   11       13.424284
   12       13.443345
 
 -0.1666667E+00  0.1111111E+00  0.0000000E+00  0.1543210E-02
    1      -14.609645
    2      -14.365101
    3       -3.303165
    4       -1.587158
    5       -0.310877
    6       -0.275130
    7        0.461980
    8        0.487420
    9        9.238710
   10       13.030354
   11       13.147913
   12       14.125474
 
 -0.1111111E+00  0.1111111E+00  0.0000000E+00  0.7716049E-03
    1      -14.829165
    2      -14.581269
    3       -3.568511
    4       -1.835604
    5        0.346143
    6        0.381120
    7        0.899942
    8        0.926163
    9        8.968562
   10       12.853772
   11       12.948866
   12       14.012424
 
  0.1666667E+00  0.1666667E+00  0.0000000E+00  0.7716049E-03
    1      -13.161157
    2      -12.939061
    3       -3.269081
    4       -3.224266
    5       -1.908354
    6       -1.875674
    7       -1.571342
    8        0.015751
    9       10.640164
   10       11.039636
   11       11.057622
   12       14.399443
 
  0.2222222E+00  0.1666667E+00  0.0000000E+00  0.1543210E-02
    1      -12.449313
    2      -12.238162
    3       -4.392246
    4       -4.322741
    5       -2.679493
    6       -2.629896
    7       -0.735920
    8        0.772643
    9        9.320771
   10        9.813599
   11       11.927824
   12       14.590833
 
  0.2777778E+00  0.1666667E+00  0.0000000E+00  0.1543210E-02
    1      -11.609359
    2      -11.411457
    3       -5.660613
    4       -5.560353
    5       -3.220422
    6       -3.154227
    7        0.226883
    8        1.618024
    9        7.953156
   10        8.558272
   11       12.972028
   12       14.442440
 
  0.3333333E+00  0.1666667E+00  0.0000000E+00  0.1543210E-02
    1      -10.657865
    2      -10.476886
    3       -6.944830
    4       -6.822766
    5       -3.561173
    6       -3.486828
    7        1.261455
    8        2.447439
    9        6.699147
   10        7.358358
   11       14.105607
   12       14.324617
 
  0.3888889E+00  0.1666667E+00  0.0000000E+00  0.1543210E-02
    1       -9.671133
    2       -9.527643
    3       -8.087448
    4       -7.971359
    5       -3.727229
    6       -3.649705
    7        2.180725
    8        2.941223
    9        5.947797
   10        6.386394
   11       14.185410
   12       14.655034
 
  0.4444444E+00  0.1666667E+00  0.0000000E+00  0.1543210E-02
    1       -9.671643
    2       -9.528110
    3       -8.086958
    4       -7.970827
    5       -3.727268
    6       -3.649749
    7        2.180575
    8        2.941250
    9        5.947749
   10        6.386353
   11       14.185619
   12       14.655318
 
  0.5000000E+00  0.1666667E+00  0.0000000E+00  0.1543210E-02
    1      -10.658441
    2      -10.477456
    3       -6.944224
    4       -6.822171
    5       -3.561246
    6       -3.486916
    7        1.261215
    8        2.447372
    9        6.698995
   10        7.358167
   11       14.105448
   12       14.324724
 
 -0.4444444E+00  0.1666667E+00  0.0000000E+00  0.1543210E-02
    1      -11.609879
    2      -11.411975
    3       -5.660201
    4       -5.559979
    5       -3.220350
    6       -3.154196
    7        0.226624
    8        1.617896
    9        7.952789
   10        8.557897
   11       12.971438
   12       14.443634
 
 -0.3888889E+00  0.1666667E+00  0.0000000E+00  0.1543210E-02
    1      -12.449761
    2      -12.238608
    3       -4.392430
    4       -4.322996
    5       -2.678860
    6       -2.629341
    7       -0.736169
    8        0.772493
    9        9.320095
   10        9.813045
   11       11.927311
   12       14.593318
 
 -0.3333333E+00  0.1666667E+00  0.0000000E+00  0.1543210E-02
    1      -13.161525
    2      -12.939429
    3       -3.270431
    4       -3.225596
    5       -1.906684
    6       -1.873995
    7       -1.571564
    8        0.015603
    9       10.639156
   10       11.039219
   11       11.056919
   12       14.405106
 
 -0.2777778E+00  0.1666667E+00  0.0000000E+00  0.1543210E-02
    1      -13.737211
    2      -13.506161
    3       -2.355294
    4       -2.302963
    5       -2.255891
    6       -0.987819
    7       -0.952561
    8       -0.613567
    9       10.320203
   10       11.831685
   11       12.226568
   12       13.610661
 
 -0.2222222E+00  0.1666667E+00  0.0000000E+00  0.1543210E-02
    1      -14.172191
    2      -13.934430
    3       -2.776767
    4       -1.554204
    5       -1.496869
    6       -1.096382
    7       -0.161991
    8       -0.127067
    9        9.777978
   10       12.857909
   11       12.946304
   12       13.130966
 
 -0.1666667E+00  0.1666667E+00  0.0000000E+00  0.7716049E-03
    1      -14.463518
    2      -14.221302
    3       -3.127121
    4       -1.422679
    5       -0.837276
    6       -0.784613
    7        0.338421
    8        0.370771
    9        9.417489
   10       12.757687
   11       12.914002
   12       13.661163
 
  0.2222222E+00  0.2222222E+00  0.0000000E+00  0.7716049E-03
    1      -11.679032
    2      -11.479975
    3       -5.186451
    4       -5.129426
    5       -3.642645
    6       -3.599790
    7        0.156532
    8        1.568361
    9        8.172174
   10        8.667346
   11       12.890289
   12       15.704640
 
  0.2777778E+00  0.2222222E+00  0.0000000E+00  0.1543210E-02
    1      -10.790126
    2      -10.605871
    3       -6.200047
    4       -6.114056
    5       -4.311142
    6       -4.247188
    7        1.157728
    8        2.426517
    9        6.986637
   10        7.535569
   11       13.990372
   12       15.758900
 
  0.3333333E+00  0.2222222E+00  0.0000000E+00  0.1543210E-02
    1       -9.814753
    2       -9.652025
    3       -7.323234
    4       -7.210823
    5       -4.661312
    6       -4.579531
    7        2.185136
    8        3.188133
    9        5.961832
   10        6.482845
   11       15.171793
   12       15.631926
 
  0.3888889E+00  0.2222222E+00  0.0000000E+00  0.1543210E-02
    1       -9.057995
    2       -8.971301
    3       -8.071441
    4       -8.021641
    5       -4.768365
    6       -4.682025
    7        2.830722
    8        3.415762
    9        5.726083
   10        5.746225
   11       15.549296
   12       16.228361
 
  0.4444444E+00  0.2222222E+00  0.0000000E+00  0.1543210E-02
    1       -9.815511
    2       -9.652766
    3       -7.322562
    4       -7.210161
    5       -4.661216
    6       -4.579462
    7        2.184898
    8        3.188156
    9        5.961554
   10        6.482666
   11       15.170889
   12       15.631996
 
  0.5000000E+00  0.2222222E+00  0.0000000E+00  0.1543210E-02
    1      -10.790853
    2      -10.606593
    3       -6.199733
    4       -6.113796
    5       -4.310661
    6       -4.246776
    7        1.157432
    8        2.426427
    9        6.986069
   10        7.535169
   11       13.989439
   12       15.759980
 
 -0.4444444E+00  0.2222222E+00  0.0000000E+00  0.1543210E-02
    1      -11.679674
    2      -11.480615
    3       -5.187106
    4       -5.130052
    5       -3.641334
    6       -3.598468
    7        0.156223
    8        1.568210
    9        8.171219
   10        8.666740
   11       12.889505
   12       15.710094
 
 -0.3888889E+00  0.2222222E+00  0.0000000E+00  0.1543210E-02
    1      -12.449856
    2      -12.238703
    3       -4.393802
    4       -4.324241
    5       -2.677353
    6       -2.627714
    7       -0.736212
    8        0.772470
    9        9.319457
   10        9.812779
   11       11.927191
   12       14.596931
 
 -0.3333333E+00  0.2222222E+00  0.0000000E+00  0.1543210E-02
    1      -13.089819
    2      -12.868806
    3       -3.680669
    4       -3.601591
    5       -1.634860
    6       -1.586408
    7       -1.488572
    8        0.089540
    9       10.390159
   10       10.912033
   11       11.123856
   12       13.483117
 
 -0.2777778E+00  0.2222222E+00  0.0000000E+00  0.1543210E-02
    1      -13.592660
    2      -13.363813
    3       -2.955302
    4       -2.876811
    5       -2.084955
    6       -0.765418
    7       -0.724098
    8       -0.457250
    9       10.492868
   10       11.373554
   11       11.897117
   12       12.741476
 
 -0.2222222E+00  0.2222222E+00  0.0000000E+00  0.7716049E-03
    1      -13.954312
    2      -13.719912
    3       -2.516150
    4       -2.221112
    5       -2.149297
    6       -0.855074
    7       -0.257455
    8       -0.220341
    9       10.043956
   10       12.228489
   11       12.553481
   12       12.770926
 
  0.2777778E+00  0.2777778E+00  0.0000000E+00  0.7716049E-03
    1       -9.870522
    2       -9.704197
    3       -6.822078
    4       -6.753569
    5       -5.178724
    6       -5.130941
    7        2.175407
    8        3.275965
    9        5.981455
   10        6.537216
   11       15.099258
   12       15.923503
 
  0.3333333E+00  0.2777778E+00  0.0000000E+00  0.1543210E-02
    1       -8.922864
    2       -8.789855
    3       -7.639771
    4       -7.557420
    5       -5.617631
    6       -5.552456
    7        3.158597
    8        3.933282
    9        5.171024
   10        5.648279
   11       15.710572
   12       15.810091
 
  0.3888889E+00  0.2777778E+00  0.0000000E+00  0.1543210E-02
    1       -8.923662
    2       -8.790590
    3       -7.639270
    4       -7.556883
    5       -5.617341
    6       -5.552200
    7        3.158473
    8        3.933475
    9        5.170628
   10        5.648124
   11       15.711235
   12       15.809161
 
  0.4444444E+00  0.2777778E+00  0.0000000E+00  0.1543210E-02
    1       -9.871439
    2       -9.705103
    3       -6.822173
    4       -6.753627
    5       -5.177668
    6       -5.129865
    7        2.175169
    8        3.276027
    9        5.980650
   10        6.536779
   11       15.097924
   12       15.924736
 
  0.5000000E+00  0.2777778E+00  0.0000000E+00  0.1543210E-02
    1      -10.790972
    2      -10.606713
    3       -6.200946
    4       -6.114893
    5       -4.309312
    6       -4.245309
    7        1.157424
    8        2.426444
    9        6.985430
   10        7.534882
   11       13.989276
   12       15.764529
 
 -0.4444444E+00  0.2777778E+00  0.0000000E+00  0.1543210E-02
    1      -11.610094
    2      -11.412190
    3       -5.661983
    4       -5.561700
    5       -3.218110
    6       -3.151902
    7        0.226560
    8        1.617880
    9        7.951624
   10        8.557303
   11       12.971162
   12       14.447928
 
 -0.3888889E+00  0.2777778E+00  0.0000000E+00  0.1543210E-02
    1      -12.308210
    2      -12.099355
    3       -5.076032
    4       -4.973532
    5       -2.147783
    6       -2.091677
    7       -0.579512
    8        0.903447
    9        8.881960
   10        9.550398
   11       12.089161
   12       13.280235
 
 -0.3333333E+00  0.2777778E+00  0.0000000E+00  0.1543210E-02
    1      -12.875133
    2      -12.657364
    3       -4.414244
    4       -4.315203
    5       -1.291502
    6       -1.246267
    7       -1.240814
    8        0.309478
    9        9.787357
   10       10.473573
   11       11.371348
   12       12.506663
 
 -0.2777778E+00  0.2777778E+00  0.0000000E+00  0.7716049E-03
    1      -13.304562
    2      -13.080118
    3       -3.690349
    4       -3.599165
    5       -1.745114
    6       -0.811662
    7       -0.771584
    8       -0.147504
    9       10.643358
   10       10.840063
   11       11.280899
   12       12.306688
 
  0.3333333E+00  0.3333333E+00  0.0000000E+00  0.7716049E-03
    1       -8.159364
    2       -8.078902
    3       -8.078787
    4       -8.001845
    5       -6.025677
    6       -6.025586
    7        3.921618
    8        4.463936
    9        4.464482
   10        5.104131
   11       15.540582
   12       15.541148
 
  0.3888889E+00  0.3333333E+00  0.0000000E+00  0.1543210E-02
    1       -8.923815
    2       -8.790768
    3       -7.640192
    4       -7.557744
    5       -5.616262
    6       -5.551001
    7        3.158689
    8        3.933534
    9        5.170087
   10        5.647638
   11       15.711565
   12       15.809468
 
  0.4444444E+00  0.3333333E+00  0.0000000E+00  0.1543210E-02
    1       -9.815770
    2       -9.653030
    3       -7.324065
    4       -7.211614
    5       -4.659283
    6       -4.577480
    7        2.185005
    8        3.188246
    9        5.960392
   10        6.481985
   11       15.170571
   12       15.636718
 
  0.5000000E+00  0.3333333E+00  0.0000000E+00  0.1543210E-02
    1      -10.658798
    2      -10.477814
    3       -6.945965
    4       -6.823884
    5       -3.558781
    6       -3.484431
    7        1.261205
    8        2.447417
    9        6.697426
   10        7.357196
   11       14.105667
   12       14.328440
 
 -0.4444444E+00  0.3333333E+00  0.0000000E+00  0.1543210E-02
    1      -11.402705
    2      -11.208420
    3       -6.458550
    4       -6.336267
    5       -2.519244
    6       -2.458883
    7        0.433671
    8        1.759428
    9        7.444876
   10        8.217290
   11       13.024514
   12       13.217823
 
 -0.3888889E+00  0.3333333E+00  0.0000000E+00  0.1543210E-02
    1      -12.026669
    2      -11.822254
    3       -5.860770
    4       -5.742873
    5       -1.707214
    6       -1.659317
    7       -0.270143
    8        1.158505
    9        8.226172
   10        9.046094
   11       12.208730
   12       12.398912
 
 -0.3333333E+00  0.3333333E+00  0.0000000E+00  0.7716049E-03
    1      -12.519533
    2      -12.307484
    3       -5.168174
    4       -5.057543
    5       -1.276927
    6       -1.234858
    7       -0.832259
    8        0.669472
    9        9.026366
   10        9.818378
   11       11.745918
   12       12.094071
 
  0.3888889E+00  0.3888889E+00  0.0000000E+00  0.7716049E-03
    1       -9.058637
    2       -8.971990
    3       -8.072615
    4       -8.022801
    5       -4.766298
    6       -4.679935
    7        2.831106
    8        3.415697
    9        5.724745
   10        5.745128
   11       15.553829
   12       16.231507
 
  0.4444444E+00  0.3888889E+00  0.0000000E+00  0.1543210E-02
    1       -9.672160
    2       -9.528652
    3       -8.088503
    4       -7.972370
    5       -3.724772
    6       -3.647244
    7        2.180822
    8        2.941250
    9        5.945994
   10        6.384923
   11       14.190243
   12       14.659921
 
  0.5000000E+00  0.3888889E+00  0.0000000E+00  0.1543210E-02
    1      -10.402640
    2      -10.229921
    3       -7.752182
    4       -7.618397
    5       -2.744284
    6       -2.681758
    7        1.447980
    8        2.458442
    9        6.330469
   10        7.044329
   11       12.956643
   12       13.323824
 
 -0.4444444E+00  0.3888889E+00  0.0000000E+00  0.1543210E-02
    1      -11.062284
    2      -10.874489
    3       -7.239331
    4       -7.105342
    5       -1.993104
    6       -1.943727
    7        0.764883
    8        1.969252
    9        6.868368
   10        7.722593
   11       12.115397
   12       12.437125
 
 -0.3888889E+00  0.3888889E+00  0.0000000E+00  0.7716049E-03
    1      -11.608848
    2      -11.411239
    3       -6.598497
    4       -6.470305
    5       -1.625467
    6       -1.581668
    7        0.183150
    8        1.522579
    9        7.520981
   10        8.406127
   11       11.856952
   12       12.150071
 
  0.4444444E+00  0.4444444E+00  0.0000000E+00  0.7716049E-03
    1       -9.623541
    2       -9.531887
    3       -8.559425
    4       -8.491828
    5       -2.819669
    6       -2.756438
    7        2.040362
    8        2.643547
    9        5.962076
   10        6.438230
   11       12.916312
   12       13.295886
 
  0.5000000E+00  0.4444444E+00  0.0000000E+00  0.1543210E-02
    1      -10.056910
    2       -9.907534
    3       -8.433668
    4       -8.308541
    5       -2.138638
    6       -2.088419
    7        1.661912
    8        2.423089
    9        6.069500
   10        6.736218
   11       12.036479
   12       12.378139
 
 -0.4444444E+00  0.4444444E+00  0.0000000E+00  0.7716049E-03
    1      -10.600929
    2      -10.424940
    3       -7.921063
    4       -7.782848
    5       -1.839992
    6       -1.795400
    7        1.193205
    8        2.205544
    9        6.376636
   10        7.194875
   11       11.743044
   12       12.070224
 
  0.5000000E+00  0.5000000E+00  0.0000000E+00  0.3858025E-03
    1       -9.812129
    2       -9.718803
    3       -8.742737
    4       -8.672127
    5       -1.912308
    6       -1.867633
    7        1.773741
    8        2.382182
    9        5.985215
   10        6.602770
   11       11.702774
   12       12.037914
 