   32   32    1    1
  0.9341735E+01  0.4932875E-09  0.4932875E-09  0.1419195E-08  0.5000000E-15
  1.000000000000000E-004
  CAR 
 graphite                                
    128    163     84
 
  0.0000000E+00  0.0000000E+00  0.0000000E+00  0.3086420E-02
    1      -15.386000
    2      -15.292229
    3      -15.291967
    4      -15.193917
    5      -10.092956
    6      -10.082033
    7      -10.079692
    8      -10.057410
    9      -10.055551
   10      -10.045651
   11      -10.043906
   12      -10.043874
   13      -10.040565
   14      -10.023774
   15      -10.011544
   16      -10.008514
   17       -9.028428
   18       -9.027407
   19       -9.025464
   20       -9.006652
   21       -9.005771
   22       -9.003997
   23       -9.003125
   24       -9.003098
   25       -9.001118
   26       -8.974254
   27       -8.973765
   28       -8.971775
   29       -4.085714
   30       -3.416482
   31       -3.415203
   32       -2.621481
   33       -2.201958
   34       -2.199873
   35       -2.187454
   36       -2.185474
   37       -2.185467
   38       -2.183624
   39       -2.181806
   40       -2.170801
   41       -2.168640
   42       -2.166756
   43       -2.166667
   44       -2.151847
   45        1.186841
   46        1.191068
   47        1.191704
   48        1.194845
   49        1.203548
   50        1.206417
   51        1.207250
   52        1.211353
   53        1.561682
   54        1.565531
   55        1.567179
   56        1.839108
   57        1.842269
   58        1.849107
   59        1.849569
   60        1.849788
   61        1.853622
   62        2.055448
   63        2.070640
   64        2.073082
   65        5.707285
   66        5.710152
   67        5.713975
   68        5.861333
   69        5.862888
   70        5.865062
   71        5.867518
   72        5.867669
   73        5.869652
   74        6.244579
   75        6.251048
   76        6.253525
   77        8.091855
   78       10.316849
   79       10.319827
   80       11.458408
   81       11.463288
   82       11.494911
   83       11.586155
   84       11.594955
 
  0.1111111E+00 -0.2081668E-16  0.0000000E+00  0.6172840E-02
    1      -15.312491
    2      -15.219151
    3      -15.218890
    4      -15.121382
    5      -10.864884
    6      -10.799784
    7      -10.799550
    8      -10.732792
    9      -10.331694
   10      -10.322725
   11      -10.276810
   12      -10.275640
   13      -10.266909
   14      -10.266441
   15      -10.220135
   16      -10.210383
   17       -8.709852
   18       -8.705543
   19       -8.665674
   20       -8.663879
   21       -8.660176
   22       -8.659654
   23       -8.616273
   24       -8.611529
   25       -8.190681
   26       -8.140914
   27       -8.139111
   28       -8.087393
   29       -3.996786
   30       -3.329296
   31       -3.328019
   32       -2.536810
   33       -2.427015
   34       -2.411205
   35       -2.409045
   36       -2.407986
   37       -2.393520
   38       -2.390694
   39       -2.390348
   40       -2.373735
   41       -2.127811
   42       -2.113105
   43       -2.110736
   44       -2.095720
   45        0.892495
   46        0.901387
   47        0.905022
   48        0.910811
   49        1.005310
   50        1.033501
   51        1.038967
   52        1.042114
   53        1.050719
   54        1.422954
   55        1.425211
   56        1.456357
   57        1.461306
   58        1.787725
   59        1.790776
   60        1.797290
   61        1.798331
   62        1.846786
   63        2.081160
   64        2.094590
   65        5.807671
   66        5.810540
   67        5.992483
   68        5.995393
   69        5.998063
   70        6.000163
   71        6.140416
   72        6.378046
   73        6.385635
   74        6.404368
   75        6.408035
   76        6.833109
   77        8.182711
   78       10.400098
   79       10.403047
   80       11.500199
   81       11.624939
   82       11.625749
   83       11.753310
   84       11.815634
 
  0.2222222E+00 -0.2775558E-16  0.0000000E+00  0.6172840E-02
    1      -15.092375
    2      -15.000382
    3      -15.000122
    4      -14.904011
    5      -11.872606
    6      -11.799521
    7      -11.799294
    8      -11.723866
    9      -10.674444
   10      -10.668509
   11      -10.611216
   12      -10.610433
   13      -10.604783
   14      -10.604232
   15      -10.545221
   16      -10.538866
   17       -8.026573
   18       -8.019123
   19       -7.978442
   20       -7.976796
   21       -7.970194
   22       -7.969782
   23       -7.926785
   24       -7.919273
   25       -6.866585
   26       -6.820413
   27       -6.818692
   28       -6.771653
   29       -3.730441
   30       -3.068930
   31       -3.067663
   32       -3.031376
   33       -3.015551
   34       -3.008882
   35       -3.008786
   36       -2.993824
   37       -2.991556
   38       -2.985958
   39       -2.969687
   40       -2.284379
   41       -1.912983
   42       -1.898469
   43       -1.896029
   44       -1.881429
   45        0.008360
   46        0.071515
   47        0.083077
   48        0.086826
   49        0.097873
   50        0.533258
   51        0.534975
   52        0.614948
   53        0.622927
   54        0.626473
   55        0.636006
   56        1.121246
   57        1.253356
   58        1.258088
   59        1.667286
   60        1.670151
   61        1.675105
   62        1.676086
   63        2.088158
   64        2.097775
   65        6.092066
   66        6.094270
   67        6.325744
   68        6.328190
   69        6.331350
   70        6.333555
   71        6.691862
   72        6.697588
   73        7.313251
   74        7.626716
   75        7.629783
   76        8.046012
   77        8.455856
   78       10.649345
   79       10.652202
   80       11.610759
   81       11.731950
   82       11.733137
   83       11.830120
   84       12.602965
 
  0.3333333E+00  0.2775558E-16  0.0000000E+00  0.6172840E-02
    1      -14.726814
    2      -14.636974
    3      -14.636715
    4      -14.542944
    5      -12.783165
    6      -12.704652
    7      -12.704402
    8      -12.622950
    9      -10.929219
   10      -10.925562
   11      -10.862764
   12      -10.861959
   13      -10.858712
   14      -10.857954
   15      -10.793477
   16      -10.789697
   17       -7.220431
   18       -7.211392
   19       -7.176638
   20       -7.174896
   21       -7.166866
   22       -7.166173
   23       -7.129751
   24       -7.120843
   25       -5.436259
   26       -5.396874
   27       -5.394924
   28       -5.354746
   29       -3.844673
   30       -3.830703
   31       -3.818232
   32       -3.817622
   33       -3.804879
   34       -3.802601
   35       -3.790341
   36       -3.776148
   37       -3.289574
   38       -2.638418
   39       -2.637164
   40       -1.868028
   41       -1.564235
   42       -1.550362
   43       -1.547773
   44       -1.533620
   45       -1.109753
   46       -1.092029
   47       -1.088405
   48       -1.070902
   49       -0.999957
   50       -0.420899
   51       -0.419486
   52        0.053172
   53        0.063191
   54        0.066658
   55        0.077614
   56        0.248248
   57        1.074637
   58        1.078118
   59        1.544059
   60        1.546861
   61        1.549857
   62        1.550738
   63        2.055866
   64        2.061791
   65        6.472642
   66        6.476030
   67        6.715963
   68        6.717707
   69        6.720534
   70        6.723242
   71        7.019345
   72        7.023053
   73        8.822430
   74        8.911132
   75        9.104027
   76        9.106601
   77        9.469973
   78       11.056987
   79       11.059665
   80       11.307011
   81       11.829966
   82       11.891420
   83       11.892967
   84       12.097593
 
  0.4444444E+00 -0.5551115E-16  0.0000000E+00  0.6172840E-02
    1      -14.217653
    2      -14.130819
    3      -14.130555
    4      -14.040113
    5      -13.568009
    6      -13.484929
    7      -13.484681
    8      -13.398332
    9      -11.060505
   10      -11.058554
   11      -10.993211
   12      -10.991995
   13      -10.990937
   14      -10.989696
   15      -10.922432
   16      -10.920437
   17       -6.476248
   18       -6.469495
   19       -6.445270
   20       -6.443317
   21       -6.438493
   22       -6.436500
   23       -6.411908
   24       -6.405588
   25       -4.596249
   26       -4.588443
   27       -4.574499
   28       -4.572615
   29       -4.566614
   30       -4.564045
   31       -4.548947
   32       -4.540611
   33       -3.959301
   34       -3.927386
   35       -3.925074
   36       -3.892441
   37       -2.679605
   38       -2.491409
   39       -2.466921
   40       -2.464070
   41       -2.438871
   42       -2.043775
   43       -2.042455
   44       -1.910158
   45       -1.297766
   46       -1.296589
   47       -1.293876
   48       -1.098083
   49       -1.085088
   50       -1.082299
   51       -1.069113
   52       -0.580111
   53       -0.543173
   54       -0.531494
   55       -0.528268
   56       -0.515878
   57        0.974907
   58        0.977068
   59        1.469979
   60        1.473085
   61        1.474098
   62        1.475008
   63        2.025258
   64        2.028148
   65        6.763980
   66        6.766733
   67        6.982841
   68        6.983664
   69        6.984952
   70        6.988745
   71        7.212067
   72        7.214748
   73        9.546893
   74       10.356526
   75       10.434459
   76       10.636161
   77       10.639786
   78       10.947405
   79       11.546477
   80       11.551820
   81       12.010740
   82       12.024266
   83       12.027392
   84       12.052645
 
  0.6776264E-20  0.1111111E+00  0.0000000E+00  0.6172840E-02
    1      -15.312489
    2      -15.219149
    3      -15.218888
    4      -15.121380
    5      -10.864986
    6      -10.799888
    7      -10.799676
    8      -10.732921
    9      -10.331692
   10      -10.322413
   11      -10.276759
   12      -10.275642
   13      -10.266901
   14      -10.265790
   15      -10.220111
   16      -10.210023
   17       -8.710174
   18       -8.706560
   19       -8.665685
   20       -8.665244
   21       -8.660617
   22       -8.660156
   23       -8.616513
   24       -8.612292
   25       -8.189714
   26       -8.139169
   27       -8.139012
   28       -8.086509
   29       -3.996790
   30       -3.329301
   31       -3.328024
   32       -2.536816
   33       -2.425915
   34       -2.410003
   35       -2.409043
   36       -2.406712
   37       -2.393122
   38       -2.390694
   39       -2.389602
   40       -2.373809
   41       -2.128763
   42       -2.113116
   43       -2.113024
   44       -2.097188
   45        0.897656
   46        0.904775
   47        0.905028
   48        0.912002
   49        1.004566
   50        1.032309
   51        1.038781
   52        1.038964
   53        1.045332
   54        1.422520
   55        1.423743
   56        1.456505
   57        1.462223
   58        1.788070
   59        1.790750
   60        1.797497
   61        1.800200
   62        1.845663
   63        2.081256
   64        2.095861
   65        5.805920
   66        5.810192
   67        5.992248
   68        5.993915
   69        5.997090
   70        5.998833
   71        6.142323
   72        6.377827
   73        6.383841
   74        6.407242
   75        6.408601
   76        6.834700
   77        8.182707
   78       10.400084
   79       10.403034
   80       11.499564
   81       11.624106
   82       11.624618
   83       11.751349
   84       11.800208
 
  0.1111111E+00  0.1111111E+00  0.0000000E+00  0.6172840E-02
    1      -15.165589
    2      -15.073135
    3      -15.072875
    4      -14.976319
    5      -11.328421
    6      -11.325569
    7      -11.260410
    8      -11.257548
    9      -11.257525
   10      -11.254668
   11      -11.187337
   12      -11.184414
   13       -9.904066
   14       -9.869155
   15       -9.867734
   16       -9.836526
   17       -8.843306
   18       -8.822940
   19       -8.819926
   20       -8.792463
   21       -7.508076
   22       -7.504879
   23       -7.460712
   24       -7.456839
   25       -7.456819
   26       -7.454558
   27       -7.407924
   28       -7.404893
   29       -3.819035
   30       -3.155438
   31       -3.154167
   32       -3.090291
   33       -3.068861
   34       -3.066652
   35       -3.044597
   36       -2.368281
   37       -2.282445
   38       -2.280272
   39       -2.265576
   40       -2.264167
   41       -2.264160
   42       -2.260647
   43       -2.247130
   44       -2.244031
   45        0.363752
   46        0.372626
   47        0.376284
   48        0.381906
   49        0.583233
   50        0.584990
   51        0.718570
   52        0.723126
   53        0.726206
   54        0.734995
   55        1.062637
   56        1.064366
   57        1.064425
   58        1.067582
   59        1.583063
   60        1.585428
   61        1.829085
   62        2.105671
   63        2.108443
   64        2.318583
   65        5.683157
   66        5.787884
   67        5.792016
   68        6.097529
   69        6.649856
   70        6.652545
   71        6.945799
   72        6.949953
   73        6.950093
   74        6.951383
   75        7.363188
   76        7.365663
   77        8.364992
   78       10.567008
   79       10.569900
   80       11.870045
   81       11.875031
   82       11.994590
   83       11.997719
   84       12.000746
 
  0.2222222E+00  0.1111111E+00  0.0000000E+00  0.6172840E-02
    1      -14.872652
    2      -14.781950
    3      -14.781690
    4      -14.687015
    5      -12.291106
    6      -12.215564
    7      -12.215322
    8      -12.137119
    9      -11.668184
   10      -11.596508
   11      -11.596296
   12      -11.522085
   13       -9.947094
   14       -9.894015
   15       -9.893228
   16       -9.840060
   17       -8.364124
   18       -8.323535
   19       -8.321063
   20       -8.277497
   21       -6.723952
   22       -6.679278
   23       -6.679009
   24       -6.633344
   25       -6.127763
   26       -6.085381
   27       -6.083658
   28       -6.040568
   29       -3.995777
   30       -3.968818
   31       -3.966663
   32       -3.938952
   33       -3.465240
   34       -2.809839
   35       -2.808631
   36       -2.806657
   37       -2.785378
   38       -2.785014
   39       -2.763184
   40       -2.033610
   41       -1.994724
   42       -1.978856
   43       -1.976467
   44       -1.960188
   45       -0.586488
   46       -0.574173
   47       -0.569778
   48       -0.558774
   49       -0.441378
   50        0.112576
   51        0.113981
   52        0.176270
   53        0.183715
   54        0.187534
   55        0.197435
   56        0.257279
   57        0.745326
   58        0.775903
   59        0.777114
   60        1.357316
   61        1.976572
   62        2.308433
   63        2.311105
   64        2.601115
   65        5.678463
   66        5.794978
   67        5.798878
   68        6.055372
   69        7.234775
   70        7.518759
   71        7.520172
   72        7.872793
   73        8.021249
   74        8.317407
   75        8.320073
   76        8.694727
   77        8.730798
   78       10.899352
   79       10.902113
   80       11.865784
   81       12.080233
   82       12.131861
   83       12.133036
   84       12.380087
 
  0.3333333E+00  0.1111111E+00  0.0000000E+00  0.6172840E-02
    1      -14.435178
    2      -14.347040
    3      -14.346778
    4      -14.254953
    5      -13.139316
    6      -13.058733
    7      -13.058487
    8      -12.974870
    9      -11.876554
   10      -11.803459
   11      -11.803241
   12      -11.727656
   13      -10.087579
   14      -10.027626
   15      -10.027273
   16       -9.965966
   17       -7.598079
   18       -7.557710
   19       -7.555404
   20       -7.514009
   21       -5.928130
   22       -5.891873
   23       -5.890936
   24       -5.854079
   25       -4.933563
   26       -4.904999
   27       -4.902673
   28       -4.873252
   29       -4.681772
   30       -4.646755
   31       -4.644809
   32       -4.609089
   33       -3.505128
   34       -3.481951
   35       -3.480806
   36       -3.456839
   37       -2.939458
   38       -2.296988
   39       -2.295770
   40       -1.827276
   41       -1.807836
   42       -1.804088
   43       -1.785072
   44       -1.578904
   45       -1.563805
   46       -1.561321
   47       -1.546057
   48       -1.538465
   49       -1.407835
   50       -0.811649
   51       -0.810338
   52       -0.446346
   53       -0.435501
   54       -0.431708
   55       -0.419796
   56       -0.118169
   57        0.051720
   58        0.591593
   59        0.592870
   60        1.206216
   61        1.991153
   62        2.399550
   63        2.401813
   64        2.819011
   65        5.724650
   66        5.912607
   67        5.915839
   68        6.155297
   69        7.737374
   70        7.972876
   71        7.974531
   72        8.231876
   73        9.276793
   74        9.580044
   75        9.822304
   76        9.824860
   77       10.137006
   78       10.896944
   79       11.380038
   80       11.382755
   81       12.254733
   82       12.275678
   83       12.277502
   84       12.493496
 
  0.4444444E+00  0.1111111E+00  0.0000000E+00  0.6172840E-02
    1      -13.857619
    2      -13.854774
    3      -13.774077
    4      -13.771741
    5      -13.770776
    6      -13.768609
    7      -13.684401
    8      -13.681511
    9      -11.947129
   10      -11.873473
   11      -11.873251
   12      -11.797366
   13      -10.141650
   14      -10.080495
   15      -10.080275
   16      -10.017341
   17       -7.095712
   18       -7.070775
   19       -7.068652
   20       -7.044475
   21       -5.464430
   22       -5.462110
   23       -5.448950
   24       -5.446662
   25       -5.442028
   26       -5.439339
   27       -5.428229
   28       -5.419715
   29       -3.926908
   30       -3.913124
   31       -3.910242
   32       -3.894712
   33       -3.228107
   34       -3.223865
   35       -3.201290
   36       -3.196714
   37       -3.195164
   38       -3.194743
   39       -3.169498
   40       -3.166236
   41       -2.250525
   42       -2.248140
   43       -1.627389
   44       -1.625505
   45       -1.624671
   46       -1.622110
   47       -1.053460
   48       -1.049683
   49       -1.039275
   50       -1.038706
   51       -1.036509
   52       -1.031379
   53       -1.023687
   54       -1.015445
   55       -0.894844
   56       -0.892182
   57       -0.018749
   58        0.527760
   59        0.529125
   60        1.152751
   61        1.986080
   62        2.423527
   63        2.425311
   64        2.895397
   65        5.759593
   66        5.979364
   67        5.981746
   68        6.211505
   69        7.950108
   70        8.149794
   71        8.151875
   72        8.351852
   73       10.001267
   74       10.002825
   75       11.156035
   76       11.159512
   77       11.289589
   78       11.295841
   79       11.296993
   80       11.301304
   81       11.573366
   82       11.576710
   83       12.058875
   84       12.063567
 
 -0.4444444E+00  0.1111111E+00  0.0000000E+00  0.6172840E-02
    1      -14.435924
    2      -14.347795
    3      -14.347539
    4      -14.255705
    5      -13.138141
    6      -13.057563
    7      -13.057308
    8      -12.973697
    9      -11.878342
   10      -11.805172
   11      -11.804952
   12      -11.729448
   13      -10.084619
   14      -10.024463
   15      -10.024278
   16       -9.962757
   17       -7.591389
   18       -7.550231
   19       -7.549587
   20       -7.507455
   21       -5.938018
   22       -5.902271
   23       -5.899896
   24       -5.863667
   25       -4.944153
   26       -4.915008
   27       -4.914292
   28       -4.884180
   29       -4.684325
   30       -4.649486
   31       -4.647201
   32       -4.611634
   33       -3.492445
   34       -3.469834
   35       -3.466987
   36       -3.443829
   37       -2.940268
   38       -2.297802
   39       -2.296591
   40       -1.825725
   41       -1.805953
   42       -1.803476
   43       -1.783985
   44       -1.576465
   45       -1.561548
   46       -1.558660
   47       -1.543486
   48       -1.539244
   49       -1.406644
   50       -0.810511
   51       -0.809154
   52       -0.447754
   53       -0.436453
   54       -0.433860
   55       -0.422270
   56       -0.117036
   57        0.049883
   58        0.589410
   59        0.590891
   60        1.203703
   61        1.993183
   62        2.403571
   63        2.404986
   64        2.825308
   65        5.724166
   66        5.914457
   67        5.916111
   68        6.156004
   69        7.733357
   70        7.968855
   71        7.971390
   72        8.229742
   73        9.275726
   74        9.579735
   75        9.821188
   76        9.824115
   77       10.135588
   78       10.898574
   79       11.379117
   80       11.381824
   81       12.252034
   82       12.273615
   83       12.276094
   84       12.490337
 
 -0.3333333E+00  0.1111111E+00  0.0000000E+00  0.6172840E-02
    1      -14.873182
    2      -14.782477
    3      -14.782220
    4      -14.687541
    5      -12.289714
    6      -12.214159
    7      -12.213913
    8      -12.135726
    9      -11.671891
   10      -11.600106
   11      -11.599896
   12      -11.525707
   13       -9.940347
   14       -9.886674
   15       -9.886514
   16       -9.832586
   17       -8.359530
   18       -8.317549
   19       -8.317376
   20       -8.272421
   21       -6.733891
   22       -6.689938
   23       -6.688018
   24       -6.643105
   25       -6.130243
   26       -6.087957
   27       -6.086045
   28       -6.043060
   29       -4.009598
   30       -3.981741
   31       -3.981574
   32       -3.952933
   33       -3.465828
   34       -2.810405
   35       -2.809150
   36       -2.790702
   37       -2.770266
   38       -2.767745
   39       -2.746891
   40       -2.034188
   41       -1.992801
   42       -1.976991
   43       -1.974413
   44       -1.958227
   45       -0.586908
   46       -0.574892
   47       -0.572730
   48       -0.561004
   49       -0.440066
   50        0.113800
   51        0.115277
   52        0.178471
   53        0.186391
   54        0.188315
   55        0.196684
   56        0.253719
   57        0.746570
   58        0.771535
   59        0.773170
   60        1.352234
   61        1.979736
   62        2.315826
   63        2.317075
   64        2.613082
   65        5.675598
   66        5.797882
   67        5.799241
   68        6.058707
   69        7.229941
   70        7.512499
   71        7.515392
   72        7.868071
   73        8.020496
   74        8.315994
   75        8.319057
   76        8.693121
   77        8.730003
   78       10.898559
   79       10.901317
   80       11.866440
   81       12.079059
   82       12.129779
   83       12.131432
   84       12.378207
 
 -0.2222222E+00  0.1111111E+00  0.0000000E+00  0.6172840E-02
    1      -15.165910
    2      -15.073457
    3      -15.073198
    4      -14.976643
    5      -11.332397
    6      -11.325352
    7      -11.263168
    8      -11.262960
    9      -11.256071
   10      -11.255868
   11      -11.191531
   12      -11.184383
   13       -9.892811
   14       -9.856488
   15       -9.856379
   16       -9.823738
   17       -8.842948
   18       -8.820778
   19       -8.820702
   20       -8.791438
   21       -7.514138
   22       -7.509051
   23       -7.465830
   24       -7.464053
   25       -7.460753
   26       -7.458996
   27       -7.414219
   28       -7.409197
   29       -3.819392
   30       -3.155792
   31       -3.154521
   32       -3.106039
   33       -3.083421
   34       -3.083347
   35       -3.060296
   36       -2.368631
   37       -2.279481
   38       -2.264631
   39       -2.262976
   40       -2.260576
   41       -2.248121
   42       -2.245684
   43       -2.243832
   44       -2.229120
   45        0.358714
   46        0.366188
   47        0.366306
   48        0.373380
   49        0.578808
   50        0.585721
   51        0.727412
   52        0.732883
   53        0.733004
   54        0.738837
   55        1.057386
   56        1.059228
   57        1.065337
   58        1.067333
   59        1.576008
   60        1.585658
   61        1.832684
   62        2.114944
   63        2.116182
   64        2.333791
   65        5.678813
   66        5.791478
   67        5.792877
   68        6.103565
   69        6.648593
   70        6.649635
   71        6.942614
   72        6.945717
   73        6.945887
   74        6.949180
   75        7.358895
   76        7.362110
   77        8.364511
   78       10.566497
   79       10.569389
   80       11.871396
   81       11.904288
   82       11.997832
   83       12.004918
   84       12.029933
 
 -0.1111111E+00  0.1111111E+00  0.0000000E+00  0.6172840E-02
    1      -15.312594
    2      -15.219254
    3      -15.218994
    4      -15.121485
    5      -10.872571
    6      -10.807648
    7      -10.807321
    8      -10.740755
    9      -10.322283
   10      -10.320230
   11      -10.267375
   12      -10.265509
   13      -10.265482
   14      -10.263013
   15      -10.210136
   16      -10.207818
   17       -8.708788
   18       -8.706860
   19       -8.664711
   20       -8.661805
   21       -8.661783
   22       -8.661155
   23       -8.614684
   24       -8.613023
   25       -8.195543
   26       -8.145881
   27       -8.144002
   28       -8.092357
   29       -3.996910
   30       -3.329420
   31       -3.328143
   32       -2.536933
   33       -2.427051
   34       -2.425099
   35       -2.409780
   36       -2.408650
   37       -2.408643
   38       -2.405294
   39       -2.391258
   40       -2.388446
   41       -2.111607
   42       -2.096880
   43       -2.094514
   44       -2.079694
   45        0.886666
   46        0.892873
   47        0.896168
   48        0.904825
   49        0.998745
   50        1.039129
   51        1.047724
   52        1.051146
   53        1.056283
   54        1.414388
   55        1.416587
   56        1.461543
   57        1.463329
   58        1.797031
   59        1.797964
   60        1.798186
   61        1.801856
   62        1.835063
   63        2.094210
   64        2.096652
   65        5.805335
   66        5.808341
   67        5.992925
   68        5.997827
   69        5.998002
   70        5.998941
   71        6.141484
   72        6.382477
   73        6.384917
   74        6.401296
   75        6.404927
   76        6.828023
   77        8.182544
   78       10.399908
   79       10.402858
   80       11.532982
   81       11.657511
   82       11.658883
   83       11.787299
   84       11.798374
 
 -0.1355253E-19  0.2222222E+00  0.0000000E+00  0.6172840E-02
    1      -15.092369
    2      -15.000374
    3      -15.000116
    4      -14.904004
    5      -11.872588
    6      -11.799500
    7      -11.799283
    8      -11.723852
    9      -10.674613
   10      -10.668313
   11      -10.611627
   12      -10.610439
   13      -10.604777
   14      -10.603611
   15      -10.545311
   16      -10.538596
   17       -8.026930
   18       -8.019993
   19       -7.978452
   20       -7.977954
   21       -7.970692
   22       -7.970170
   23       -7.927002
   24       -7.919900
   25       -6.865688
   26       -6.818759
   27       -6.818616
   28       -6.770816
   29       -3.730459
   30       -3.068951
   31       -3.067681
   32       -3.030314
   33       -3.015322
   34       -3.008798
   35       -3.006706
   36       -2.993696
   37       -2.991555
   38       -2.984713
   39       -2.969645
   40       -2.284404
   41       -1.913985
   42       -1.898487
   43       -1.898430
   44       -1.882993
   45        0.007967
   46        0.074576
   47        0.086825
   48        0.086973
   49        0.099410
   50        0.532964
   51        0.534176
   52        0.613635
   53        0.622843
   54        0.622927
   55        0.631940
   56        1.120555
   57        1.253445
   58        1.258951
   59        1.667631
   60        1.670113
   61        1.675289
   62        1.677814
   63        2.088316
   64        2.098915
   65        6.090952
   66        6.093331
   67        6.325223
   68        6.326444
   69        6.331005
   70        6.332176
   71        6.691181
   72        6.696249
   73        7.314695
   74        7.628814
   75        7.630216
   76        8.047218
   77        8.455845
   78       10.649297
   79       10.652154
   80       11.610126
   81       11.731662
   82       11.732125
   83       11.829475
   84       12.589816
 
  0.1111111E+00  0.2222222E+00  0.0000000E+00  0.6172840E-02
    1      -14.872647
    2      -14.781944
    3      -14.781686
    4      -14.687009
    5      -12.291068
    6      -12.215514
    7      -12.215295
    8      -12.137081
    9      -11.668212
   10      -11.596532
   11      -11.596324
   12      -11.522110
   13       -9.947084
   14       -9.893996
   15       -9.893227
   16       -9.840050
   17       -8.364186
   18       -8.323536
   19       -8.321216
   20       -8.277592
   21       -6.724933
   22       -6.680935
   23       -6.679260
   24       -6.634276
   25       -6.126782
   26       -6.083680
   27       -6.083458
   28       -6.039643
   29       -3.995685
   30       -3.968670
   31       -3.966663
   32       -3.938890
   33       -3.465255
   34       -2.809848
   35       -2.808605
   36       -2.805580
   37       -2.785015
   38       -2.782889
   39       -2.761772
   40       -2.033631
   41       -1.995829
   42       -1.979056
   43       -1.978855
   44       -1.961776
   45       -0.584446
   46       -0.572570
   47       -0.569776
   48       -0.558278
   49       -0.441744