  32  32   0   0
  0.8294063E+01  0.4932875E-09  0.4932875E-09  0.1260033E-08  0.5000000E-15
  1.000000000000000E-004
  CAR 
 graphite                                
     16.95968487    -16.46356872  301      5.23282300      1.00000000
    -16.464  0.0000E+00  0.0000E+00
    -16.352  0.0000E+00  0.0000E+00
    -16.241  0.0000E+00  0.0000E+00
    -16.129  0.0000E+00  0.0000E+00
    -16.018  0.0000E+00  0.0000E+00
    -15.907  0.0000E+00  0.0000E+00
    -15.795  0.0000E+00  0.0000E+00
    -15.684  0.0000E+00  0.0000E+00
    -15.572  0.0000E+00  0.0000E+00
    -15.461  0.0000E+00  0.0000E+00
    -15.349  0.0000E+00  0.0000E+00
    -15.238  0.0000E+00  0.0000E+00
    -15.127  0.0000E+00  0.0000E+00
    -15.015  0.0000E+00  0.0000E+00
    -14.904  0.0000E+00  0.0000E+00
    -14.792  0.0000E+00  0.0000E+00
    -14.681  0.0000E+00  0.0000E+00
    -14.570  0.0000E+00  0.0000E+00
    -14.458  0.1184E-01  0.2129E-04
    -14.347  0.1461E+01  0.9576E-01
    -14.235  0.2369E+01  0.3073E+00
    -14.124  0.3019E+01  0.6081E+00
    -14.013  0.3984E+01  0.9936E+00
    -13.901  0.4835E+01  0.1519E+01
    -13.790  0.4954E+01  0.2066E+01
    -13.678  0.4890E+01  0.2611E+01
    -13.567  0.5016E+01  0.3164E+01
    -13.455  0.4916E+01  0.3718E+01
    -13.344  0.4938E+01  0.4266E+01
    -13.233  0.5381E+01  0.4835E+01
    -13.121  0.5589E+01  0.5448E+01
    -13.010  0.6493E+01  0.6111E+01
    -12.898  0.5872E+01  0.6823E+01
    -12.787  0.3985E+01  0.7361E+01
    -12.676  0.2666E+01  0.7697E+01
    -12.564  0.3609E+01  0.8066E+01
    -12.453  0.3973E+01  0.8452E+01
    -12.341  0.5981E+01  0.9138E+01
    -12.230  0.5378E+01  0.9757E+01
    -12.119  0.5787E+01  0.1036E+02
    -12.007  0.5024E+01  0.1098E+02
    -11.896  0.4806E+01  0.1150E+02
    -11.784  0.5093E+01  0.1206E+02
    -11.673  0.4997E+01  0.1262E+02
    -11.561  0.5022E+01  0.1318E+02
    -11.450  0.5219E+01  0.1374E+02
    -11.339  0.5796E+01  0.1436E+02
    -11.227  0.4988E+01  0.1495E+02
    -11.116  0.5019E+01  0.1551E+02
    -11.004  0.5074E+01  0.1607E+02
    -10.893  0.5152E+01  0.1664E+02
    -10.782  0.5226E+01  0.1722E+02
    -10.670  0.5315E+01  0.1781E+02
    -10.559  0.5565E+01  0.1841E+02
    -10.447  0.5694E+01  0.1904E+02
    -10.336  0.6031E+01  0.1969E+02
    -10.225  0.6023E+01  0.2036E+02
    -10.113  0.6089E+01  0.2103E+02
    -10.002  0.5185E+01  0.2166E+02
     -9.890  0.4190E+01  0.2218E+02
     -9.779  0.4313E+01  0.2264E+02
     -9.668  0.5070E+01  0.2317E+02
     -9.556  0.5401E+01  0.2376E+02
     -9.445  0.5595E+01  0.2437E+02
     -9.333  0.6181E+01  0.2501E+02
     -9.222  0.7043E+01  0.2575E+02
     -9.110  0.8681E+01  0.2662E+02
     -8.999  0.8370E+01  0.2765E+02
     -8.888  0.6268E+01  0.2849E+02
     -8.776  0.5005E+01  0.2910E+02
     -8.665  0.3632E+01  0.2965E+02
     -8.553  0.3242E+01  0.3003E+02
     -8.442  0.2851E+01  0.3037E+02
     -8.331  0.2465E+01  0.3067E+02
     -8.219  0.3138E+01  0.3097E+02
     -8.108  0.2387E+01  0.3126E+02
     -7.996  0.1896E+01  0.3150E+02
     -7.885  0.1994E+01  0.3170E+02
     -7.774  0.3587E+01  0.3198E+02
     -7.662  0.6555E+01  0.3264E+02
     -7.551  0.4240E+01  0.3318E+02
     -7.439  0.4074E+01  0.3365E+02
     -7.328  0.6324E+01  0.3417E+02
     -7.216  0.6671E+01  0.3486E+02
     -7.105  0.6676E+01  0.3565E+02
     -6.994  0.7815E+01  0.3646E+02
     -6.882  0.8388E+01  0.3740E+02
     -6.771  0.7332E+01  0.3827E+02
     -6.659  0.6131E+01  0.3899E+02
     -6.548  0.5842E+01  0.3966E+02
     -6.437  0.5600E+01  0.4030E+02
     -6.325  0.5397E+01  0.4091E+02
     -6.214  0.5210E+01  0.4150E+02
     -6.102  0.5019E+01  0.4207E+02
     -5.991  0.4870E+01  0.4262E+02
     -5.880  0.4829E+01  0.4316E+02
     -5.768  0.4798E+01  0.4370E+02
     -5.657  0.4636E+01  0.4422E+02
     -5.545  0.4518E+01  0.4473E+02
     -5.434  0.3920E+01  0.4522E+02
     -5.322  0.3775E+01  0.4563E+02
     -5.211  0.4373E+01  0.4608E+02
     -5.100  0.5078E+01  0.4661E+02
     -4.988  0.5829E+01  0.4722E+02
     -4.877  0.7537E+01  0.4793E+02
     -4.765  0.9279E+01  0.4888E+02
     -4.654  0.8693E+01  0.4995E+02
     -4.543  0.6054E+01  0.5077E+02
     -4.431  0.3419E+01  0.5130E+02
     -4.320  0.2355E+01  0.5160E+02
     -4.208  0.3188E+01  0.5190E+02
     -4.097  0.4565E+01  0.5233E+02
     -3.986  0.6170E+01  0.5292E+02
     -3.874  0.7784E+01  0.5371E+02
     -3.763  0.7908E+01  0.5460E+02
     -3.651  0.6562E+01  0.5540E+02
     -3.540  0.5351E+01  0.5606E+02
     -3.428  0.8268E+01  0.5677E+02
     -3.317  0.7979E+01  0.5768E+02
     -3.206  0.7735E+01  0.5855E+02
     -3.094  0.7612E+01  0.5941E+02
     -2.983  0.7450E+01  0.6026E+02
     -2.871  0.8941E+01  0.6121E+02
     -2.760  0.8338E+01  0.6220E+02
     -2.649  0.9199E+01  0.6321E+02
     -2.537  0.7969E+01  0.6417E+02
     -2.426  0.6989E+01  0.6499E+02
     -2.314  0.7771E+01  0.6581E+02
     -2.203  0.9200E+01  0.6675E+02
     -2.092  0.1107E+02  0.6788E+02
     -1.980  0.1231E+02  0.6918E+02
     -1.869  0.1156E+02  0.7056E+02
     -1.757  0.1085E+02  0.7174E+02
     -1.646  0.1245E+02  0.7304E+02
     -1.535  0.1422E+02  0.7447E+02
     -1.423  0.1351E+02  0.7610E+02
     -1.312  0.1362E+02  0.7755E+02
     -1.200  0.1083E+02  0.7919E+02
     -1.089  0.1521E+02  0.8044E+02
     -0.977  0.1879E+02  0.8256E+02
     -0.866  0.1700E+02  0.8461E+02
     -0.755  0.1435E+02  0.8635E+02
     -0.643  0.1232E+02  0.8784E+02
     -0.532  0.1073E+02  0.8911E+02
     -0.420  0.9725E+01  0.9025E+02
     -0.309  0.8243E+01  0.9122E+02
     -0.198  0.1272E+02  0.9232E+02
     -0.086  0.1356E+02  0.9386E+02
      0.025  0.1331E+02  0.9545E+02
      0.137  0.8824E+01  0.9658E+02
      0.248  0.8787E+01  0.9753E+02
      0.359  0.9701E+01  0.9860E+02
      0.471  0.1042E+02  0.9971E+02
      0.582  0.1260E+02  0.1009E+03
      0.694  0.1072E+02  0.1022E+03
      0.805  0.9447E+01  0.1033E+03
      0.917  0.9339E+01  0.1044E+03
      1.028  0.9347E+01  0.1054E+03
      1.139  0.9381E+01  0.1064E+03
      1.251  0.9670E+01  0.1075E+03
      1.362  0.9186E+01  0.1086E+03
      1.474  0.9314E+01  0.1096E+03
      1.585  0.9769E+01  0.1106E+03
      1.696  0.9469E+01  0.1117E+03
      1.808  0.9095E+01  0.1128E+03
      1.919  0.8561E+01  0.1137E+03
      2.031  0.9526E+01  0.1148E+03
      2.142  0.9830E+01  0.1158E+03
      2.253  0.7216E+01  0.1168E+03
      2.365  0.5862E+01  0.1175E+03
      2.476  0.6027E+01  0.1182E+03
      2.588  0.5578E+01  0.1188E+03
      2.699  0.4390E+01  0.1194E+03
      2.811  0.5184E+01  0.1199E+03
      2.922  0.8110E+01  0.1207E+03
      3.033  0.8452E+01  0.1216E+03
      3.145  0.5603E+01  0.1224E+03
      3.256  0.4387E+01  0.1229E+03
      3.368  0.5493E+01  0.1236E+03
      3.479  0.6610E+01  0.1242E+03
      3.590  0.5400E+01  0.1249E+03
      3.702  0.4190E+01  0.1254E+03
      3.813  0.3411E+01  0.1258E+03
      3.925  0.3027E+01  0.1262E+03
      4.036  0.2708E+01  0.1265E+03
      4.147  0.2363E+01  0.1268E+03
      4.259  0.1918E+01  0.1270E+03
      4.370  0.1681E+01  0.1272E+03
      4.482  0.1449E+01  0.1274E+03
      4.593  0.1241E+01  0.1276E+03
      4.704  0.1060E+01  0.1277E+03
      4.816  0.9620E+00  0.1278E+03
      4.927  0.7127E+00  0.1279E+03
      5.039  0.4360E+00  0.1280E+03
      5.150  0.1656E+00  0.1280E+03
      5.262  0.1532E-01  0.1280E+03
      5.373  0.1612E+00  0.1280E+03
      5.484  0.3163E+00  0.1280E+03
      5.596  0.4797E+00  0.1281E+03
      5.707  0.6542E+00  0.1281E+03
      5.819  0.8437E+00  0.1282E+03
      5.930  0.1030E+01  0.1283E+03
      6.041  0.1270E+01  0.1285E+03
      6.153  0.1561E+01  0.1286E+03
      6.264  0.1873E+01  0.1288E+03
      6.376  0.2285E+01  0.1290E+03
      6.487  0.3070E+01  0.1293E+03
      6.598  0.4259E+01  0.1297E+03
      6.710  0.4780E+01  0.1303E+03
      6.821  0.1307E+02  0.1311E+03
      6.933  0.8473E+01  0.1323E+03
      7.044  0.7357E+01  0.1331E+03
      7.156  0.7368E+01  0.1340E+03
      7.267  0.7124E+01  0.1348E+03
      7.378  0.6668E+01  0.1356E+03
      7.490  0.5508E+01  0.1362E+03
      7.601  0.4645E+01  0.1368E+03
      7.713  0.4613E+01  0.1373E+03
      7.824  0.3619E+01  0.1377E+03
      7.935  0.3498E+01  0.1381E+03
      8.047  0.3741E+01  0.1385E+03
      8.158  0.4042E+01  0.1390E+03
      8.270  0.4502E+01  0.1394E+03
      8.381  0.4813E+01  0.1400E+03
      8.492  0.4989E+01  0.1405E+03
      8.604  0.4687E+01  0.1411E+03
      8.715  0.4359E+01  0.1416E+03
      8.827  0.4080E+01  0.1420E+03
      8.938  0.3977E+01  0.1425E+03
      9.050  0.3828E+01  0.1429E+03
      9.161  0.3659E+01  0.1433E+03
      9.272  0.3572E+01  0.1437E+03
      9.384  0.3476E+01  0.1441E+03
      9.495  0.3336E+01  0.1445E+03
      9.607  0.3225E+01  0.1449E+03
      9.718  0.3186E+01  0.1452E+03
      9.829  0.3186E+01  0.1456E+03
      9.941  0.3164E+01  0.1459E+03
     10.052  0.3045E+01  0.1463E+03
     10.164  0.2978E+01  0.1466E+03
     10.275  0.3122E+01  0.1470E+03
     10.386  0.3336E+01  0.1473E+03
     10.498  0.3454E+01  0.1477E+03
     10.609  0.3532E+01  0.1481E+03
     10.721  0.3614E+01  0.1485E+03
     10.832  0.3632E+01  0.1489E+03
     10.943  0.3593E+01  0.1493E+03
     11.055  0.3941E+01  0.1497E+03
     11.166  0.4168E+01  0.1502E+03
     11.278  0.4266E+01  0.1506E+03
     11.389  0.4137E+01  0.1511E+03
     11.501  0.4090E+01  0.1515E+03
     11.612  0.4115E+01  0.1520E+03
     11.723  0.4855E+01  0.1525E+03
     11.835  0.4242E+01  0.1531E+03
     11.946  0.3432E+01  0.1535E+03
     12.058  0.2823E+01  0.1538E+03
     12.169  0.2365E+01  0.1541E+03
     12.280  0.3477E+01  0.1545E+03
     12.392  0.4266E+01  0.1549E+03
     12.503  0.5153E+01  0.1554E+03
     12.615  0.6972E+01  0.1561E+03
     12.726  0.9313E+01  0.1570E+03
     12.837  0.1096E+02  0.1581E+03
     12.949  0.1239E+02  0.1595E+03
     13.060  0.1172E+02  0.1608E+03
     13.172  0.1048E+02  0.1621E+03
     13.283  0.9920E+01  0.1632E+03
     13.395  0.9951E+01  0.1643E+03
     13.506  0.1116E+02  0.1655E+03
     13.617  0.8399E+01  0.1665E+03
     13.729  0.4820E+01  0.1673E+03
     13.840  0.2704E+01  0.1677E+03
     13.952  0.1132E+01  0.1679E+03
     14.063  0.3012E+00  0.1679E+03
     14.174  0.1439E+00  0.1680E+03
     14.286  0.7797E-01  0.1680E+03
     14.397  0.5432E-01  0.1680E+03
     14.509  0.3493E-01  0.1680E+03
     14.620  0.1981E-01  0.1680E+03
     14.731  0.8943E-02  0.1680E+03
     14.843  0.2343E-02  0.1680E+03
     14.954  0.4998E-05  0.1680E+03
     15.066  0.0000E+00  0.1680E+03
     15.177  0.0000E+00  0.1680E+03
     15.289  0.0000E+00  0.1680E+03
     15.400  0.0000E+00  0.1680E+03
     15.511  0.0000E+00  0.1680E+03
     15.623  0.0000E+00  0.1680E+03
     15.734  0.0000E+00  0.1680E+03
     15.846  0.0000E+00  0.1680E+03
     15.957  0.0000E+00  0.1680E+03
     16.068  0.0000E+00  0.1680E+03
     16.180  0.0000E+00  0.1680E+03
     16.291  0.0000E+00  0.1680E+03
     16.403  0.0000E+00  0.1680E+03
     16.514  0.0000E+00  0.1680E+03
     16.625  0.0000E+00  0.1680E+03
     16.737  0.0000E+00  0.1680E+03
     16.848  0.0000E+00  0.1680E+03
     16.960  0.0000E+00  0.1680E+03
