   32   32    1    1
  0.6204108E+01  0.4934311E-09  0.4934311E-09  0.9416039E-09  0.5000000E-15
  1.000000000000000E-004
  CAR 
 graphite                                
    128    163     84
 
  0.0000000E+00  0.0000000E+00  0.0000000E+00  0.3086420E-02
    1      -12.441992
    2      -11.361270
    3      -11.357727
    4       -9.673864
    5       -6.809010
    6       -6.808722
    7       -6.808042
    8       -6.116300
    9       -6.113727
   10       -6.111267
   11       -6.003092
   12       -5.999666
   13       -5.998130
   14       -5.997870
   15       -5.996096
   16       -5.992137
   17       -4.965076
   18       -4.961020
   19       -4.960088
   20       -4.958923
   21       -4.957394
   22       -4.953859
   23       -4.310908
   24       -4.308822
   25       -4.306772
   26       -3.985340
   27       -3.982367
   28       -3.980453
   29       -2.449531
   30        1.440460
   31        1.446200
   32        1.606442
   33        1.609240
   34        1.613834
   35        2.050865
   36        2.055726
   37        2.056158
   38        2.056820
   39        2.058892
   40        2.063898
   41        2.545002
   42        2.548046
   43        2.552904
   44        3.576927
   45        3.577782
   46        3.578665
   47        5.255935
   48        5.268589
   49        5.450342
   50        5.458719
   51        5.463348
   52        5.471836
   53        5.649446
   54        5.662598
   55        5.897729
   56        5.898596
   57        5.900565
   58        6.011698
   59        6.355658
   60        6.366257
   61        6.366412
   62        6.367723
   63        6.368139
   64        6.378652
   65       10.140970
   66       10.152061
   67       10.152820
   68       10.153787
   69       10.155143
   70       10.165697
   71       12.256290
   72       12.259436
   73       12.261253
   74       12.309827
   75       12.312359
   76       12.315592
   77       14.201496
   78       14.206076
   79       14.210953
   80       15.711138
   81       15.718919
   82       15.719943
   83       15.721171
   84       15.723364
 
  0.1111111E+00  0.1387779E-16  0.0000000E+00  0.6172840E-02
    1      -12.365302
    2      -11.286721
    3      -11.283184
    4       -9.604987
    5       -7.698137
    6       -7.105461
    7       -7.103515
    8       -6.775671
    9       -6.772652
   10       -6.230717
   11       -6.229157
   12       -6.227879
   13       -6.223937
   14       -5.756578
   15       -5.752531
   16       -5.634072
   17       -4.684778
   18       -4.612358
   19       -4.607899
   20       -4.606325
   21       -4.604606
   22       -4.594174
   23       -4.591113
   24       -4.073333
   25       -4.069529
   26       -3.526719
   27       -3.523362
   28       -2.976099
   29       -2.358354
   30        1.353602
   31        1.358756
   32        1.521518
   33        1.527251
   34        1.681530
   35        1.819471
   36        1.820832
   37        1.823455
   38        1.828287
   39        2.125092
   40        2.128607
   41        2.348086
   42        2.353608
   43        2.616158
   44        2.929228
   45        3.444691
   46        3.446156
   47        4.914347
   48        5.063877
   49        5.158236
   50        5.165402
   51        5.294635
   52        5.301519
   53        5.409979
   54        5.533475
   55        5.971386
   56        5.979099
   57        6.080497
   58        6.159576
   59        6.161581
   60        6.315861
   61        6.321101
   62        6.322327
   63        6.331445
   64        6.559348
   65       10.264195
   66       10.274071
   67       10.275234
   68       10.281019
   69       10.632605
   70       10.641246
   71       11.473830
   72       11.757329
   73       11.760883
   74       12.692509
   75       12.696306
   76       13.285633
   77       14.259995
   78       14.576312
   79       14.583411
   80       15.783269
   81       15.787243
   82       16.049331
   83       16.051863
   84       16.054405
 
  0.2222222E+00  0.4163336E-16  0.0000000E+00  0.6172840E-02
    1      -12.135614
    2      -11.063288
    3      -11.059770
    4       -9.398742
    5       -8.765850
    6       -7.796335
    7       -7.793140
    8       -7.489865
    9       -7.487769
   10       -6.576294
   11       -6.574445
   12       -6.573137
   13       -6.569859
   14       -6.401311
   15       -5.450297
   16       -5.446192
   17       -4.506894
   18       -4.502493
   19       -3.905099
   20       -3.901589
   21       -3.900125
   22       -3.898136
   23       -3.471532
   24       -2.841791
   25       -2.838354
   26       -2.727927
   27       -2.724224
   28       -2.085535
   29       -1.708275
   30        0.688002
   31        0.692665
   32        1.192020
   33        1.193345
   34        1.195751
   35        1.200431
   36        1.762567
   37        1.768311
   38        1.805493
   39        1.810372
   40        1.823565
   41        1.902561
   42        2.340156
   43        2.343820
   44        2.824615
   45        3.180324
   46        3.182234
   47        3.977746
   48        4.325914
   49        4.332291
   50        4.580652
   51        4.691493
   52        4.874928
   53        4.881094
   54        5.150423
   55        5.157128
   56        5.187866
   57        6.209509
   58        6.215013
   59        6.216177
   60        6.224849
   61        6.284193
   62        6.801089
   63        6.803324
   64        7.519909
   65       10.567799
   66       10.577484
   67       10.579250
   68       10.584959
   69       11.117245
   70       11.128900
   71       11.132491
   72       11.710339
   73       11.718150
   74       12.964865
   75       12.969101
   76       14.370074
   77       14.425888
   78       15.598218
   79       15.605296
   80       15.986510
   81       15.990533
   82       16.247437
   83       16.460905
   84       16.467477
 
  0.3333333E+00  0.0000000E+00  0.0000000E+00  0.6172840E-02
    1      -11.754024
    2      -10.692163
    3      -10.688676
    4       -9.721875
    5       -9.056294
    6       -8.719874
    7       -8.716567
    8       -7.765250
    9       -7.763198
   10       -7.239415
   11       -6.834936
   12       -6.833050
   13       -6.831677
   14       -6.828670
   15       -5.550220
   16       -5.547234
   17       -3.779950
   18       -3.776094
   19       -3.082541
   20       -3.078707
   21       -3.077351
   22       -3.075387
   23       -2.141534
   24       -2.138164
   25       -1.974571
   26       -1.633170
   27       -1.279373
   28       -1.275585
   29       -0.366390
   30       -0.139867
   31       -0.136296
   32        0.350017
   33        0.351217
   34        0.353231
   35        0.357868
   36        0.744763
   37        1.049305
   38        1.054059
   39        2.146680
   40        2.152036
   41        2.262215
   42        2.670243
   43        2.689552
   44        2.693440
   45        2.949020
   46        2.951139
   47        3.147941
   48        3.153055
   49        3.161721
   50        3.628946
   51        3.963728
   52        4.263639
   53        4.269930
   54        4.311258
   55        4.316628
   56        4.687310
   57        6.100759
   58        6.106345
   59        6.107456
   60        6.116088
   61        6.611701
   62        7.627865
   63        7.630211
   64        7.818164
   65       10.398222
   66       10.401185
   67       10.911380
   68       10.920905
   69       10.922957
   70       10.928699
   71       11.713875
   72       12.972608
   73       12.980021
   74       13.103489
   75       13.108190
   76       14.694573
   77       15.499289
   78       15.897657
   79       15.995888
   80       16.001855
   81       16.240297
   82       16.332169
   83       16.336300
   84       17.064620
 
  0.4444444E+00  0.8326673E-16  0.0000000E+00  0.6172840E-02
    1      -11.222399
    2      -10.543391
    3      -10.175346
    4      -10.171909
    5       -9.516116
    6       -9.512736
    7       -8.579392
    8       -7.971619
    9       -7.906133
   10       -7.904113
   11       -6.968754
   12       -6.966860
   13       -6.965442
   14       -6.962565
   15       -5.648585
   16       -5.645904
   17       -2.944664
   18       -2.941285
   19       -2.330044
   20       -2.325287
   21       -2.324376
   22       -2.323040
   23       -1.883171
   24       -1.880191
   25       -1.004795
   26       -0.527921
   27       -0.526058
   28       -0.438074
   29       -0.437042
   30       -0.435464
   31       -0.431221
   32       -0.405856
   33       -0.207558
   34        0.213606
   35        0.217517
   36        0.258782
   37        0.262541
   38        1.008626
   39        1.168539
   40        1.681678
   41        1.686178
   42        2.365180
   43        2.746026
   44        2.768848
   45        2.774928
   46        2.821808
   47        2.824105
   48        3.156631
   49        3.161001
   50        3.328185
   51        3.448403
   52        3.454530
   53        3.608131
   54        3.713419
   55        3.717861
   56        4.134252
   57        6.035133
   58        6.040758
   59        6.041851
   60        6.050392
   61        7.038885
   62        7.503768
   63        8.482204
   64        8.485212
   65        9.614708
   66        9.617470
   67       11.138459
   68       11.148032
   69       11.150188
   70       11.155930
   71       13.094897
   72       13.149737
   73       13.154872
   74       14.200455
   75       14.207729
   76       14.706100
   77       15.051629
   78       15.237413
   79       15.244207
   80       15.469649
   81       16.649157
   82       16.830245
   83       16.834556
   84       17.475843
 
  0.1694066E-20  0.1111111E+00  0.0000000E+00  0.6172840E-02
    1      -12.365304
    2      -11.286722
    3      -11.283186
    4       -9.604989
    5       -7.698156
    6       -7.106220
    7       -7.102859
    8       -6.775572
    9       -6.772551
   10       -6.231859
   11       -6.228460
   12       -6.227885
   13       -6.224191
   14       -5.756025
   15       -5.753505
   16       -5.633246
   17       -4.686757
   18       -4.612346
   19       -4.607582
   20       -4.606170
   21       -4.602090
   22       -4.594513
   23       -4.589299
   24       -4.073932
   25       -4.071337
   26       -3.527203
   27       -3.521566
   28       -2.977241
   29       -2.358349
   30        1.352241
   31        1.358474
   32        1.521523
   33        1.527256
   34        1.683164
   35        1.817130
   36        1.820685
   37        1.823463
   38        1.827393
   39        2.127799
   40        2.129339
   41        2.346659
   42        2.353277
   43        2.617970
   44        2.929745
   45        3.443700
   46        3.446452
   47        4.910927
   48        5.067181
   49        5.157599
   50        5.158800
   51        5.301116
   52        5.302406
   53        5.406326
   54        5.537326
   55        5.972872
   56        5.980014
   57        6.080396
   58        6.159167
   59        6.161170
   60        6.313995
   61        6.321281
   62        6.322417
   63        6.330042
   64        6.560587
   65       10.265375
   66       10.274534
   67       10.275438
   68       10.284531
   69       10.631069
   70       10.638199
   71       11.471335
   72       11.756566
   73       11.762873
   74       12.693204
   75       12.698423
   76       13.283994
   77       14.260651
   78       14.576402
   79       14.582590
   80       15.783938
   81       15.787492
   82       16.047453
   83       16.050597
   84       16.055089
 
  0.1111111E+00  0.1111111E+00  0.0000000E+00  0.6172840E-02
    1      -12.212109
    2      -11.137699
    3      -11.134175
    4       -9.467425
    5       -8.191596
    6       -8.187721
    7       -7.245430
    8       -7.241082
    9       -7.240963
   10       -7.236037
   11       -6.609370
   12       -5.923727
   13       -5.919195
   14       -5.912341
   15       -5.807515
   16       -5.804418
   17       -4.775660
   18       -4.771438
   19       -4.133479
   20       -4.114819
   21       -4.110831
   22       -3.831049
   23       -3.380819
   24       -3.377499
   25       -3.377345
   26       -3.371231
   27       -2.325033
   28       -2.320380
   29       -2.176315
   30        0.610754
   31        1.120021
   32        1.123720
   33        1.502869
   34        1.506168
   35        1.682819
   36        1.688537
   37        1.739087
   38        1.961409
   39        1.966286
   40        1.966725
   41        1.968702
   42        2.447499
   43        2.450432
   44        2.486371
   45        2.489923
   46        3.828082
   47        4.336895
   48        4.605281
   49        4.619518
   50        4.627338
   51        4.975167
   52        4.982312
   53        5.034423
   54        5.243991
   55        5.640141
   56        5.647830
   57        5.648448
   58        5.654559
   59        6.136444
   60        6.216840
   61        6.614571
   62        6.623230
   63        7.139288
   64        7.142915
   65       10.088228
   66       10.097458
   67       11.116782
   68       11.122549
   69       11.123302
   70       11.129761
   71       11.142213
   72       11.149210
   73       11.563442
   74       12.381843
   75       13.703799
   76       13.706735
   77       14.685732
   78       14.690902
   79       15.548491
   80       16.174208
   81       16.182194
   82       16.182758
   83       16.188150
   84       16.475714
 
  0.2222222E+00  0.1111111E+00  0.0000000E+00  0.6172840E-02
    1      -11.906466
    2      -10.840406
    3      -10.836907
    4       -9.205320
    5       -9.192786
    6       -8.549407
    7       -8.219975
    8       -8.216721
    9       -7.587464
   10       -7.584288
   11       -6.782835
   12       -6.697323
   13       -6.210554
   14       -5.839306
   15       -5.836329
   16       -5.368789
   17       -4.258361
   18       -4.253627
   19       -4.248785
   20       -3.309888
   21       -3.249390
   22       -2.699145
   23       -2.584839
   24       -2.582352
   25       -1.979815
   26       -1.976278
   27       -1.813605
   28       -1.616084
   29       -1.024638
   30       -0.345475
   31        0.187245
   32        0.190965
   33        0.905294
   34        0.935767
   35        1.335923
   36        1.418052
   37        1.420009
   38        1.802956
   39        1.998665
   40        2.004270
   41        2.017815
   42        2.078880
   43        2.249971
   44        2.253443
   45        2.761986
   46        3.285021
   47        3.665487
   48        3.672548
   49        3.850811
   50        3.936847
   51        4.332074
   52        4.426808
   53        4.433709
   54        4.761972
   55        4.764284
   56        4.768850
   57        5.383037
   58        5.389645
   59        6.482896
   60        6.630938
   61        6.807958
   62        6.816390
   63        7.768496
   64        7.836272
   65       10.084189
   66       10.093110
   67       10.685553
   68       10.844193
   69       11.225721
   70       11.636780
   71       11.643722
   72       12.323037
   73       12.330442
   74       12.543517
   75       13.896995
   76       14.784401
   77       14.905702
   78       15.763827
   79       16.348436
   80       16.358662
   81       16.363985
   82       16.444242
   83       16.447824
   84       16.751095
 
  0.3333333E+00  0.1111111E+00  0.0000000E+00  0.6172840E-02
    1      -11.449835
    2      -10.396464
    3      -10.393000
    4      -10.094176
    5       -9.080627
    6       -9.077297
    7       -8.783328
    8       -8.767812
    9       -7.797955
   10       -7.794756
   11       -7.570656
   12       -6.867807
   13       -6.396459
   14       -5.980030
   15       -5.977048
   16       -4.897147
   17       -4.030535
   18       -3.466427
   19       -3.462709
   20       -2.659406
   21       -2.435214
   22       -1.777474
   23       -1.775013
   24       -1.273302
   25       -1.168747
   26       -1.161721
   27       -1.051587
   28       -0.780853
   29       -0.776974
   30       -0.516442
   31       -0.512714
   32       -0.006726
   33        0.315393
   34        0.316483
   35        0.329390
   36        0.690286
   37        0.692854
   38        1.347244
   39        1.848406
   40        1.913283
   41        2.243129
   42        2.254236
   43        2.258412
   44        2.634393
   45        2.639876
   46        2.666425
   47        2.670132
   48        2.870151
   49        3.158918
   50        3.514189
   51        3.801561
   52        3.807417
   53        3.898625
   54        3.904014
   55        3.909766
   56        4.210297
   57        5.216318
   58        5.222839
   59        6.863056
   60        6.898999
   61        6.906881
   62        7.494339
   63        7.752119
   64        8.292088
   65        9.638062
   66       10.170036
   67       10.178142
   68       10.610216
   69       12.042564
   70       12.049680
   71       12.292685
   72       12.686006
   73       13.594275
   74       13.601543
   75       13.913511
   76       15.218299
   77       15.379861
   78       15.721323
   79       15.728675
   80       15.899753
   81       16.013083
   82       16.836391
   83       16.840531
   84       17.277074
 
  0.4444444E+00  0.1111111E+00  0.0000000E+00  0.6172840E-02
    1      -10.846406
    2      -10.842707
    3       -9.811391
    4       -9.806879
    5       -9.806537
    6       -9.802158
    7       -8.840982
    8       -8.243094
    9       -8.239070
   10       -7.868409
   11       -7.865202
   12       -6.930824
   13       -6.459784
   14       -6.035716
   15       -6.032733
   16       -4.843126
   17       -3.538822
   18       -2.961465
   19       -2.958208
   20       -2.722175
   21       -1.831884
   22       -1.343643
   23       -1.340242
   24       -1.308665
   25       -1.304883
   26       -1.143145
   27       -1.120558
   28       -0.667902
   29       -0.561613
   30       -0.558363
   31        0.234988
   32        0.239323
   33        0.347578
   34        0.391041
   35        0.394833
   36        0.825678
   37        0.953015
   38        0.953664
   39        0.954680
   40        0.962013
   41        1.643608
   42        1.648044
   43        1.770639
   44        2.811455
   45        2.817890
   46        3.120426
   47        3.125000
   48        3.126819
   49        3.130476
   50        3.214773
   51        3.222082
   52        3.224116
   53        3.225338
   54        3.651624
   55        3.658052
   56        3.873587
   57        5.159312
   58        5.165847
   59        6.922691
   60        6.929984
   61        7.318684
   62        7.322628
   63        8.424056
   64        8.510452
   65        8.656747
   66       10.219888
   67       10.227269
   68       10.509794
   69       12.197975
   70       12.205393
   71       12.736121
   72       13.816617
   73       13.821858
   74       13.891871
   75       14.768047
   76       14.771530
   77       14.773531
   78       14.781867
   79       15.600014
   80       15.604214
   81       17.036774
   82       17.040063
   83       17.341712
   84       17.345020
 
 -0.4444444E+00  0.1111111E+00  0.0000000E+00  0.6172840E-02
    1      -11.449947
    2      -10.396575
    3      -10.393114
    4      -10.094003
    5       -9.080449
    6       -9.077110
    7       -8.783643
    8       -8.767864
    9       -7.798161
   10       -7.794963
   11       -7.570533
   12       -6.867615
   13       -6.396646
   14       -5.979914
   15       -5.976979
   16       -4.897499
   17       -4.027004
   18       -3.463119
   19       -3.460779
   20       -2.658483
   21       -2.438350
   22       -1.780869
   23       -1.777069
   24       -1.273343
   25       -1.169258
   26       -1.162790
   27       -1.052688
   28       -0.783077
   29       -0.780887
   30       -0.516544
   31       -0.512429
   32       -0.010214
   33        0.315579
   34        0.317179
   35        0.330714
   36        0.692714
   37        0.697326
   38        1.351220
   39        1.848430
   40        1.912618
   41        2.242338
   42        2.253947
   43        2.257050
   44        2.633998
   45        2.639328
   46        2.666010
   47        2.670270
   48        2.866279
   49        3.158977
   50        3.518249
   51        3.803930
   52        3.807858
   53        3.897920
   54        3.904291
   55        3.910015
   56        4.211025
   57        5.216489
   58        5.223139
   59        6.863308
   60        6.898407
   61        6.905663
   62        7.494540
   63        7.751907
   64        8.293367
   65        9.639103
   66       10.172584
   67       10.179682
   68       10.606990
   69       12.040883
   70       12.048514
   71       12.292821
   72       12.686587
   73       13.594150
   74       13.601768
   75       13.913782
   76       15.217412
   77       15.379307
   78       15.723268
   79       15.729685
   80       15.900990
   81       16.015086
   82       16.835613
   83       16.840019
   84       17.282366
 
 -0.3333333E+00  0.1111111E+00  0.0000000E+00  0.6172840E-02
    1      -11.906546
    2      -10.840485
    3      -10.836988
    4       -9.205093
    5       -9.192864
    6       -8.549840
    7       -8.219785
    8       -8.216532
    9       -7.587899
   10       -7.584726
   11       -6.782693
   12       -6.696992
   13       -6.210890
   14       -5.839154
   15       -5.836433
   16       -5.367903
   17       -4.253518
   18       -4.251349
   19       -4.247065
   20       -3.313106
   21       -3.246874
   22       -2.699241
   23       -2.588320
   24       -2.584859
   25       -1.980008
   26       -1.976305
   27       -1.813636
   28       -1.618838
   29       -1.024545
   30       -0.349089
   31        0.184264
   32        0.186218
   33        0.901241
   34        0.939746
   35        1.335993
   36        1.421232
   37        1.425525
   38        1.802717
   39        1.998667
   40        2.004236
   41        2.022357
   42        2.079025
   43        2.249771
   44        2.253563
   45        2.762147
   46        3.283030
   47        3.664008
   48        3.667502
   49        3.846181
   50        3.936168
   51        4.336971
   52        4.432130
   53        4.435168
   54        4.761980
   55        4.766487
   56        4.768787
   57        5.383397
   58        5.390275
   59        6.483043
   60        6.631691
   61        6.806863
   62        6.814369
   63        7.769758
   64        7.836085
   65       10.088652
   66       10.095916
   67       10.687159
   68       10.839819
   69       11.225609
   70       11.633777
   71       11.641595
   72       12.323033
   73       12.330727
   74       12.544825
   75       13.896820
   76       14.785534
   77       14.905127
   78       15.769168
   79       16.355469
   80       16.360965
   81       16.365850
   82       16.443495
   83       16.447372
   84       16.753107
 
 -0.2222222E+00  0.1111111E+00  0.0000000E+00  0.6172840E-02
    1      -12.212157
    2      -11.137747
    3      -11.134224
    4       -9.467476
    5       -8.190341
    6       -8.189404
    7       -7.243899
    8       -7.241393
    9       -7.240743
   10       -7.238287
   11       -6.609064
   12       -5.921658
   13       -5.921057
   14       -5.911245
   15       -5.807155
   16       -5.805014
   17       -4.770838
   18       -4.769412
   19       -4.132138
   20       -4.116520
   21       -4.112090
   22       -3.828029
   23       -3.382052
   24       -3.378678
   25       -3.377954
   26       -3.374242
   27       -2.326089
   28       -2.322188
   29       -2.176335
   30        0.606527
   31        1.116670
   32        1.118438
   33        1.503606
   34        1.509948
   35        1.682811
   36        1.688525
   37        1.734653
   38        1.963127
   39        1.966721
   40        1.969373
   41        1.973374
   42        2.448809
   43        2.449386
   44        2.487306
   45        2.493872
   46        3.827193
   47        4.331222
   48        4.605700
   49        4.616286
   50        4.618088
   51        4.984933
   52        4.985966
   53        5.033376
   54        5.250037
   55        5.641245
   56        5.647869
   57        5.648477
   58        5.655013
   59        6.137500
   60        6.216842
   61        6.613269
   62        6.620940
   63        7.140267
   64        7.142516
   65       10.093528
   66       10.100999
   67       11.112573
   68       11.121921
   69       11.122387
   70       11.128552
   71       11.140051
   72       11.147186
   73       11.565371
   74       12.384083
   75       13.703186
   76       13.707190
   77       14.687583
   78       14.693899
   79       15.542839
   80       16.178967
   81       16.182935
   82       16.186129
   83       16.188896
   84       16.474755
 
 -0.1111111E+00  0.1111111E+00  0.0000000E+00  0.6172840E-02
    1      -12.365320
    2      -11.286738
    3      -11.283202
    4       -9.605006
    5       -7.698955
    6       -7.104979
    7       -7.103097
    8       -6.776263
    9       -6.773210
   10       -6.231664
   11       -6.227950
   12       -6.226604
   13       -6.224913
   14       -5.756359
   15       -5.752448
   16       -5.633372
   17       -4.690144
   18       -4.608062
   19       -4.606727
   20       -4.605337
   21       -4.603055
   22       -4.592433
   23       -4.588232
   24       -4.077044
   25       -4.073619
   26       -3.524432
   27       -3.522026
   28       -2.979835
   29       -2.358356
   30        1.351618
   31        1.354513
   32        1.521525
   33        1.527258
   34        1.687879
   35        1.815765
   36        1.820375
   37        1.820860
   38        1.822450
   39        2.131390
   40        2.135311
   41        2.345979
   42        2.349251
   43        2.622849
   44        2.930136
   45        3.444007
   46        3.445486
   47        4.904177
   48        5.074140
   49        5.147961
   50        5.154934
   51        5.304859
   52        5.312304
   53        5.399308
   54        5.544329
   55        5.973825
   56        5.981463
   57        6.080539
   58        6.159213
   59        6.161676
   60        6.312598
   61        6.321224
   62        6.322775
   63        6.327851
   64        6.560584
   65       10.270064
   66       10.275515
   67       10.277035
   68       10.286272
   69       10.626386
   70       10.634820
   71       11.467833
   72       11.759250
   73       11.762165
   74       12.695574
   75       12.699362
   76       13.281984
   77       14.265861
   78       14.574326
   79       14.579167
   80       15.788399
   81       15.792209
   82       16.042385
   83       16.049653
   84       16.052796
 
  0.1694066E-20  0.2222222E+00  0.0000000E+00  0.6172840E-02
    1      -12.135622
    2      -11.063295
    3      -11.059779
    4       -9.398747
    5       -8.765930
    6       -7.796396
    7       -7.793201
    8       -7.490640
    9       -7.486928
   10       -6.577629
   11       -6.573902
   12       -6.573188
   13       -6.569180
   14       -6.401210
   15       -5.449493
   16       -5.447774
   17       -4.506592
   18       -4.500847
   19       -3.905993
   20       -3.901419
   21       -3.899925
   22       -3.895022
   23       -3.472787
   24       -2.842302
   25       -2.836436
   26       -2.728454
   27       -2.725880
   28       -2.085518
   29       -1.709500
   30        0.686471
   31        0.692353
   32        1.189445
   33        1.193112
   34        1.195766
   35        1.199764
   36        1.762660
   37        1.768352
   38        1.803879
   39        1.810301
   40        1.823725
   41        1.904303
   42        2.343023
   43        2.344551
   44        2.826499
   45        3.179087
   46        3.182780
   47        3.974914
   48        4.325271
   49        4.326719
   50        4.583696
   51        4.688231
   52        4.880628
   53        4.881998
   54        5.151194
   55        5.157736
   56        5.191235
   57        6.207550
   58        6.215160
   59        6.216266
   60        6.223728
   61        6.284313
   62        6.800301
   63        6.803130
   64        7.521855
   65       10.569008
   66       10.577949
   67       10.579424
   68       10.588279
   69       11.114284
   70       11.127940
   71       11.134043
   72       11.709084
   73       11.715946
   74       12.966721
   75       12.970918
   76       14.368664
   77       14.426643
   78       15.597786
   79       15.604681
   80       15.987353
   81       15.990885
   82       16.250544
   83       16.465678
   84       16.468347
 
  0.1111111E+00  0.2222222E+00  0.0000000E+00  0.6172840E-02
    1      -11.906472
    2      -10.840411
    3      -10.836912
    4       -9.205163
    5       -9.193037
    6       -8.549319
    7       -8.220048
    8       -8.216800
    9       -7.587411
   10       -7.584232
   11       -6.782889
   12       -6.697257
   13       -6.210611
   14       -5.839287
   15       -5.836302
   16       -5.368788
   17       -4.258252
   18       -4.253626
   19       -4.248858
   20       -3.308607
   21       -3.249049
   22       -2.700413
   23       -2.584096
   24       -2.580555
   25       -1.980524
   26       -1.978076
   27       -1.813594
   28       -1.614586
   29       -1.026091
   30       -0.345705
   31        0.187231
   32        0.190764
   33        0.905236
   34        0.933907
   35        1.336210
   36        1.415684
   37        1.418836
   38        1.804846
   39        1.998671
   40        2.004299
   41        2.015944
   42        2.078553
   43        2.252747
   44        2.254444
   45        2.763928
   46        3.283259
   47        3.665424
   48        3.669551
   49        3.851979