 running on    6 total cores
 distrk:  each k-point on    6 cores,    1 groups
 distr:  one band on    1 cores,    6 groups
 using from now: INCAR     
 vasp.5.3.5 31Mar14 (build Nov 02 2014 15:17:37) complex                        
  
 POSCAR found :  1 types and      32 ions
 scaLAPACK will be used

 ----------------------------------------------------------------------------- 
|                                                                             |
|           W    W    AA    RRRRR   N    N  II  N    N   GGGG   !!!           |
|           W    W   A  A   R    R  NN   N  II  NN   N  G    G  !!!           |
|           W    W  A    A  R    R  N N  N  II  N N  N  G       !!!           |
|           W WW W  AAAAAA  RRRRR   N  N N  II  N  N N  G  GGG   !            |
|           WW  WW  A    A  R   R   N   NN  II  N   NN  G    G                |
|           W    W  A    A  R    R  N    N  II  N    N   GGGG   !!!           |
|                                                                             |
|      For optimal performance we recommend to set                            |
|        NCORE= 4 - approx SQRT( number of cores)                             |
|      NCORE specifies how many cores store one orbital (NPAR=cpu/NCORE).     |
|      This setting can  greatly improve the performance of VASP for DFT.     |
|      The default, NPAR=number of cores might be grossly inefficient         |
|      on modern multi-core architectures or massively parallel machines.     |
|      Do your own testing !!!!                                               |
|      Unfortunately you need to use the default for GW and RPA calculations. |
|      (for HF NCORE is supported but not extensively tested yet)             |
|                                                                             |
 ----------------------------------------------------------------------------- 


 ----------------------------------------------------------------------------- 
|                                                                             |
|  ADVICE TO THIS USER RUNNING 'VASP/VAMP'   (HEAR YOUR MASTER'S VOICE ...):  |
|                                                                             |
|      You have a (more or less) 'large supercell' and for larger cells       |
|      it might be more efficient to use real space projection operators      |
|      So try LREAL= Auto  in the INCAR   file.                               |
|      Mind: If you want to do a very accurate calculations keep the          |
|      reciprocal projection scheme          (i.e. LREAL=.FALSE.)             |
|                                                                             |
 ----------------------------------------------------------------------------- 

 LDA part: xc-table for Pade appr. of Perdew
 POSCAR, INCAR and KPOINTS ok, starting setup
 WARNING: small aliasing (wrap around) errors must be expected
 FFT: planning ...
 WAVECAR not read
 WARNING: random wavefunctions but no delay for mixing, default for NELMDL
 entering main loop
       N       E                     dE             d eps       ncg     rms          rms(c)
DAV:   1     0.471399781369E+03    0.47140E+03   -0.75485E+04 27384   0.167E+03
DAV:   2    -0.258964025200E+03   -0.73036E+03   -0.69993E+03 34164   0.305E+02
DAV:   3    -0.296112138768E+03   -0.37148E+02   -0.36689E+02 33420   0.654E+01
DAV:   4    -0.296693001984E+03   -0.58086E+00   -0.57944E+00 33060   0.893E+00
DAV:   5    -0.296706985234E+03   -0.13983E-01   -0.13977E-01 33288   0.129E+00    0.220E+01
DAV:   6    -0.284716596336E+03    0.11990E+02   -0.10870E+01 31260   0.101E+01    0.116E+01
DAV:   7    -0.280934896138E+03    0.37817E+01   -0.10950E+01 30420   0.102E+01    0.163E+00
DAV:   8    -0.280961559938E+03   -0.26664E-01   -0.22422E-01 31644   0.153E+00    0.475E-01
DAV:   9    -0.280964070628E+03   -0.25107E-02   -0.70114E-03 33576   0.331E-01    0.823E-02
DAV:  10    -0.280964200461E+03   -0.12983E-03   -0.75546E-04 32412   0.101E-01    0.455E-02
DAV:  11    -0.280964313224E+03   -0.11276E-03   -0.33957E-04 33648   0.564E-02    0.296E-02
DAV:  12    -0.280964308975E+03    0.42490E-05   -0.25249E-04 35736   0.402E-02    0.103E-02
DAV:  13    -0.280964316685E+03   -0.77103E-05   -0.18385E-05 32964   0.165E-02    0.371E-03
DAV:  14    -0.280964317393E+03   -0.70721E-06   -0.44356E-06 20232   0.585E-03
   1 F= -.28468478E+03 E0= -.28468478E+03  d E =0.000000E+00
