  72  72   0   0
  0.1089857E+02  0.1170790E-08  0.8189300E-09  0.8184200E-09  0.5000000E-15
  1.000000000000000E-004
  CAR 
 diamond                                 
      5.85252172    -18.67926449  301      0.92319384      1.00000000
    -18.679  0.0000E+00  0.0000E+00
    -18.597  0.0000E+00  0.0000E+00
    -18.516  0.0000E+00  0.0000E+00
    -18.434  0.0000E+00  0.0000E+00
    -18.352  0.0000E+00  0.0000E+00
    -18.270  0.0000E+00  0.0000E+00
    -18.189  0.0000E+00  0.0000E+00
    -18.107  0.0000E+00  0.0000E+00
    -18.025  0.0000E+00  0.0000E+00
    -17.943  0.0000E+00  0.0000E+00
    -17.862  0.0000E+00  0.0000E+00
    -17.780  0.0000E+00  0.0000E+00
    -17.698  0.0000E+00  0.0000E+00
    -17.616  0.0000E+00  0.0000E+00
    -17.534  0.0000E+00  0.0000E+00
    -17.453  0.0000E+00  0.0000E+00
    -17.371  0.0000E+00  0.0000E+00
    -17.289  0.0000E+00  0.0000E+00
    -17.207  0.0000E+00  0.0000E+00
    -17.126  0.0000E+00  0.0000E+00
    -17.044  0.0000E+00  0.0000E+00
    -16.962  0.0000E+00  0.0000E+00
    -16.880  0.0000E+00  0.0000E+00
    -16.798  0.0000E+00  0.0000E+00
    -16.717  0.0000E+00  0.0000E+00
    -16.635  0.4174E+00  0.1028E-01
    -16.553  0.6002E+00  0.6223E-01
    -16.471  0.0000E+00  0.8000E-01
    -16.390  0.0000E+00  0.8000E-01
    -16.308  0.0000E+00  0.8000E-01
    -16.226  0.0000E+00  0.8000E-01
    -16.144  0.0000E+00  0.8000E-01
    -16.063  0.0000E+00  0.8000E-01
    -15.981  0.0000E+00  0.8000E-01
    -15.899  0.0000E+00  0.8000E-01
    -15.817  0.0000E+00  0.8000E-01
    -15.735  0.0000E+00  0.8000E-01
    -15.654  0.0000E+00  0.8000E-01
    -15.572  0.0000E+00  0.8000E-01
    -15.490  0.0000E+00  0.8000E-01
    -15.408  0.0000E+00  0.8000E-01
    -15.327  0.0000E+00  0.8000E-01
    -15.245  0.0000E+00  0.8000E-01
    -15.163  0.0000E+00  0.8000E-01
    -15.081  0.0000E+00  0.8000E-01
    -14.999  0.0000E+00  0.8000E-01
    -14.918  0.0000E+00  0.8000E-01
    -14.836  0.0000E+00  0.8000E-01
    -14.754  0.0000E+00  0.8000E-01
    -14.672  0.0000E+00  0.8000E-01
    -14.591  0.0000E+00  0.8000E-01
    -14.509  0.0000E+00  0.8000E-01
    -14.427  0.0000E+00  0.8000E-01
    -14.345  0.0000E+00  0.8000E-01
    -14.264  0.0000E+00  0.8000E-01
    -14.182  0.2708E-03  0.8000E-01
    -14.100  0.1612E+00  0.8655E-01
    -14.018  0.2458E+00  0.1006E+00
    -13.936  0.2854E+00  0.1216E+00
    -13.855  0.1645E+00  0.1441E+00
    -13.773  0.1461E+00  0.1563E+00
    -13.691  0.0000E+00  0.1600E+00
    -13.609  0.0000E+00  0.1600E+00
    -13.528  0.0000E+00  0.1600E+00
    -13.446  0.0000E+00  0.1600E+00
    -13.364  0.0000E+00  0.1600E+00
    -13.282  0.0000E+00  0.1600E+00
    -13.200  0.0000E+00  0.1600E+00
    -13.119  0.0000E+00  0.1600E+00
    -13.037  0.0000E+00  0.1600E+00
    -12.955  0.0000E+00  0.1600E+00
    -12.873  0.0000E+00  0.1600E+00
    -12.792  0.0000E+00  0.1600E+00
    -12.710  0.0000E+00  0.1600E+00
    -12.628  0.0000E+00  0.1600E+00
    -12.546  0.0000E+00  0.1600E+00
    -12.465  0.0000E+00  0.1600E+00
    -12.383  0.0000E+00  0.1600E+00
    -12.301  0.0000E+00  0.1600E+00
    -12.219  0.0000E+00  0.1600E+00
    -12.137  0.0000E+00  0.1600E+00
    -12.056  0.0000E+00  0.1600E+00
    -11.974  0.0000E+00  0.1600E+00
    -11.892  0.0000E+00  0.1600E+00
    -11.810  0.0000E+00  0.1600E+00
    -11.729  0.0000E+00  0.1600E+00
    -11.647  0.0000E+00  0.1600E+00
    -11.565  0.0000E+00  0.1600E+00
    -11.483  0.0000E+00  0.1600E+00
    -11.402  0.0000E+00  0.1600E+00
    -11.320  0.0000E+00  0.1600E+00
    -11.238  0.0000E+00  0.1600E+00
    -11.156  0.0000E+00  0.1600E+00
    -11.074  0.0000E+00  0.1600E+00
    -10.993  0.0000E+00  0.1600E+00
    -10.911  0.0000E+00  0.1600E+00
    -10.829  0.0000E+00  0.1600E+00
    -10.747  0.0000E+00  0.1600E+00
    -10.666  0.0000E+00  0.1600E+00
    -10.584  0.0000E+00  0.1600E+00
    -10.502  0.0000E+00  0.1600E+00
    -10.420  0.0000E+00  0.1600E+00
    -10.338  0.0000E+00  0.1600E+00
    -10.257  0.0000E+00  0.1600E+00
    -10.175  0.0000E+00  0.1600E+00
    -10.093  0.0000E+00  0.1600E+00
    -10.011  0.0000E+00  0.1600E+00
     -9.930  0.0000E+00  0.1600E+00
     -9.848  0.0000E+00  0.1600E+00
     -9.766  0.0000E+00  0.1600E+00
     -9.684  0.0000E+00  0.1600E+00
     -9.603  0.0000E+00  0.1600E+00
     -9.521  0.0000E+00  0.1600E+00
     -9.439  0.0000E+00  0.1600E+00
     -9.357  0.0000E+00  0.1600E+00
     -9.275  0.0000E+00  0.1600E+00
     -9.194  0.0000E+00  0.1600E+00
     -9.112  0.0000E+00  0.1600E+00
     -9.030  0.0000E+00  0.1600E+00
     -8.948  0.0000E+00  0.1600E+00
     -8.867  0.0000E+00  0.1600E+00
     -8.785  0.0000E+00  0.1600E+00
     -8.703  0.0000E+00  0.1600E+00
     -8.621  0.0000E+00  0.1600E+00
     -8.539  0.0000E+00  0.1600E+00
     -8.458  0.0000E+00  0.1600E+00
     -8.376  0.0000E+00  0.1600E+00
     -8.294  0.0000E+00  0.1600E+00
     -8.212  0.8767E-02  0.1602E+00
     -8.131  0.2595E-01  0.1617E+00
     -8.049  0.8628E-01  0.1653E+00
     -7.967  0.2452E+00  0.1782E+00
     -7.885  0.1951E+00  0.2039E+00
     -7.804  0.2040E+00  0.2184E+00
     -7.722  0.1528E+00  0.2320E+00
     -7.640  0.1062E+00  0.2443E+00
     -7.558  0.7206E-01  0.2504E+00
     -7.476  0.1498E+00  0.2602E+00
     -7.395  0.1340E+00  0.2712E+00
     -7.313  0.1351E+00  0.2820E+00
     -7.231  0.1159E+00  0.2924E+00
     -7.149  0.9613E-01  0.3016E+00
     -7.068  0.7071E-01  0.3075E+00
     -6.986  0.9482E-01  0.3160E+00
     -6.904  0.1198E+00  0.3251E+00
     -6.822  0.1021E+00  0.3340E+00
     -6.740  0.1214E+00  0.3428E+00
     -6.659  0.6747E-01  0.3490E+00
     -6.577  0.8432E-01  0.3552E+00
     -6.495  0.1044E+00  0.3629E+00
     -6.413  0.1242E+00  0.3719E+00
     -6.332  0.1062E+00  0.3812E+00
     -6.250  0.1161E+00  0.3900E+00
     -6.168  0.2413E+00  0.4041E+00
     -6.086  0.2208E+00  0.4229E+00
     -6.005  0.2456E+00  0.4426E+00
     -5.923  0.1415E+00  0.4596E+00
     -5.841  0.1209E+00  0.4684E+00
     -5.759  0.1055E+00  0.4787E+00
     -5.677  0.1742E+00  0.4907E+00
     -5.596  0.2124E+00  0.5041E+00
     -5.514  0.1149E+00  0.5204E+00
     -5.432  0.1857E+00  0.5307E+00
     -5.350  0.1865E+00  0.5505E+00
     -5.269  0.8534E-01  0.5612E+00
     -5.187  0.1918E+00  0.5723E+00
     -5.105  0.2539E+00  0.5909E+00
     -5.023  0.2866E+00  0.6078E+00
     -4.941  0.2025E+00  0.6332E+00
     -4.860  0.7970E-03  0.6400E+00
     -4.778  0.6894E-06  0.6400E+00
     -4.696  0.4938E-04  0.6400E+00
     -4.614  0.1749E-03  0.6400E+00
     -4.533  0.3772E-03  0.6400E+00
     -4.451  0.6563E-03  0.6401E+00
     -4.369  0.1012E-02  0.6401E+00
     -4.287  0.1473E-02  0.6402E+00
     -4.206  0.2467E-02  0.6404E+00
     -4.124  0.3843E-02  0.6407E+00
     -4.042  0.5163E-02  0.6410E+00
     -3.960  0.6323E-02  0.6415E+00
     -3.878  0.7400E-02  0.6421E+00
     -3.797  0.8769E-02  0.6427E+00
     -3.715  0.1080E-01  0.6435E+00
     -3.633  0.1792E-01  0.6446E+00
     -3.551  0.2726E-01  0.6465E+00
     -3.470  0.2852E-01  0.6488E+00
     -3.388  0.3036E-01  0.6512E+00
     -3.306  0.3557E-01  0.6539E+00
     -3.224  0.5586E-01  0.6575E+00
     -3.142  0.5839E-01  0.6623E+00
     -3.061  0.7744E-01  0.6680E+00
     -2.979  0.6426E-01  0.6739E+00
     -2.897  0.5461E-01  0.6785E+00
     -2.815  0.3767E-01  0.6824E+00
     -2.734  0.5506E-01  0.6861E+00
     -2.652  0.8402E-01  0.6917E+00
     -2.570  0.1476E+00  0.7004E+00
     -2.488  0.8349E-01  0.7106E+00
     -2.407  0.6269E-01  0.7162E+00
     -2.325  0.4089E-01  0.7199E+00
     -2.243  0.1131E+00  0.7260E+00
     -2.161  0.1571E+00  0.7372E+00
     -2.079  0.1303E+00  0.7507E+00
     -1.998  0.7278E-01  0.7582E+00
     -1.916  0.6379E-01  0.7634E+00
     -1.834  0.8512E-01  0.7699E+00
     -1.752  0.1079E+00  0.7779E+00
     -1.671  0.1144E+00  0.7871E+00
     -1.589  0.7664E-01  0.7952E+00
     -1.507  0.4765E-01  0.8003E+00
     -1.425  0.4727E-01  0.8037E+00
     -1.343  0.7090E-01  0.8085E+00
     -1.262  0.6582E-01  0.8145E+00
     -1.180  0.7119E-01  0.8198E+00
     -1.098  0.1429E+00  0.8276E+00
     -1.016  0.5756E-01  0.8382E+00
     -0.935  0.1256E+00  0.8427E+00
     -0.853  0.2045E+00  0.8598E+00
     -0.771  0.1196E+00  0.8714E+00
     -0.689  0.2401E+00  0.8855E+00
     -0.608  0.2083E+00  0.9036E+00
     -0.526  0.1954E+00  0.9209E+00
     -0.444  0.2191E+00  0.9356E+00
     -0.362  0.1438E+00  0.9497E+00
     -0.280  0.2339E+00  0.9626E+00
     -0.199  0.3293E+00  0.9855E+00
     -0.117  0.2324E+00  0.1006E+01
     -0.035  0.2853E+00  0.1026E+01
      0.047  0.1045E+00  0.1040E+01
      0.128  0.1364E+00  0.1051E+01
      0.210  0.1767E+00  0.1065E+01
      0.292  0.2257E+00  0.1081E+01
      0.374  0.2244E+00  0.1101E+01
      0.456  0.1892E+00  0.1118E+01
      0.537  0.1731E+00  0.1131E+01
      0.619  0.2210E+00  0.1149E+01
      0.701  0.5391E-01  0.1161E+01
      0.783  0.1835E+00  0.1174E+01
      0.864  0.1904E+00  0.1189E+01
      0.946  0.1535E+00  0.1203E+01
      1.028  0.2121E+00  0.1221E+01
      1.110  0.1670E+00  0.1235E+01
      1.191  0.1220E+00  0.1247E+01
      1.273  0.1254E+00  0.1257E+01
      1.355  0.1281E+00  0.1267E+01
      1.437  0.1596E+00  0.1279E+01
      1.519  0.1437E+00  0.1292E+01
      1.600  0.1074E+00  0.1302E+01
      1.682  0.8996E-01  0.1310E+01
      1.764  0.6922E-01  0.1316E+01
      1.846  0.6627E-01  0.1322E+01
      1.927  0.8420E-01  0.1328E+01
      2.009  0.1044E+00  0.1336E+01
      2.091  0.9336E-01  0.1344E+01
      2.173  0.9254E-01  0.1351E+01
      2.255  0.6774E-01  0.1357E+01
      2.336  0.1173E+00  0.1365E+01
      2.418  0.1200E+00  0.1374E+01
      2.500  0.1303E+00  0.1384E+01
      2.582  0.1607E+00  0.1396E+01
      2.663  0.1504E+00  0.1408E+01
      2.745  0.1702E+00  0.1422E+01
      2.827  0.1887E+00  0.1436E+01
      2.909  0.2015E+00  0.1453E+01
      2.990  0.1915E+00  0.1469E+01
      3.072  0.1451E+00  0.1483E+01
      3.154  0.1657E+00  0.1497E+01
      3.236  0.1594E+00  0.1510E+01
      3.318  0.1051E+00  0.1522E+01
      3.399  0.1409E+00  0.1530E+01
      3.481  0.2086E+00  0.1544E+01
      3.563  0.1858E+00  0.1561E+01
      3.645  0.1270E+00  0.1573E+01
      3.726  0.2249E-01  0.1579E+01
      3.808  0.2020E-02  0.1580E+01
      3.890  0.0000E+00  0.1580E+01
      3.972  0.0000E+00  0.1580E+01
      4.054  0.0000E+00  0.1580E+01
      4.135  0.0000E+00  0.1580E+01
      4.217  0.0000E+00  0.1580E+01
      4.299  0.0000E+00  0.1580E+01
      4.381  0.0000E+00  0.1580E+01
      4.462  0.0000E+00  0.1580E+01
      4.544  0.0000E+00  0.1580E+01
      4.626  0.0000E+00  0.1580E+01
      4.708  0.0000E+00  0.1580E+01
      4.789  0.0000E+00  0.1580E+01
      4.871  0.0000E+00  0.1580E+01
      4.953  0.0000E+00  0.1580E+01
      5.035  0.0000E+00  0.1580E+01
      5.117  0.0000E+00  0.1580E+01
      5.198  0.0000E+00  0.1580E+01
      5.280  0.0000E+00  0.1580E+01
      5.362  0.0000E+00  0.1580E+01
      5.444  0.0000E+00  0.1580E+01
      5.525  0.0000E+00  0.1580E+01
      5.607  0.0000E+00  0.1580E+01
      5.689  0.0000E+00  0.1580E+01
      5.771  0.0000E+00  0.1580E+01
      5.853  0.0000E+00  0.1580E+01
