  80  80   0   0
  0.9808713E+01  0.1170790E-08  0.8189300E-09  0.8184200E-09  0.5000000E-15
  1.000000000000000E-004
  CAR 
 diamond                                 
      8.78917565    -16.76079291  301     -6.24272252      1.00000000
    -16.761  0.0000E+00  0.0000E+00
    -16.676  0.0000E+00  0.0000E+00
    -16.590  0.0000E+00  0.0000E+00
    -16.505  0.0000E+00  0.0000E+00
    -16.420  0.0000E+00  0.0000E+00
    -16.335  0.0000E+00  0.0000E+00
    -16.250  0.0000E+00  0.0000E+00
    -16.165  0.0000E+00  0.0000E+00
    -16.079  0.0000E+00  0.0000E+00
    -15.994  0.0000E+00  0.0000E+00
    -15.909  0.0000E+00  0.0000E+00
    -15.824  0.0000E+00  0.0000E+00
    -15.739  0.0000E+00  0.0000E+00
    -15.654  0.0000E+00  0.0000E+00
    -15.568  0.0000E+00  0.0000E+00
    -15.483  0.0000E+00  0.0000E+00
    -15.398  0.0000E+00  0.0000E+00
    -15.313  0.0000E+00  0.0000E+00
    -15.228  0.0000E+00  0.0000E+00
    -15.143  0.0000E+00  0.0000E+00
    -15.057  0.0000E+00  0.0000E+00
    -14.972  0.0000E+00  0.0000E+00
    -14.887  0.0000E+00  0.0000E+00
    -14.802  0.0000E+00  0.0000E+00
    -14.717  0.4315E-01  0.7519E-03
    -14.632  0.1045E+00  0.6584E-02
    -14.546  0.1167E+00  0.1866E-01
    -14.461  0.1520E+00  0.3756E-01
    -14.376  0.5136E+00  0.6961E-01
    -14.291  0.7813E+00  0.1126E+00
    -14.206  0.4927E-01  0.1599E+00
    -14.121  0.0000E+00  0.1600E+00
    -14.035  0.0000E+00  0.1600E+00
    -13.950  0.0000E+00  0.1600E+00
    -13.865  0.0000E+00  0.1600E+00
    -13.780  0.0000E+00  0.1600E+00
    -13.695  0.0000E+00  0.1600E+00
    -13.610  0.0000E+00  0.1600E+00
    -13.524  0.0000E+00  0.1600E+00
    -13.439  0.0000E+00  0.1600E+00
    -13.354  0.0000E+00  0.1600E+00
    -13.269  0.0000E+00  0.1600E+00
    -13.184  0.0000E+00  0.1600E+00
    -13.099  0.0000E+00  0.1600E+00
    -13.013  0.0000E+00  0.1600E+00
    -12.928  0.0000E+00  0.1600E+00
    -12.843  0.0000E+00  0.1600E+00
    -12.758  0.0000E+00  0.1600E+00
    -12.673  0.0000E+00  0.1600E+00
    -12.588  0.0000E+00  0.1600E+00
    -12.502  0.0000E+00  0.1600E+00
    -12.417  0.0000E+00  0.1600E+00
    -12.332  0.0000E+00  0.1600E+00
    -12.247  0.0000E+00  0.1600E+00
    -12.162  0.0000E+00  0.1600E+00
    -12.077  0.0000E+00  0.1600E+00
    -11.991  0.0000E+00  0.1600E+00
    -11.906  0.0000E+00  0.1600E+00
    -11.821  0.0000E+00  0.1600E+00
    -11.736  0.0000E+00  0.1600E+00
    -11.651  0.0000E+00  0.1600E+00
    -11.566  0.0000E+00  0.1600E+00
    -11.480  0.0000E+00  0.1600E+00
    -11.395  0.0000E+00  0.1600E+00
    -11.310  0.0000E+00  0.1600E+00
    -11.225  0.0000E+00  0.1600E+00
    -11.140  0.0000E+00  0.1600E+00
    -11.055  0.0000E+00  0.1600E+00
    -10.969  0.0000E+00  0.1600E+00
    -10.884  0.0000E+00  0.1600E+00
    -10.799  0.0000E+00  0.1600E+00
    -10.714  0.0000E+00  0.1600E+00
    -10.629  0.0000E+00  0.1600E+00
    -10.544  0.0000E+00  0.1600E+00
    -10.458  0.0000E+00  0.1600E+00
    -10.373  0.0000E+00  0.1600E+00
    -10.288  0.0000E+00  0.1600E+00
    -10.203  0.0000E+00  0.1600E+00
    -10.118  0.0000E+00  0.1600E+00
    -10.033  0.0000E+00  0.1600E+00
     -9.947  0.0000E+00  0.1600E+00
     -9.862  0.0000E+00  0.1600E+00
     -9.777  0.0000E+00  0.1600E+00
     -9.692  0.0000E+00  0.1600E+00
     -9.607  0.0000E+00  0.1600E+00
     -9.522  0.0000E+00  0.1600E+00
     -9.436  0.0000E+00  0.1600E+00
     -9.351  0.0000E+00  0.1600E+00
     -9.266  0.0000E+00  0.1600E+00
     -9.181  0.0000E+00  0.1600E+00
     -9.096  0.0000E+00  0.1600E+00
     -9.011  0.0000E+00  0.1600E+00
     -8.925  0.0000E+00  0.1600E+00
     -8.840  0.0000E+00  0.1600E+00
     -8.755  0.0000E+00  0.1600E+00
     -8.670  0.0000E+00  0.1600E+00
     -8.585  0.0000E+00  0.1600E+00
     -8.500  0.0000E+00  0.1600E+00
     -8.414  0.0000E+00  0.1600E+00
     -8.329  0.0000E+00  0.1600E+00
     -8.244  0.0000E+00  0.1600E+00
     -8.159  0.0000E+00  0.1600E+00
     -8.074  0.0000E+00  0.1600E+00
     -7.989  0.0000E+00  0.1600E+00
     -7.903  0.0000E+00  0.1600E+00
     -7.818  0.0000E+00  0.1600E+00
     -7.733  0.0000E+00  0.1600E+00
     -7.648  0.0000E+00  0.1600E+00
     -7.563  0.0000E+00  0.1600E+00
     -7.478  0.1485E+00  0.1658E+00
     -7.392  0.2415E+00  0.1825E+00
     -7.307  0.3248E+00  0.2085E+00
     -7.222  0.2910E+00  0.2361E+00
     -7.137  0.3734E+00  0.2646E+00
     -7.052  0.3253E+00  0.2875E+00
     -6.967  0.1499E+00  0.3085E+00
     -6.881  0.2568E+00  0.3266E+00
     -6.796  0.3653E+00  0.3545E+00
     -6.711  0.3455E+00  0.3871E+00
     -6.626  0.8286E+00  0.4285E+00
     -6.541  0.4337E+00  0.4737E+00
     -6.456  0.8659E+00  0.5403E+00
     -6.370  0.4516E+00  0.6046E+00
     -6.285  0.1295E+00  0.6388E+00
     -6.200  0.0000E+00  0.6400E+00
     -6.115  0.0000E+00  0.6400E+00
     -6.030  0.0000E+00  0.6400E+00
     -5.945  0.0000E+00  0.6400E+00
     -5.859  0.0000E+00  0.6400E+00
     -5.774  0.0000E+00  0.6400E+00
     -5.689  0.0000E+00  0.6400E+00
     -5.604  0.0000E+00  0.6400E+00
     -5.519  0.0000E+00  0.6400E+00
     -5.434  0.0000E+00  0.6400E+00
     -5.348  0.0000E+00  0.6400E+00
     -5.263  0.0000E+00  0.6400E+00
     -5.178  0.0000E+00  0.6400E+00
     -5.093  0.0000E+00  0.6400E+00
     -5.008  0.0000E+00  0.6400E+00
     -4.923  0.0000E+00  0.6400E+00
     -4.837  0.0000E+00  0.6400E+00
     -4.752  0.0000E+00  0.6400E+00
     -4.667  0.0000E+00  0.6400E+00
     -4.582  0.0000E+00  0.6400E+00
     -4.497  0.0000E+00  0.6400E+00
     -4.412  0.0000E+00  0.6400E+00
     -4.326  0.0000E+00  0.6400E+00
     -4.241  0.0000E+00  0.6400E+00
     -4.156  0.0000E+00  0.6400E+00
     -4.071  0.0000E+00  0.6400E+00
     -3.986  0.0000E+00  0.6400E+00
     -3.901  0.0000E+00  0.6400E+00
     -3.815  0.0000E+00  0.6400E+00
     -3.730  0.0000E+00  0.6400E+00
     -3.645  0.0000E+00  0.6400E+00
     -3.560  0.0000E+00  0.6400E+00
     -3.475  0.0000E+00  0.6400E+00
     -3.390  0.0000E+00  0.6400E+00
     -3.304  0.0000E+00  0.6400E+00
     -3.219  0.0000E+00  0.6400E+00
     -3.134  0.0000E+00  0.6400E+00
     -3.049  0.0000E+00  0.6400E+00
     -2.964  0.0000E+00  0.6400E+00
     -2.879  0.0000E+00  0.6400E+00
     -2.793  0.0000E+00  0.6400E+00
     -2.708  0.0000E+00  0.6400E+00
     -2.623  0.0000E+00  0.6400E+00
     -2.538  0.0000E+00  0.6400E+00
     -2.453  0.0000E+00  0.6400E+00
     -2.368  0.0000E+00  0.6400E+00
     -2.282  0.0000E+00  0.6400E+00
     -2.197  0.0000E+00  0.6400E+00
     -2.112  0.0000E+00  0.6400E+00
     -2.027  0.0000E+00  0.6400E+00
     -1.942  0.0000E+00  0.6400E+00
     -1.857  0.0000E+00  0.6400E+00
     -1.771  0.0000E+00  0.6400E+00
     -1.686  0.0000E+00  0.6400E+00
     -1.601  0.0000E+00  0.6400E+00
     -1.516  0.0000E+00  0.6400E+00
     -1.431  0.0000E+00  0.6400E+00
     -1.346  0.0000E+00  0.6400E+00
     -1.260  0.0000E+00  0.6400E+00
     -1.175  0.0000E+00  0.6400E+00
     -1.090  0.0000E+00  0.6400E+00
     -1.005  0.0000E+00  0.6400E+00
     -0.920  0.0000E+00  0.6400E+00
     -0.835  0.0000E+00  0.6400E+00
     -0.749  0.0000E+00  0.6400E+00
     -0.664  0.0000E+00  0.6400E+00
     -0.579  0.0000E+00  0.6400E+00
     -0.494  0.0000E+00  0.6400E+00
     -0.409  0.0000E+00  0.6400E+00
     -0.324  0.0000E+00  0.6400E+00
     -0.238  0.0000E+00  0.6400E+00
     -0.153  0.0000E+00  0.6400E+00
     -0.068  0.0000E+00  0.6400E+00
      0.017  0.0000E+00  0.6400E+00
      0.102  0.0000E+00  0.6400E+00
      0.187  0.0000E+00  0.6400E+00
      0.273  0.0000E+00  0.6400E+00
      0.358  0.0000E+00  0.6400E+00
      0.443  0.0000E+00  0.6400E+00
      0.528  0.0000E+00  0.6400E+00
      0.613  0.0000E+00  0.6400E+00
      0.698  0.0000E+00  0.6400E+00
      0.784  0.0000E+00  0.6400E+00
      0.869  0.0000E+00  0.6400E+00
      0.954  0.0000E+00  0.6400E+00
      1.039  0.0000E+00  0.6400E+00
      1.124  0.0000E+00  0.6400E+00
      1.209  0.0000E+00  0.6400E+00
      1.295  0.0000E+00  0.6400E+00
      1.380  0.5793E-04  0.6400E+00
      1.465  0.1518E-02  0.6401E+00
      1.550  0.4354E-02  0.6403E+00
      1.635  0.7344E-02  0.6408E+00
      1.720  0.8743E-02  0.6415E+00
      1.806  0.9881E-02  0.6423E+00
      1.891  0.1136E-01  0.6432E+00
      1.976  0.1286E-01  0.6442E+00
      2.061  0.1506E-01  0.6454E+00
      2.146  0.1824E-01  0.6468E+00
      2.231  0.2298E-01  0.6486E+00
      2.317  0.2727E-01  0.6507E+00
      2.402  0.3012E-01  0.6532E+00
      2.487  0.2388E-01  0.6555E+00
      2.572  0.1890E-01  0.6573E+00
      2.657  0.2026E-01  0.6590E+00
      2.742  0.2260E-01  0.6608E+00
      2.828  0.3485E-01  0.6631E+00
      2.913  0.5864E-01  0.6670E+00
      2.998  0.7125E-01  0.6728E+00
      3.083  0.4856E-01  0.6782E+00
      3.168  0.3981E-01  0.6814E+00
      3.253  0.1503E+00  0.6885E+00
      3.339  0.1266E+00  0.6979E+00
      3.424  0.9974E-01  0.7064E+00
      3.509  0.8744E-01  0.7169E+00
      3.594  0.3824E-01  0.7207E+00
      3.679  0.1200E+00  0.7271E+00
      3.764  0.8499E-01  0.7355E+00
      3.850  0.9016E-01  0.7427E+00
      3.935  0.1056E+00  0.7514E+00
      4.020  0.7598E-01  0.7592E+00
      4.105  0.7100E-01  0.7652E+00
      4.190  0.1144E+00  0.7721E+00
      4.275  0.3053E+00  0.7881E+00
      4.361  0.1141E+00  0.8066E+00
      4.446  0.1142E+00  0.8162E+00
      4.531  0.1265E+00  0.8265E+00
      4.616  0.7348E-01  0.8345E+00
      4.701  0.1796E+00  0.8430E+00
      4.786  0.1207E+00  0.8564E+00
      4.872  0.1283E+00  0.8668E+00
      4.957  0.9658E-01  0.8763E+00
      5.042  0.1657E+00  0.8864E+00
      5.127  0.1820E+00  0.9012E+00
      5.212  0.1501E+00  0.9145E+00
      5.297  0.1654E+00  0.9270E+00
      5.383  0.1204E+00  0.9389E+00
      5.468  0.1231E+00  0.9485E+00
      5.553  0.6161E-01  0.9586E+00
      5.638  0.1341E+00  0.9656E+00
      5.723  0.1179E+00  0.9771E+00
      5.808  0.6552E-01  0.9850E+00
      5.894  0.1435E+00  0.9938E+00
      5.979  0.1222E+00  0.1005E+01
      6.064  0.1432E+00  0.1017E+01
      6.149  0.9732E-01  0.1028E+01
      6.234  0.7798E-01  0.1035E+01
      6.319  0.1537E+00  0.1043E+01
      6.405  0.9881E-01  0.1054E+01
      6.490  0.2231E-01  0.1059E+01
      6.575  0.2468E-02  0.1060E+01
      6.660  0.8964E-03  0.1060E+01
      6.745  0.1040E-03  0.1060E+01
      6.830  0.0000E+00  0.1060E+01
      6.916  0.0000E+00  0.1060E+01
      7.001  0.0000E+00  0.1060E+01
      7.086  0.0000E+00  0.1060E+01
      7.171  0.0000E+00  0.1060E+01
      7.256  0.0000E+00  0.1060E+01
      7.341  0.0000E+00  0.1060E+01
      7.427  0.0000E+00  0.1060E+01
      7.512  0.0000E+00  0.1060E+01
      7.597  0.0000E+00  0.1060E+01
      7.682  0.0000E+00  0.1060E+01
      7.767  0.0000E+00  0.1060E+01
      7.852  0.0000E+00  0.1060E+01
      7.938  0.0000E+00  0.1060E+01
      8.023  0.0000E+00  0.1060E+01
      8.108  0.0000E+00  0.1060E+01
      8.193  0.0000E+00  0.1060E+01
      8.278  0.0000E+00  0.1060E+01
      8.363  0.0000E+00  0.1060E+01
      8.449  0.0000E+00  0.1060E+01
      8.534  0.0000E+00  0.1060E+01
      8.619  0.0000E+00  0.1060E+01
      8.704  0.0000E+00  0.1060E+01
      8.789  0.0000E+00  0.1060E+01
