  80  80   0   0
  0.9808713E+01  0.1170790E-08  0.8189300E-09  0.8184200E-09  0.5000000E-15
  1.000000000000000E-004
  CAR 
 diamond                                 
      8.77188423    -16.77427562  301     -6.10875388      1.00000000
    -16.774  0.0000E+00  0.0000E+00
    -16.689  0.0000E+00  0.0000E+00
    -16.604  0.0000E+00  0.0000E+00
    -16.519  0.0000E+00  0.0000E+00
    -16.434  0.0000E+00  0.0000E+00
    -16.349  0.0000E+00  0.0000E+00
    -16.263  0.0000E+00  0.0000E+00
    -16.178  0.0000E+00  0.0000E+00
    -16.093  0.0000E+00  0.0000E+00
    -16.008  0.0000E+00  0.0000E+00
    -15.923  0.0000E+00  0.0000E+00
    -15.838  0.0000E+00  0.0000E+00
    -15.752  0.0000E+00  0.0000E+00
    -15.667  0.0000E+00  0.0000E+00
    -15.582  0.0000E+00  0.0000E+00
    -15.497  0.0000E+00  0.0000E+00
    -15.412  0.0000E+00  0.0000E+00
    -15.327  0.0000E+00  0.0000E+00
    -15.242  0.0000E+00  0.0000E+00
    -15.156  0.0000E+00  0.0000E+00
    -15.071  0.0000E+00  0.0000E+00
    -14.986  0.0000E+00  0.0000E+00
    -14.901  0.0000E+00  0.0000E+00
    -14.816  0.0000E+00  0.0000E+00
    -14.731  0.4287E-01  0.7465E-03
    -14.645  0.1029E+00  0.6511E-02
    -14.560  0.1311E+00  0.1890E-01
    -14.475  0.1706E+00  0.3693E-01
    -14.390  0.3853E+00  0.6203E-01
    -14.305  0.4580E+00  0.9592E-01
    -14.220  0.3846E+00  0.1304E+00
    -14.135  0.1487E+00  0.1569E+00
    -14.049  0.0000E+00  0.1600E+00
    -13.964  0.0000E+00  0.1600E+00
    -13.879  0.0000E+00  0.1600E+00
    -13.794  0.0000E+00  0.1600E+00
    -13.709  0.0000E+00  0.1600E+00
    -13.624  0.0000E+00  0.1600E+00
    -13.538  0.0000E+00  0.1600E+00
    -13.453  0.0000E+00  0.1600E+00
    -13.368  0.0000E+00  0.1600E+00
    -13.283  0.0000E+00  0.1600E+00
    -13.198  0.0000E+00  0.1600E+00
    -13.113  0.0000E+00  0.1600E+00
    -13.028  0.0000E+00  0.1600E+00
    -12.942  0.0000E+00  0.1600E+00
    -12.857  0.0000E+00  0.1600E+00
    -12.772  0.0000E+00  0.1600E+00
    -12.687  0.0000E+00  0.1600E+00
    -12.602  0.0000E+00  0.1600E+00
    -12.517  0.0000E+00  0.1600E+00
    -12.431  0.0000E+00  0.1600E+00
    -12.346  0.0000E+00  0.1600E+00
    -12.261  0.0000E+00  0.1600E+00
    -12.176  0.0000E+00  0.1600E+00
    -12.091  0.0000E+00  0.1600E+00
    -12.006  0.0000E+00  0.1600E+00
    -11.921  0.0000E+00  0.1600E+00
    -11.835  0.0000E+00  0.1600E+00
    -11.750  0.0000E+00  0.1600E+00
    -11.665  0.0000E+00  0.1600E+00
    -11.580  0.0000E+00  0.1600E+00
    -11.495  0.0000E+00  0.1600E+00
    -11.410  0.0000E+00  0.1600E+00
    -11.324  0.0000E+00  0.1600E+00
    -11.239  0.0000E+00  0.1600E+00
    -11.154  0.0000E+00  0.1600E+00
    -11.069  0.0000E+00  0.1600E+00
    -10.984  0.0000E+00  0.1600E+00
    -10.899  0.0000E+00  0.1600E+00
    -10.814  0.0000E+00  0.1600E+00
    -10.728  0.0000E+00  0.1600E+00
    -10.643  0.0000E+00  0.1600E+00
    -10.558  0.0000E+00  0.1600E+00
    -10.473  0.0000E+00  0.1600E+00
    -10.388  0.0000E+00  0.1600E+00
    -10.303  0.0000E+00  0.1600E+00
    -10.217  0.0000E+00  0.1600E+00
    -10.132  0.0000E+00  0.1600E+00
    -10.047  0.0000E+00  0.1600E+00
     -9.962  0.0000E+00  0.1600E+00
     -9.877  0.0000E+00  0.1600E+00
     -9.792  0.0000E+00  0.1600E+00
     -9.707  0.0000E+00  0.1600E+00
     -9.621  0.0000E+00  0.1600E+00
     -9.536  0.0000E+00  0.1600E+00
     -9.451  0.0000E+00  0.1600E+00
     -9.366  0.0000E+00  0.1600E+00
     -9.281  0.0000E+00  0.1600E+00
     -9.196  0.0000E+00  0.1600E+00
     -9.110  0.0000E+00  0.1600E+00
     -9.025  0.0000E+00  0.1600E+00
     -8.940  0.0000E+00  0.1600E+00
     -8.855  0.0000E+00  0.1600E+00
     -8.770  0.0000E+00  0.1600E+00
     -8.685  0.0000E+00  0.1600E+00
     -8.600  0.0000E+00  0.1600E+00
     -8.514  0.0000E+00  0.1600E+00
     -8.429  0.0000E+00  0.1600E+00
     -8.344  0.0000E+00  0.1600E+00
     -8.259  0.0000E+00  0.1600E+00
     -8.174  0.0000E+00  0.1600E+00
     -8.089  0.0000E+00  0.1600E+00
     -8.003  0.0000E+00  0.1600E+00
     -7.918  0.0000E+00  0.1600E+00
     -7.833  0.0000E+00  0.1600E+00
     -7.748  0.0000E+00  0.1600E+00
     -7.663  0.0000E+00  0.1600E+00
     -7.578  0.0000E+00  0.1600E+00
     -7.493  0.8004E-01  0.1622E+00
     -7.407  0.2505E+00  0.1765E+00
     -7.322  0.3185E+00  0.2015E+00
     -7.237  0.2723E+00  0.2247E+00
     -7.152  0.2721E+00  0.2505E+00
     -7.067  0.2222E+00  0.2807E+00
     -6.982  0.3176E+00  0.3019E+00
     -6.896  0.4273E+00  0.3273E+00
     -6.811  0.3032E+00  0.3530E+00
     -6.726  0.4503E+00  0.3919E+00
     -6.641  0.2987E+00  0.4220E+00
     -6.556  0.5475E+00  0.4593E+00
     -6.471  0.5597E+00  0.5058E+00
     -6.386  0.6762E+00  0.5596E+00
     -6.300  0.3008E+00  0.6038E+00
     -6.215  0.1468E+00  0.6363E+00
     -6.130  0.0000E+00  0.6400E+00
     -6.045  0.0000E+00  0.6400E+00
     -5.960  0.0000E+00  0.6400E+00
     -5.875  0.0000E+00  0.6400E+00
     -5.789  0.0000E+00  0.6400E+00
     -5.704  0.0000E+00  0.6400E+00
     -5.619  0.0000E+00  0.6400E+00
     -5.534  0.0000E+00  0.6400E+00
     -5.449  0.0000E+00  0.6400E+00
     -5.364  0.0000E+00  0.6400E+00
     -5.279  0.0000E+00  0.6400E+00
     -5.193  0.0000E+00  0.6400E+00
     -5.108  0.0000E+00  0.6400E+00
     -5.023  0.0000E+00  0.6400E+00
     -4.938  0.0000E+00  0.6400E+00
     -4.853  0.0000E+00  0.6400E+00
     -4.768  0.0000E+00  0.6400E+00
     -4.682  0.0000E+00  0.6400E+00
     -4.597  0.0000E+00  0.6400E+00
     -4.512  0.0000E+00  0.6400E+00
     -4.427  0.0000E+00  0.6400E+00
     -4.342  0.0000E+00  0.6400E+00
     -4.257  0.0000E+00  0.6400E+00
     -4.172  0.0000E+00  0.6400E+00
     -4.086  0.0000E+00  0.6400E+00
     -4.001  0.0000E+00  0.6400E+00
     -3.916  0.0000E+00  0.6400E+00
     -3.831  0.0000E+00  0.6400E+00
     -3.746  0.0000E+00  0.6400E+00
     -3.661  0.0000E+00  0.6400E+00
     -3.575  0.0000E+00  0.6400E+00
     -3.490  0.0000E+00  0.6400E+00
     -3.405  0.0000E+00  0.6400E+00
     -3.320  0.0000E+00  0.6400E+00
     -3.235  0.0000E+00  0.6400E+00
     -3.150  0.0000E+00  0.6400E+00
     -3.065  0.0000E+00  0.6400E+00
     -2.979  0.0000E+00  0.6400E+00
     -2.894  0.0000E+00  0.6400E+00
     -2.809  0.0000E+00  0.6400E+00
     -2.724  0.0000E+00  0.6400E+00
     -2.639  0.0000E+00  0.6400E+00
     -2.554  0.0000E+00  0.6400E+00
     -2.468  0.0000E+00  0.6400E+00
     -2.383  0.0000E+00  0.6400E+00
     -2.298  0.0000E+00  0.6400E+00
     -2.213  0.0000E+00  0.6400E+00
     -2.128  0.0000E+00  0.6400E+00
     -2.043  0.0000E+00  0.6400E+00
     -1.958  0.0000E+00  0.6400E+00
     -1.872  0.0000E+00  0.6400E+00
     -1.787  0.0000E+00  0.6400E+00
     -1.702  0.0000E+00  0.6400E+00
     -1.617  0.0000E+00  0.6400E+00
     -1.532  0.0000E+00  0.6400E+00
     -1.447  0.0000E+00  0.6400E+00
     -1.361  0.0000E+00  0.6400E+00
     -1.276  0.0000E+00  0.6400E+00
     -1.191  0.0000E+00  0.6400E+00
     -1.106  0.0000E+00  0.6400E+00
     -1.021  0.0000E+00  0.6400E+00
     -0.936  0.0000E+00  0.6400E+00
     -0.851  0.0000E+00  0.6400E+00
     -0.765  0.0000E+00  0.6400E+00
     -0.680  0.0000E+00  0.6400E+00
     -0.595  0.0000E+00  0.6400E+00
     -0.510  0.0000E+00  0.6400E+00
     -0.425  0.0000E+00  0.6400E+00
     -0.340  0.0000E+00  0.6400E+00
     -0.254  0.0000E+00  0.6400E+00
     -0.169  0.0000E+00  0.6400E+00
     -0.084  0.0000E+00  0.6400E+00
      0.001  0.0000E+00  0.6400E+00
      0.086  0.0000E+00  0.6400E+00
      0.171  0.0000E+00  0.6400E+00
      0.256  0.0000E+00  0.6400E+00
      0.342  0.0000E+00  0.6400E+00
      0.427  0.0000E+00  0.6400E+00
      0.512  0.0000E+00  0.6400E+00
      0.597  0.0000E+00  0.6400E+00
      0.682  0.0000E+00  0.6400E+00
      0.767  0.0000E+00  0.6400E+00
      0.853  0.0000E+00  0.6400E+00
      0.938  0.0000E+00  0.6400E+00
      1.023  0.0000E+00  0.6400E+00
      1.108  0.0000E+00  0.6400E+00
      1.193  0.0000E+00  0.6400E+00
      1.278  0.0000E+00  0.6400E+00
      1.363  0.1562E-03  0.6400E+00
      1.449  0.1934E-02  0.6401E+00
      1.534  0.4886E-02  0.6404E+00
      1.619  0.7693E-02  0.6409E+00
      1.704  0.9077E-02  0.6416E+00
      1.789  0.1022E-01  0.6424E+00
      1.874  0.1167E-01  0.6434E+00
      1.960  0.1325E-01  0.6444E+00
      2.045  0.1565E-01  0.6457E+00
      2.130  0.1905E-01  0.6471E+00
      2.215  0.2370E-01  0.6489E+00
      2.300  0.2849E-01  0.6512E+00
      2.385  0.3008E-01  0.6537E+00
      2.470  0.2279E-01  0.6560E+00
      2.556  0.1910E-01  0.6577E+00
      2.641  0.2016E-01  0.6594E+00
      2.726  0.2258E-01  0.6612E+00
      2.811  0.3704E-01  0.6636E+00
      2.896  0.5787E-01  0.6677E+00
      2.981  0.6002E-01  0.6728E+00
      3.067  0.5013E-01  0.6775E+00
      3.152  0.2237E-01  0.6808E+00
      3.237  0.1473E+00  0.6859E+00
      3.322  0.1390E+00  0.6991E+00
      3.407  0.1470E+00  0.7100E+00
      3.492  0.5401E-01  0.7187E+00
      3.577  0.7072E-01  0.7238E+00
      3.663  0.1059E+00  0.7314E+00
      3.748  0.9511E-01  0.7397E+00
      3.833  0.1468E+00  0.7503E+00
      3.918  0.9163E-01  0.7590E+00
      4.003  0.8126E-01  0.7668E+00
      4.088  0.8359E-01  0.7737E+00
      4.174  0.1081E+00  0.7816E+00
      4.259  0.1744E+00  0.7935E+00
      4.344  0.6896E-01  0.8045E+00
      4.429  0.1115E+00  0.8117E+00
      4.514  0.7137E-01  0.8193E+00
      4.599  0.8915E-01  0.8259E+00
      4.684  0.1586E+00  0.8360E+00
      4.770  0.1473E+00  0.8496E+00
      4.855  0.1185E+00  0.8607E+00
      4.940  0.1269E+00  0.8708E+00
      5.025  0.1137E+00  0.8814E+00
      5.110  0.1387E+00  0.8916E+00
      5.195  0.1115E+00  0.9034E+00
      5.281  0.1336E+00  0.9135E+00
      5.366  0.1122E+00  0.9228E+00
      5.451  0.1411E+00  0.9355E+00
      5.536  0.1257E+00  0.9473E+00
      5.621  0.7680E-01  0.9559E+00
      5.706  0.5285E-01  0.9606E+00
      5.791  0.1182E+00  0.9686E+00
      5.877  0.1008E+00  0.9783E+00
      5.962  0.7285E-01  0.9856E+00
      6.047  0.1119E+00  0.9930E+00
      6.132  0.1351E+00  0.1004E+01
      6.217  0.1332E+00  0.1015E+01
      6.302  0.1250E+00  0.1026E+01
      6.388  0.1001E+00  0.1035E+01
      6.473  0.1098E+00  0.1045E+01
      6.558  0.8176E-01  0.1054E+01
      6.643  0.3966E-01  0.1059E+01
      6.728  0.4201E-03  0.1060E+01
      6.813  0.0000E+00  0.1060E+01
      6.898  0.0000E+00  0.1060E+01
      6.984  0.0000E+00  0.1060E+01
      7.069  0.0000E+00  0.1060E+01
      7.154  0.0000E+00  0.1060E+01
      7.239  0.0000E+00  0.1060E+01
      7.324  0.0000E+00  0.1060E+01
      7.409  0.0000E+00  0.1060E+01
      7.495  0.0000E+00  0.1060E+01
      7.580  0.0000E+00  0.1060E+01
      7.665  0.0000E+00  0.1060E+01
      7.750  0.0000E+00  0.1060E+01
      7.835  0.0000E+00  0.1060E+01
      7.920  0.0000E+00  0.1060E+01
      8.005  0.0000E+00  0.1060E+01
      8.091  0.0000E+00  0.1060E+01
      8.176  0.0000E+00  0.1060E+01
      8.261  0.0000E+00  0.1060E+01
      8.346  0.0000E+00  0.1060E+01
      8.431  0.0000E+00  0.1060E+01
      8.516  0.0000E+00  0.1060E+01
      8.602  0.0000E+00  0.1060E+01
      8.687  0.0000E+00  0.1060E+01
      8.772  0.0000E+00  0.1060E+01
