   2   2   0   0
  0.6331625E+01  0.2616295E-09  0.2616295E-09  0.2616295E-09  0.5000000E-15
  1.000000000000000E-004
  CAR 
 graphite                                
     25.41568055    -13.82854684  301      8.28312253      1.00000000
    -13.829  0.0000E+00  0.0000E+00
    -13.698  0.0000E+00  0.0000E+00
    -13.567  0.0000E+00  0.0000E+00
    -13.436  0.0000E+00  0.0000E+00
    -13.305  0.0000E+00  0.0000E+00
    -13.174  0.0000E+00  0.0000E+00
    -13.044  0.0000E+00  0.0000E+00
    -12.913  0.0000E+00  0.0000E+00
    -12.782  0.0000E+00  0.0000E+00
    -12.651  0.0000E+00  0.0000E+00
    -12.520  0.0000E+00  0.0000E+00
    -12.390  0.0000E+00  0.0000E+00
    -12.259  0.0000E+00  0.0000E+00
    -12.128  0.0000E+00  0.0000E+00
    -11.997  0.0000E+00  0.0000E+00
    -11.866  0.0000E+00  0.0000E+00
    -11.736  0.4948E-04  0.1534E-05
    -11.605  0.2423E-03  0.2058E-04
    -11.474  0.3382E-03  0.5919E-04
    -11.343  0.3951E-03  0.1066E-03
    -11.212  0.4641E-03  0.1629E-03
    -11.081  0.5127E-03  0.2272E-03
    -10.951  0.5599E-03  0.2972E-03
    -10.820  0.6146E-03  0.3740E-03
    -10.689  0.6679E-03  0.4581E-03
    -10.558  0.7061E-03  0.5479E-03
    -10.427  0.7442E-03  0.6428E-03
    -10.297  0.7744E-03  0.7422E-03
    -10.166  0.8084E-03  0.8457E-03
    -10.035  0.8462E-03  0.9539E-03
     -9.904  0.8837E-03  0.1067E-02
     -9.773  0.9178E-03  0.1185E-02
     -9.642  0.9527E-03  0.1307E-02
     -9.512  0.9910E-03  0.1434E-02
     -9.381  0.1029E-02  0.1566E-02
     -9.250  0.1057E-02  0.1703E-02
     -9.119  0.1087E-02  0.1843E-02
     -8.988  0.1117E-02  0.1987E-02
     -8.858  0.1148E-02  0.2135E-02
     -8.727  0.1179E-02  0.2288E-02
     -8.596  0.1211E-02  0.2444E-02
     -8.465  0.1245E-02  0.2604E-02
     -8.334  0.1281E-02  0.2770E-02
     -8.204  0.1318E-02  0.2940E-02
     -8.073  0.1357E-02  0.3115E-02
     -7.942  0.1395E-02  0.3294E-02
     -7.811  0.1436E-02  0.3480E-02
     -7.680  0.1481E-02  0.3670E-02
     -7.549  0.1528E-02  0.3867E-02
     -7.419  0.1584E-02  0.4071E-02
     -7.288  0.1648E-02  0.4282E-02
     -7.157  0.1725E-02  0.4502E-02
     -7.026  0.1841E-02  0.4735E-02
     -6.895  0.1986E-02  0.4985E-02
     -6.765  0.2153E-02  0.5255E-02
     -6.634  0.2254E-02  0.5555E-02
     -6.503  0.2092E-02  0.5837E-02
     -6.372  0.2045E-02  0.6107E-02
     -6.241  0.2017E-02  0.6372E-02
     -6.111  0.2000E-02  0.6636E-02
     -5.980  0.1925E-02  0.6893E-02
     -5.849  0.1847E-02  0.7140E-02
     -5.718  0.1810E-02  0.7378E-02
     -5.587  0.1794E-02  0.7615E-02
     -5.456  0.1713E-02  0.7844E-02
     -5.326  0.1629E-02  0.8063E-02
     -5.195  0.1578E-02  0.8272E-02
     -5.064  0.1554E-02  0.8477E-02
     -4.933  0.1555E-02  0.8680E-02
     -4.802  0.1559E-02  0.8884E-02
     -4.672  0.1539E-02  0.9087E-02
     -4.541  0.1514E-02  0.9287E-02
     -4.410  0.1383E-02  0.9477E-02
     -4.279  0.1192E-02  0.9646E-02
     -4.148  0.9880E-03  0.9787E-02
     -4.017  0.5088E-03  0.9888E-02
     -3.887  0.3004E-03  0.9937E-02
     -3.756  0.2684E-03  0.9973E-02
     -3.625  0.3711E-03  0.1001E-01
     -3.494  0.5279E-03  0.1007E-01
     -3.363  0.7378E-03  0.1015E-01
     -3.233  0.9888E-03  0.1027E-01
     -3.102  0.1207E-02  0.1041E-01
     -2.971  0.1640E-02  0.1059E-01
     -2.840  0.2445E-02  0.1086E-01
     -2.709  0.3068E-02  0.1122E-01
     -2.579  0.3804E-02  0.1167E-01
     -2.448  0.4354E-02  0.1220E-01
     -2.317  0.3903E-02  0.1275E-01
     -2.186  0.3217E-02  0.1322E-01
     -2.055  0.2727E-02  0.1360E-01
     -1.924  0.2432E-02  0.1394E-01
     -1.794  0.2180E-02  0.1424E-01
     -1.663  0.1998E-02  0.1451E-01
     -1.532  0.1853E-02  0.1476E-01
     -1.401  0.1728E-02  0.1500E-01
     -1.270  0.1631E-02  0.1522E-01
     -1.140  0.1566E-02  0.1543E-01
     -1.009  0.1513E-02  0.1563E-01
     -0.878  0.1468E-02  0.1582E-01
     -0.747  0.1413E-02  0.1601E-01
     -0.616  0.1346E-02  0.1619E-01
     -0.486  0.1267E-02  0.1636E-01
     -0.355  0.1190E-02  0.1652E-01
     -0.224  0.1130E-02  0.1668E-01
     -0.093  0.1097E-02  0.1682E-01
      0.038  0.1253E-02  0.1697E-01
      0.169  0.1647E-02  0.1716E-01
      0.299  0.2147E-02  0.1740E-01
      0.430  0.2851E-02  0.1773E-01
      0.561  0.3245E-02  0.1813E-01
      0.692  0.3211E-02  0.1856E-01
      0.823  0.3039E-02  0.1897E-01
      0.953  0.2974E-02  0.1936E-01
      1.084  0.2930E-02  0.1975E-01
      1.215  0.2916E-02  0.2013E-01
      1.346  0.2878E-02  0.2051E-01
      1.477  0.2873E-02  0.2089E-01
      1.608  0.2924E-02  0.2126E-01
      1.738  0.2987E-02  0.2165E-01
      1.869  0.3044E-02  0.2205E-01
      2.000  0.3303E-02  0.2246E-01
      2.131  0.3468E-02  0.2290E-01
      2.262  0.3571E-02  0.2336E-01
      2.392  0.3744E-02  0.2384E-01
      2.523  0.4052E-02  0.2435E-01
      2.654  0.4445E-02  0.2491E-01
      2.785  0.4558E-02  0.2550E-01
      2.916  0.4370E-02  0.2608E-01
      3.046  0.4340E-02  0.2665E-01
      3.177  0.4307E-02  0.2722E-01
      3.308  0.4277E-02  0.2778E-01
      3.439  0.4227E-02  0.2833E-01
      3.570  0.4189E-02  0.2889E-01
      3.701  0.4129E-02  0.2943E-01
      3.831  0.4055E-02  0.2997E-01
      3.962  0.4016E-02  0.3049E-01
      4.093  0.4000E-02  0.3102E-01
      4.224  0.3981E-02  0.3154E-01
      4.355  0.3949E-02  0.3206E-01
      4.485  0.3910E-02  0.3257E-01
      4.616  0.3874E-02  0.3308E-01
      4.747  0.3844E-02  0.3359E-01
      4.878  0.3805E-02  0.3409E-01
      5.009  0.3773E-02  0.3458E-01
      5.139  0.3746E-02  0.3507E-01
      5.270  0.3695E-02  0.3556E-01
      5.401  0.3620E-02  0.3604E-01
      5.532  0.3474E-02  0.3651E-01
      5.663  0.3092E-02  0.3694E-01
      5.794  0.2612E-02  0.3731E-01
      5.924  0.2309E-02  0.3763E-01
      6.055  0.2072E-02  0.3792E-01
      6.186  0.1895E-02  0.3818E-01
      6.317  0.1761E-02  0.3842E-01
      6.448  0.1620E-02  0.3864E-01
      6.578  0.1462E-02  0.3884E-01
      6.709  0.1305E-02  0.3902E-01
      6.840  0.1184E-02  0.3918E-01
      6.971  0.1065E-02  0.3933E-01
      7.102  0.9487E-03  0.3946E-01
      7.233  0.8388E-03  0.3958E-01
      7.363  0.7684E-03  0.3968E-01
      7.494  0.6536E-03  0.3978E-01
      7.625  0.5607E-03  0.3986E-01
      7.756  0.4377E-03  0.3992E-01
      7.887  0.2762E-03  0.3997E-01
      8.017  0.9846E-04  0.3999E-01
      8.148  0.1337E-04  0.4000E-01
      8.279  0.0000E+00  0.4000E-01
      8.410  0.0000E+00  0.4000E-01
      8.541  0.0000E+00  0.4000E-01
      8.671  0.0000E+00  0.4000E-01
      8.802  0.0000E+00  0.4000E-01
      8.933  0.0000E+00  0.4000E-01
      9.064  0.0000E+00  0.4000E-01
      9.195  0.0000E+00  0.4000E-01
      9.326  0.0000E+00  0.4000E-01
      9.456  0.0000E+00  0.4000E-01
      9.587  0.0000E+00  0.4000E-01
      9.718  0.0000E+00  0.4000E-01
      9.849  0.0000E+00  0.4000E-01
      9.980  0.0000E+00  0.4000E-01
     10.110  0.0000E+00  0.4000E-01
     10.241  0.0000E+00  0.4000E-01
     10.372  0.0000E+00  0.4000E-01
     10.503  0.0000E+00  0.4000E-01
     10.634  0.0000E+00  0.4000E-01
     10.765  0.0000E+00  0.4000E-01
     10.895  0.0000E+00  0.4000E-01
     11.026  0.0000E+00  0.4000E-01
     11.157  0.0000E+00  0.4000E-01
     11.288  0.0000E+00  0.4000E-01
     11.419  0.0000E+00  0.4000E-01
     11.549  0.0000E+00  0.4000E-01
     11.680  0.0000E+00  0.4000E-01
     11.811  0.0000E+00  0.4000E-01
     11.942  0.0000E+00  0.4000E-01
     12.073  0.0000E+00  0.4000E-01
     12.203  0.8440E-05  0.4000E-01
     12.334  0.1181E-03  0.4001E-01
     12.465  0.3438E-03  0.4004E-01
     12.596  0.5932E-03  0.4010E-01
     12.727  0.8472E-03  0.4019E-01
     12.858  0.1041E-02  0.4032E-01
     12.988  0.1203E-02  0.4046E-01
     13.119  0.1367E-02  0.4063E-01
     13.250  0.1579E-02  0.4082E-01
     13.381  0.1771E-02  0.4104E-01
     13.512  0.2025E-02  0.4129E-01
     13.642  0.2316E-02  0.4157E-01
     13.773  0.2542E-02  0.4189E-01
     13.904  0.2596E-02  0.4223E-01
     14.035  0.2734E-02  0.4258E-01
     14.166  0.2882E-02  0.4294E-01
     14.296  0.3001E-02  0.4333E-01
     14.427  0.3134E-02  0.4373E-01
     14.558  0.3262E-02  0.4415E-01
     14.689  0.3418E-02  0.4459E-01
     14.820  0.3594E-02  0.4505E-01
     14.951  0.3811E-02  0.4553E-01
     15.081  0.4102E-02  0.4605E-01
     15.212  0.4563E-02  0.4661E-01
     15.343  0.5333E-02  0.4725E-01
     15.474  0.6197E-02  0.4801E-01
     15.605  0.7451E-02  0.4889E-01
     15.735  0.7711E-02  0.4993E-01
     15.866  0.5355E-02  0.5078E-01
     15.997  0.4130E-02  0.5139E-01
     16.128  0.4051E-02  0.5192E-01
     16.259  0.4622E-02  0.5249E-01
     16.390  0.5212E-02  0.5313E-01
     16.520  0.4918E-02  0.5382E-01
     16.651  0.4728E-02  0.5445E-01
     16.782  0.4788E-02  0.5507E-01
     16.913  0.4999E-02  0.5571E-01
     17.044  0.5369E-02  0.5639E-01
     17.174  0.5655E-02  0.5711E-01
     17.305  0.5378E-02  0.5785E-01
     17.436  0.5189E-02  0.5852E-01
     17.567  0.5113E-02  0.5919E-01
     17.698  0.4891E-02  0.5985E-01
     17.828  0.4503E-02  0.6047E-01
     17.959  0.4042E-02  0.6103E-01
     18.090  0.3635E-02  0.6152E-01
     18.221  0.3793E-02  0.6200E-01
     18.352  0.4184E-02  0.6251E-01
     18.483  0.3248E-02  0.6299E-01
     18.613  0.2858E-02  0.6338E-01
     18.744  0.2591E-02  0.6374E-01
     18.875  0.2521E-02  0.6407E-01
     19.006  0.2854E-02  0.6442E-01
     19.137  0.3220E-02  0.6482E-01
     19.267  0.3849E-02  0.6527E-01
     19.398  0.4571E-02  0.6582E-01
     19.529  0.5065E-02  0.6646E-01
     19.660  0.5230E-02  0.6713E-01
     19.791  0.5443E-02  0.6782E-01
     19.921  0.5372E-02  0.6854E-01
     20.052  0.4954E-02  0.6921E-01
     20.183  0.4615E-02  0.6984E-01
     20.314  0.4307E-02  0.7042E-01
     20.445  0.4062E-02  0.7097E-01
     20.576  0.3816E-02  0.7148E-01
     20.706  0.3740E-02  0.7197E-01
     20.837  0.3861E-02  0.7247E-01
     20.968  0.4278E-02  0.7300E-01
     21.099  0.4923E-02  0.7360E-01
     21.230  0.5757E-02  0.7430E-01
     21.360  0.6114E-02  0.7508E-01
     21.491  0.5607E-02  0.7585E-01
     21.622  0.4736E-02  0.7653E-01
     21.753  0.4002E-02  0.7710E-01
     21.884  0.3520E-02  0.7760E-01
     22.015  0.3086E-02  0.7803E-01
     22.145  0.2695E-02  0.7841E-01
     22.276  0.2417E-02  0.7874E-01
     22.407  0.2261E-02  0.7904E-01
     22.538  0.2070E-02  0.7933E-01
     22.669  0.1769E-02  0.7958E-01
     22.799  0.1035E-02  0.7976E-01
     22.930  0.7523E-03  0.7987E-01
     23.061  0.4181E-03  0.7995E-01
     23.192  0.1666E-03  0.7999E-01
     23.323  0.2877E-04  0.8000E-01
     23.453  0.0000E+00  0.8000E-01
     23.584  0.0000E+00  0.8000E-01
     23.715  0.0000E+00  0.8000E-01
     23.846  0.0000E+00  0.8000E-01
     23.977  0.0000E+00  0.8000E-01
     24.108  0.0000E+00  0.8000E-01
     24.238  0.0000E+00  0.8000E-01
     24.369  0.0000E+00  0.8000E-01
     24.500  0.0000E+00  0.8000E-01
     24.631  0.0000E+00  0.8000E-01
     24.762  0.0000E+00  0.8000E-01
     24.892  0.0000E+00  0.8000E-01
     25.023  0.0000E+00  0.8000E-01
     25.154  0.0000E+00  0.8000E-01
     25.285  0.0000E+00  0.8000E-01
     25.416  0.0000E+00  0.8000E-01
