   72   72  200    1
  0.1089857E+02  0.1170790E-08  0.8189300E-09  0.8184200E-09  0.5000000E-15
  1.000000000000000E-004
  CAR 
 diamond                                 
    120     27     98
 
  0.0000000E+00  0.0000000E+00  0.0000000E+00  0.1562500E-01
    1      -14.709027
    2      -14.581074
    3      -14.460903
    4      -14.448462
    5      -14.444764
    6      -14.441508
    7      -14.326104
    8      -14.323170
    9      -14.241838
   10      -14.164491
   11      -14.157665
   12      -14.089821
   13      -14.087562
   14      -14.082279
   15      -14.029172
   16      -14.011771
   17       -8.176668
   18       -8.062106
   19       -8.041145
   20       -8.039917
   21       -8.026559
   22       -8.001686
   23       -7.964149
   24       -7.793424
   25       -7.752685
   26       -7.741061
   27       -7.719715
   28       -7.680002
   29       -7.467803
   30       -7.461421
   31       -7.454989
   32       -7.431203
   33       -7.208009
   34       -7.204086
   35       -7.101867
   36       -7.098143
   37       -7.040158
   38       -6.994115
   39       -6.982679
   40       -6.926440
   41       -6.908131
   42       -6.891198
   43       -6.862724
   44       -6.853063
   45       -6.759725
   46       -6.748653
   47       -6.689019
   48       -6.682155
   49       -6.594663
   50       -6.584154
   51       -6.583444
   52       -6.557371
   53       -6.519142
   54       -6.518741
   55       -6.455826
   56       -6.450228
   57       -2.609162
   58       -2.429252
   59       -2.367384
   60       -2.284591
   61       -1.583523
   62       -1.560649
   63       -1.558173
   64       -1.552297
   65        1.383803
   66        2.544579
   67        2.764183
   68        2.884483
   69        2.918381
   70        3.350103
   71        3.387486
   72        3.569727
   73        3.580597
   74        3.610864
   75        3.757949
   76        3.821924
   77        3.939748
   78        3.959519
   79        4.357161
   80        4.417297
   81        4.469785
   82        4.591243
   83        4.706176
   84        4.754170
   85        4.922076
   86        4.941601
   87        5.115114
   88        5.117612
   89        5.154780
   90        5.320569
   91        5.330435
   92        5.335562
   93        5.410223
   94        5.586692
   95        5.785287
   96        5.825683
   97        5.868684
   98        5.875412
 
  0.2500000E+00  0.0000000E+00  0.0000000E+00  0.3125000E-01
    1      -14.694455
    2      -14.606076
    3      -14.458703
    4      -14.448462
    5      -14.446224
    6      -14.442455
    7      -14.325653
    8      -14.323599
    9      -14.213055
   10      -14.163493
   11      -14.158664
   12      -14.106064
   13      -14.088722
   14      -14.083390
   15      -14.026568
   16      -14.014261
   17       -8.156904
   18       -8.052532
   19       -8.051182
   20       -8.024789
   21       -8.011723
   22       -7.973680
   23       -7.960857
   24       -7.839481
   25       -7.802469
   26       -7.797196
   27       -7.713871
   28       -7.685772
   29       -7.466573
   30       -7.462119
   31       -7.451450
   32       -7.434588
   33       -7.150628
   34       -7.150086
   35       -7.101943
   36       -7.098547
   37       -7.031586
   38       -6.971924
   39       -6.958346
   40       -6.940227
   41       -6.919217
   42       -6.903767
   43       -6.889749
   44       -6.825628
   45       -6.759022
   46       -6.750066
   47       -6.726286
   48       -6.705119
   49       -6.592602
   50       -6.585300
   51       -6.579785
   52       -6.561237
   53       -6.519027
   54       -6.518735
   55       -6.454947
   56       -6.451000
   57       -2.583040
   58       -2.455854
   59       -2.355252
   60       -2.296708
   61       -1.579807
   62       -1.561881
   63       -1.559366
   64       -1.553444
   65        1.483613
   66        2.184433
   67        2.846955
   68        2.974333
   69        3.206169
   70        3.302470
   71        3.313046
   72        3.532391
   73        3.573060
   74        3.611369
   75        3.706734
   76        3.794782
   77        4.009627
   78        4.017124
   79        4.318068
   80        4.440953
   81        4.509932
   82        4.513559
   83        4.568017
   84        4.881815
   85        4.900525
   86        5.002403
   87        5.046016
   88        5.108727
   89        5.122699
   90        5.129115
   91        5.383540
   92        5.409612
   93        5.443901
   94        5.663972
   95        5.666015
   96        5.817687
   97        5.827452
   98        5.875941
 
  0.5000000E+00  0.0000000E+00  0.0000000E+00  0.1562500E-01
    1      -14.654949
    2      -14.654946
    3      -14.453286
    4      -14.453284
    5      -14.444694
    6      -14.444692
    7      -14.324629
    8      -14.324626
    9      -14.161084
   10      -14.161083
   11      -14.154909
   12      -14.154908
   13      -14.086056
   14      -14.086056
   15      -14.020344
   16      -14.020344
   17       -8.106438
   18       -8.106438
   19       -8.030460
   20       -8.030459
   21       -7.933294
   22       -7.933293
   23       -7.899429
   24       -7.899428
   25       -7.897629
   26       -7.897629
   27       -7.699770
   28       -7.699770
   29       -7.464093
   30       -7.464093
   31       -7.442939
   32       -7.442938
   33       -7.101749
   34       -7.101746
   35       -7.053862
   36       -7.053859
   37       -7.043773
   38       -7.043771
   39       -6.945725
   40       -6.945722
   41       -6.922096
   42       -6.922094
   43       -6.827153
   44       -6.827151
   45       -6.763152
   46       -6.763150
   47       -6.753350
   48       -6.753347
   49       -6.588527
   50       -6.588524
   51       -6.570611
   52       -6.570609
   53       -6.518773
   54       -6.518770
   55       -6.452866
   56       -6.452863
   57       -2.519688
   58       -2.519688
   59       -2.325966
   60       -2.325966
   61       -1.570845
   62       -1.570845
   63       -1.556327
   64       -1.556326
   65        1.767057
   66        1.767058
   67        3.071070
   68        3.071073
   69        3.124323
   70        3.124324
   71        3.484709
   72        3.484710
   73        3.591607
   74        3.591609
   75        3.709565
   76        3.709565
   77        4.174912
   78        4.174914
   79        4.184777
   80        4.184778
   81        4.565241
   82        4.565242
   83        4.780357
   84        4.780357
   85        4.881783
   86        4.881783
   87        4.976760
   88        4.976762
   89        5.098287
   90        5.098289
   91        5.529350
   92        5.529351
   93        5.603037
   94        5.603038
   95        5.632668
   96        5.632668
   97        5.919413
   98        5.919414
 
  0.0000000E+00  0.2500000E+00  0.0000000E+00  0.3125000E-01
    1      -14.676725
    2      -14.561411
    3      -14.495091
    4      -14.462762
    5      -14.442751
    6      -14.427518
    7      -14.348402
    8      -14.341575
    9      -14.219692
   10      -14.145473
   11      -14.134957
   12      -14.106926
   13      -14.083135
   14      -14.082320
   15      -14.049664
   16      -14.032773
   17       -8.085199
   18       -8.004491
   19       -7.994613
   20       -7.992870
   21       -7.967044
   22       -7.943352
   23       -7.889720
   24       -7.817129
   25       -7.795793
   26       -7.765720
   27       -7.741326
   28       -7.688802
   29       -7.588898
   30       -7.584324
   31       -7.546071
   32       -7.514628
   33       -7.136912
   34       -7.126835
   35       -7.041443
   36       -7.036840
   37       -7.018426
   38       -6.970858
   39       -6.955141
   40       -6.915978
   41       -6.896594
   42       -6.864859
   43       -6.832511
   44       -6.823117
   45       -6.789853
   46       -6.753638
   47       -6.728812
   48       -6.708894
   49       -6.654016
   50       -6.641111
   51       -6.612400
   52       -6.610292
   53       -6.562435
   54       -6.557561
   55       -6.472499
   56       -6.466435
   57       -2.559269
   58       -2.418633
   59       -2.374693
   60       -2.329553
   61       -1.577279
   62       -1.557414
   63       -1.556238
   64       -1.554915
   65        1.591804
   66        2.685436
   67        2.889845
   68        2.942809
   69        3.001625
   70        3.128808
   71        3.288568
   72        3.378358
   73        3.579251
   74        3.705365
   75        3.787768
   76        4.002756
   77        4.164253
   78        4.222376
   79        4.410972
   80        4.427983
   81        4.472510
   82        4.497673
   83        4.568804
   84        4.796653
   85        4.869344
   86        4.972184
   87        5.058798
   88        5.111487
   89        5.252664
   90        5.284500
   91        5.311597
   92        5.392294
   93        5.426371
   94        5.514844
   95        5.566712
   96        5.587688
   97        5.671875
   98        5.697936
 
  0.2500000E+00  0.2500000E+00  0.0000000E+00  0.6250000E-01
    1      -14.663289
    2      -14.583355
    3      -14.490659
    4      -14.467816
    5      -14.440569
    6      -14.429832
    7      -14.347435
    8      -14.342603
    9      -14.194661
   10      -14.143897
   11      -14.136455
   12      -14.102960
   13      -14.099676
   14      -14.085576
   15      -14.047207
   16      -14.035243
   17       -8.077348
   18       -7.999651
   19       -7.983911
   20       -7.967646
   21       -7.958937
   22       -7.942264
   23       -7.896619
   24       -7.855374
   25       -7.813917
   26       -7.788030
   27       -7.752698
   28       -7.699607
   29       -7.572854
   30       -7.568927
   31       -7.543197
   32       -7.519839
   33       -7.103725
   34       -7.099774
   35       -7.037476
   36       -7.032332
   37       -7.019497
   38       -6.975672
   39       -6.968117
   40       -6.895544
   41       -6.894997
   42       -6.889529
   43       -6.857507
   44       -6.797900
   45       -6.785657
   46       -6.760053
   47       -6.757160
   48       -6.728773
   49       -6.635804
   50       -6.635169
   51       -6.612130
   52       -6.610566
   53       -6.562294
   54       -6.558632
   55       -6.471563
   56       -6.467246
   57       -2.538668
   58       -2.439248
   59       -2.367886
   60       -2.335968
   61       -1.574221
   62       -1.559321
   63       -1.557075
   64       -1.555287
   65        1.684568
   66        2.345440
   67        2.943204
   68        2.990056
   69        3.096912
   70        3.168207
   71        3.329263
   72        3.399926
   73        3.475815
   74        3.782738
   75        3.824124
   76        4.052429
   77        4.233942
   78        4.248322
   79        4.413726
   80        4.420020
   81        4.427108
   82        4.466601
   83        4.563717
   84        4.835227
   85        4.856029
   86        4.870252
   87        5.021713
   88        5.088758
   89        5.178232
   90        5.271216
   91        5.338789
   92        5.341245
   93        5.395661
   94        5.401224
   95        5.471835
   96        5.698196
   97        5.709914
   98        5.729967
 
  0.5000000E+00  0.2500000E+00  0.0000000E+00  0.3125000E-01
    1      -14.627221
    2      -14.627219
    3      -14.479543
    4      -14.479540
    5      -14.435265
    6      -14.435263
    7      -14.345046
    8      -14.345043
    9      -14.143330
   10      -14.143329
   11      -14.140118
   12      -14.140117
   13      -14.093917
   14      -14.093916
   15      -14.041204
   16      -14.041203
   17       -8.043637
   18       -8.043637
   19       -7.951645
   20       -7.951644
   21       -7.928586
   22       -7.928585
   23       -7.872551
   24       -7.872550
   25       -7.868112
   26       -7.868110
   27       -7.725138
   28       -7.725137
   29       -7.557863
   30       -7.557862
   31       -7.533325
   32       -7.533324
   33       -7.047490
   34       -7.047487
   35       -7.039000
   36       -7.038999
   37       -7.018959
   38       -7.018958
   39       -6.949515
   40       -6.949513
   41       -6.881709
   42       -6.881707
   43       -6.835510
   44       -6.835509
   45       -6.773819
   46       -6.773816
   47       -6.752706
   48       -6.752704
   49       -6.628185
   50       -6.628183
   51       -6.611427
   52       -6.611424
   53       -6.560878
   54       -6.560875
   55       -6.469337
   56       -6.469334
   57       -2.488962
   58       -2.488961
   59       -2.351731
   60       -2.351730
   61       -1.566789
   62       -1.566789
   63       -1.556198
   64       -1.556197
   65        1.949926
   66        1.949927
   67        3.031768
   68        3.031770
   69        3.191279
   70        3.191282
   71        3.211513
   72        3.211513
   73        3.692953
   74        3.692954
   75        4.103066
   76        4.103067
   77        4.271459
   78        4.271459
   79        4.323179
   80        4.323181
   81        4.413289
   82        4.413291
   83        4.713114
   84        4.713114
   85        4.783000
   86        4.783001
   87        5.111389
   88        5.111390
   89        5.141208
   90        5.141210
   91        5.327408
   92        5.327409
   93        5.367549
   94        5.367550
   95        5.558509
   96        5.558509
   97        5.895862
   98        5.896001
 
  0.0000000E+00  0.5000000E+00  0.0000000E+00  0.1562500E-01
    1      -14.592440
    2      -14.592440
    3      -14.512863
    4      -14.512863
    5      -14.397376
    6      -14.397376
    7      -14.385134
    8      -14.385134
    9      -14.164532
   10      -14.164532
   11      -14.098739
   12      -14.098739
   13      -14.083348
   14      -14.083348
   15      -14.076976
   16      -14.076976
   17       -7.909546
   18       -7.909546
   19       -7.908112
   20       -7.908112
   21       -7.857316
   22       -7.857316
   23       -7.852341
   24       -7.852341
   25       -7.805724
   26       -7.805724
   27       -7.746874
   28       -7.746874
   29       -7.714424
   30       -7.714424
   31       -7.705967
   32       -7.705967
   33       -7.053672
   34       -7.053672
   35       -7.009676
   36       -7.009676
   37       -6.871867
   38       -6.871867
   39       -6.856213
   40       -6.856213
   41       -6.852890
   42       -6.852890
   43       -6.822650
   44       -6.822650
   45       -6.789700
   46       -6.789700
   47       -6.789664
   48       -6.789664
   49       -6.757718
   50       -6.757718
   51       -6.754835
   52       -6.754835
   53       -6.513962
   54       -6.513962
   55       -6.509964
   56       -6.509964
   57       -2.442053
   58       -2.442053
   59       -2.394996
   60       -2.394996
   61       -1.564303
   62       -1.564303
   63       -1.554294
   64       -1.554294
   65        2.153210
   66        2.153210
   67        3.010116
   68        3.010116
   69        3.198048
   70        3.198048
   71        3.360077
   72        3.360077
   73        3.596117
   74        3.596117
   75        4.057636
   76        4.057636
   77        4.219882
   78        4.219882
   79        4.269354
   80        4.269354
   81        4.606605
   82        4.606605
   83        4.830521
   84        4.830521
   85        4.868496
   86        4.868496
   87        4.973625
   88        4.973625
   89        5.175976
   90        5.175976
   91        5.416226
   92        5.416226
   93        5.418448
   94        5.418448
   95        5.519601
   96        5.519601
   97        5.649103
   98        5.780896
 
  0.2500000E+00  0.5000000E+00  0.0000000E+00  0.3125000E-01
    1      -14.582543
    2      -14.582543
    3      -14.526846
    4      -14.526846
    5      -14.395629
    6      -14.395629
    7      -14.386995
    8      -14.386995
    9      -14.149394
   10      -14.149394
   11      -14.096543
   12      -14.096543
   13      -14.087916
   14      -14.087916
   15      -14.085515
   16      -14.085515
   17       -7.932251
   18       -7.932251
   19       -7.926693
   20       -7.926693
   21       -7.855136
   22       -7.855136
   23       -7.802044
   24       -7.802044
   25       -7.801961
   26       -7.801961
   27       -7.745438
   28       -7.745438
   29       -7.719089
   30       -7.719089
   31       -7.710394
   32       -7.710394
   33       -7.046675
   34       -7.046675
   35       -7.015343
   36       -7.015343
   37       -6.892889
   38       -6.892889
   39       -6.870055
   40       -6.870055
   41       -6.847631
   42       -6.847631
   43       -6.820924
   44       -6.820924
   45       -6.820287
   46       -6.820287
   47       -6.794432
   48       -6.794432
   49       -6.733747
   50       -6.733747
   51       -6.724205
   52       -6.724205
   53       -6.513347
   54       -6.513347
   55       -6.510548
   56       -6.510548
   57       -2.434867
   58       -2.434867
   59       -2.401589
   60       -2.401589
   61       -1.562899
   62       -1.562899
   63       -1.555816
   64       -1.555816
   65        2.223017
   66        2.223017
   67        2.740981
   68        2.740981
   69        3.235624
   70        3.235624
   71        3.419799
   72        3.419799
   73        3.804066
   74        3.804066
   75        4.097108
   76        4.097108
   77        4.185988
   78        4.185988
   79        4.309449
   80        4.309449
   81        4.589838
   82        4.589838
   83        4.657609
   84        4.657609
   85        4.911250
   86        4.911250
   87        5.032113
   88        5.032113
   89        5.178256
   90        5.178256
   91        5.203093
   92        5.203093
   93        5.509140
   94        5.509140
   95        5.530816
   96        5.530816
   97        5.635364
   98        5.635364
 
  0.5000000E+00  0.5000000E+00  0.0000000E+00  0.1562500E-01
    1      -14.556652
    2      -14.556652
    3      -14.556650
    4      -14.556650
    5      -14.391382
    6      -14.391382
    7      -14.391379
    8      -14.391379
    9      -14.116852
   10      -14.116852
   11      -14.116851
   12      -14.116851
   13      -14.090830
   14      -14.090830
   15      -14.090829
   16      -14.090829
   17       -7.944232
   18       -7.944232
   19       -7.944232
   20       -7.944232
   21       -7.823761
   22       -7.823761
   23       -7.823760
   24       -7.823760
   25       -7.755661
   26       -7.755661
   27       -7.755660
   28       -7.755660
   29       -7.719041
   30       -7.719041
   31       -7.719040
   32       -7.719040
   33       -7.030601
   34       -7.030601
   35       -7.030599
   36       -7.030599
   37       -6.899834
   38       -6.899834
   39       -6.899834
   40       -6.899834
   41       -6.831694
   42       -6.831694
   43       -6.831694
   44       -6.831694
   45       -6.813390
   46       -6.813390
   47       -6.813390
   48       -6.813390
   49       -6.711340
   50       -6.711340
   51       -6.711340
   52       -6.711340
   53       -6.511939
   54       -6.511939
   55       -6.511936
   56       -6.511936
   57       -2.417936
   58       -2.417936
   59       -2.417935
   60       -2.417935
   61       -1.559418
   62       -1.559418
   63       -1.559417
   64       -1.559417
   65        2.426813
   66        2.426813
   67        2.426815
   68        2.426815
   69        3.329887
   70        3.329887
   71        3.329888
   72        3.329888
   73        4.105252
   74        4.105252
   75        4.105252
   76        4.105252
   77        4.240862
   78        4.240862
   79        4.240862
   80        4.240862
   81        4.585391
   82        4.585391
   83        4.585392
   84        4.585392
   85        4.859713
   86        4.859713
   87        4.859713
   88        4.859713
   89        5.236295
   90        5.236295
   91        5.236296
   92        5.236296
   93        5.488123
   94        5.488123
   95        5.488123
   96        5.488123
   97        5.673546
   98        5.673546
 
  0.0000000E+00  0.0000000E+00  0.2500000E+00  0.3125000E-01
    1      -14.679423
    2      -14.561863
    3      -14.508090
    4      -14.465499
    5      -14.431160
    6      -14.424706
    7      -14.344679
    8      -14.341048
    9      -14.229906
   10      -14.170371
   11      -14.144042
   12      -14.096803
   13      -14.080877
   14      -14.067897
   15      -14.038006
   16      -14.021101
   17       -8.149353
   18       -8.052363
   19       -8.028053
   20       -8.006343
   21       -8.001921
   22       -8.000154
   23       -7.961105
   24       -7.814312
   25       -7.805166
   26       -7.780302
   27       -7.731967
   28       -7.688900
   29       -7.463513
   30       -7.457474
   31       -7.453484
   32       -7.436358
   33       -7.189345
   34       -7.120358
   35       -7.115624
   36       -7.053823
   37       -6.991157
   38       -6.982755
   39       -6.978555
   40       -6.890470
   41       -6.867895
   42       -6.866112
   43       -6.838352
   44       -6.838324
   45       -6.764541
   46       -6.749492
   47       -6.713027
   48       -6.692702
   49       -6.687491
   50       -6.648323
   51       -6.574223
   52       -6.551027
   53       -6.536633
   54       -6.529153
   55       -6.529042
   56       -6.524354
   57       -2.483499
   58       -2.328930
   59       -2.261754
   60       -2.188523
   61       -1.754545
   62       -1.744856
   63       -1.685754
   64       -1.670066
   65        1.617235
   66        2.703318
   67        2.904891
   68        2.906317
   69        2.950513
   70        2.965262
   71        3.519686
   72        3.614032
   73        3.668716
   74        3.687591
   75        3.795112
   76        3.795215
   77        3.872324
   78        4.097006
   79        4.331681
   80        4.484215
   81        4.559856
   82        4.603608
   83        4.745668
   84        4.777065
   85        4.800399
   86        4.870806
   87        4.887562
   88        4.926363
   89        4.957876
   90        5.099373
   91        5.406221
   92        5.422854
   93        5.512945
   94        5.553788
   95        5.637512
   96        5.638127
   97        5.857617
   98        6.004893
 
  0.2500000E+00  0.0000000E+00  0.2500000E+00  0.6250000E-01
    1      -14.665830
    2      -14.584441
    3      -14.502445
    4      -14.472436
    5      -14.430194
    6      -14.425647
    7      -14.344146
    8      -14.341585
    9      -14.204338
   10      -14.165573
   11      -14.147082
   12      -14.110809
   13      -14.079690
   14      -14.071678
   15      -14.035783
   16      -14.023809
   17       -8.132936
   18       -8.047349
   19       -8.047246
   20       -8.019226
   21       -7.982757
   22       -7.959707
   23       -7.942131
   24       -7.848676
   25       -7.833122
   26       -7.782695
   27       -7.768438
   28       -7.704167
   29       -7.461760
   30       -7.457159
   31       -7.450756
   32       -7.437925
   33       -7.138787
   34       -7.106421
   35       -7.088462
   36       -7.062014
   37       -6.986663
   38       -6.984377
   39       -6.947712
   40       -6.901457
   41       -6.880714
   42       -6.877050
   43       -6.853716
   44       -6.816102
   45       -6.763777
   46       -6.757593
   47       -6.743785
   48       -6.713624
   49       -6.672453
   50       -6.651273
   51       -6.571129
   52       -6.554913
   53       -6.533890
   54       -6.529175
   55       -6.528416
   56       -6.525063
   57       -2.460570
   58       -2.351193
   59       -2.251151
   60       -2.199468
   61       -1.752318
   62       -1.745552
   63       -1.683582
   64       -1.672419
   65        1.705015
   66        2.341641
   67        2.902948
   68        2.928944
   69        2.999090
   70        3.296706
   71        3.463166
   72        3.687220
   73        3.688080
   74        3.711250
   75        3.726193
   76        3.775481
   77        3.834155
   78        4.124536
   79        4.313375
   80        4.382013
   81        4.421697
   82        4.647413
   83        4.752587
   84        4.771041
   85        4.838129
   86        4.858650
   87        4.900868
   88        4.924086
   89        5.085732
   90        5.141044
   91        5.294559
   92        5.438441
   93        5.550459
   94        5.570938
   95        5.601322
   96        5.644032
   97        5.744314
   98        5.865373
 
  0.5000000E+00  0.0000000E+00  0.2500000E+00  0.3125000E-01
    1      -14.629224
    2      -14.629222
    3      -14.488066
    4      -14.488063
    5      -14.427919
    6      -14.427917
    7      -14.342859
    8      -14.342856
    9      -14.155461
   10      -14.155460
   11      -14.152698
   12      -14.152697
   13      -14.076485
   14      -14.076485
   15      -14.030036
   16      -14.030035
   17       -8.091571
   18       -8.091570
   19       -8.034376
   20       -8.034376
   21       -7.920902
   22       -7.920901
   23       -7.891933
   24       -7.891933
   25       -7.879815
   26       -7.879814
   27       -7.737903
   28       -7.737902
   29       -7.458502
   30       -7.458501
   31       -7.444060
   32       -7.444059
   33       -7.084654
   34       -7.084651
   35       -7.044077
   36       -7.044075
   37       -7.021531
   38       -7.021530
   39       -6.899272
   40       -6.899270
   41       -6.880283
   42       -6.880281
   43       -6.850686
   44       -6.850684
   45       -6.764115
   46       -6.764113
   47       -6.749332
   48       -6.749330
   49       -6.659502
   50       -6.659499
   51       -6.563309
   52       -6.563306
   53       -6.530409
   54       -6.530407
   55       -6.526768
   56       -6.526766
   57       -2.405563
   58       -2.405562
   59       -2.225468
   60       -2.225467
   61       -1.748171
   62       -1.748171
   63       -1.678098
   64       -1.678097
   65        1.958050
   66        1.958052
   67        2.906901
   68        2.906901
   69        3.214385
   70        3.214388
   71        3.599032
   72        3.599033
   73        3.727934
   74        3.727934
   75        3.741326
   76        3.741328
   77        3.997819
   78        3.997820
   79        4.223098
   80        4.223099
   81        4.627966
   82        4.627967
   83        4.742146
   84        4.742148
   85        4.797899
   86        4.797899
   87        4.909776
   88        4.909778
   89        5.122713
   90        5.122715
   91        5.483205
   92        5.483206
   93        5.490229
   94        5.490229
   95        5.613746
   96        5.613746
   97        5.745714
   98        5.745715
 
  0.0000000E+00  0.2500000E+00  0.2500000E+00  0.6250000E-01
    1      -14.648313
    2      -14.542512
    3      -14.486178
    4      -14.475040
    5      -14.447868
    6      -14.445564
    7      -14.371528
    8      -14.359895
    9      -14.207990
   10      -14.148391
   11      -14.129559
   12      -14.103192
   13      -14.079969
   14      -14.076302
   15      -14.052709
   16      -14.042014
   17       -8.060251
   18       -7.980717
   19       -7.971953
   20       -7.963686
   21       -7.946249
   22       -7.934274
   23       -7.923404
   24       -7.829339
   25       -7.801565
   26       -7.787827
   27       -7.780496
   28       -7.704951
   29       -7.578712
   30       -7.570353
   31       -7.544870
   32       -7.526350
   33       -7.109970
   34       -7.068135
   35       -7.050091
   36       -7.012649
   37       -6.960423
   38       -6.953239
   39       -6.919937
   40       -6.919889
   41       -6.858420
   42       -6.853043
   43       -6.819067
   44       -6.813708
   45       -6.778117
   46       -6.758255
   47       -6.749511
   48       -6.730884
   49       -6.655395
   50       -6.651715
   51       -6.637486
   52       -6.619452
   53       -6.614315
   54       -6.600570
   55       -6.547333
   56       -6.545745
   57       -2.437836
   58       -2.317780
   59       -2.269794
   60       -2.228842
   61       -1.739050
   62       -1.733358
   63       -1.691111
   64       -1.679065
   65        1.804670
   66        2.844300
   67        2.969489
   68        2.969808
   69        3.017413
   70        3.081556
   71        3.172703
   72        3.455402
   73        3.736794
   74        3.754179
   75        3.828037
   76        3.925907
   77        4.195483
   78        4.253199
   79        4.318821
   80        4.371289
   81        4.559852
   82        4.597371
   83        4.682195
   84        4.687206
   85        4.805850
   86        4.965092
   87        5.012636
   88        5.027056
   89        5.069019
   90        5.164575
   91        5.369485
   92        5.398323
   93        5.483426
   94        5.501970
   95        5.562019
   96        5.585142
   97        5.612482
   98        5.848306
 
  0.2500000E+00  0.2500000E+00  0.2500000E+00  0.1250000E+00
    1      -14.635842
    2      -14.562318
    3      -14.481048
    4      -14.470973
    5      -14.454003
    6      -14.450121
    7      -14.369877
    8      -14.361657
    9      -14.185783
   10      -14.144514
   11      -14.131284
   12      -14.106471
   13      -14.088191
   14      -14.079084
   15      -14.051727
   16      -14.044138
   17       -8.052330
   18       -7.987106
   19       -7.957876
   20       -7.956084
   21       -7.951125
   22       -7.916661
   23       -7.912193
   24       -7.856951
   25       -7.814186
   26       -7.801299
   27       -7.788571
   28       -7.721046
   29       -7.567352
   30       -7.562959
   31       -7.544303
   32       -7.530553
   33       -7.083234
   34       -7.046379
   35       -7.038612
   36       -7.011333
   37       -6.971070
   38       -6.961509
   39       -6.920413
   40       -6.901422