   72   72  200    1
  0.1089857E+02  0.1170790E-08  0.8189300E-09  0.8184200E-09  0.5000000E-15
  1.000000000000000E-004
  CAR 
 diamond                                 
    120     27     98
