   80   80  200    1
  0.9808713E+01  0.1170790E-08  0.8189300E-09  0.8184200E-09  0.5000000E-15
  1.000000000000000E-004
  CAR 
 diamond                                 
    128     27    106
 
  0.0000000E+00  0.0000000E+00  0.0000000E+00  0.1562500E-01
    1      -14.760290
    2      -14.540427
    3      -14.477884
    4      -14.434044
    5      -14.422494
    6      -14.416313
    7      -14.372349
    8      -14.368267
    9      -14.349394
   10      -14.342208
   11      -14.341752
   12      -14.293733
   13      -14.228558
   14      -14.222926
   15      -14.222867
   16      -14.200011
   17       -7.518900
   18       -7.493672
   19       -7.492838
   20       -7.465318
   21       -7.465243
   22       -7.452133
   23       -7.444940
   24       -7.309272
   25       -7.132445
   26       -7.118403
   27       -7.098390
   28       -7.017394
   29       -6.994747
   30       -6.974113
   31       -6.902537
   32       -6.896584
   33       -6.886530
   34       -6.871218
   35       -6.854325
   36       -6.821818
   37       -6.816326
   38       -6.806386
   39       -6.732163
   40       -6.702457
   41       -6.684499
   42       -6.625386
   43       -6.623540
   44       -6.582831
   45       -6.548817
   46       -6.537333
   47       -6.521826
   48       -6.521378
   49       -6.482236
   50       -6.456561
   51       -6.453903
   52       -6.439158
   53       -6.416698
   54       -6.414002
   55       -6.386532
   56       -6.386363
   57       -6.382232
   58       -6.379289
   59       -6.379230
   60       -6.374992
   61       -6.353371
   62       -6.337403
   63       -6.293140
   64       -6.244182
   65        1.358861
   66        2.675141
   67        2.728797
   68        3.033480
   69        3.121496
   70        3.250029
   71        3.387001
   72        3.551706
   73        3.607563
   74        3.653330
   75        3.672653
   76        3.779112
   77        3.881442
   78        3.935726
   79        4.014497
   80        4.229551
   81        4.251437
   82        4.381103
   83        4.455576
   84        4.778853
   85        4.939592
   86        5.004052
   87        5.031773
   88        5.068913
   89        5.132439
   90        5.260807
   91        5.266465
   92        5.308683
   93        5.382698
   94        5.462873
   95        5.486866
   96        5.621406
   97        5.630405
   98        5.743176
   99        5.846850
  100        6.176022
  101        6.253924
  102        6.270165
  103        6.275158
  104        6.334598
  105        6.377237
  106        6.454738
 
  0.2500000E+00  0.0000000E+00  0.0000000E+00  0.3125000E-01
    1      -14.742254
    2      -14.612096
    3      -14.425670
    4      -14.421591
    5      -14.417215
    6      -14.402403
    7      -14.371742
    8      -14.368859
    9      -14.368012
   10      -14.347855
   11      -14.343198
   12      -14.267793
   13      -14.252958
   14      -14.222473
   15      -14.220913
   16      -14.208681
   17       -7.517031
   18       -7.507678
   19       -7.484685
   20       -7.465565
   21       -7.441919
   22       -7.403999
   23       -7.350950
   24       -7.311289
   25       -7.198329
   26       -7.197254
   27       -7.181376
   28       -7.106758
   29       -7.105081
   30       -7.047592
   31       -6.884802
   32       -6.884289
   33       -6.832108
   34       -6.817022
   35       -6.813601
   36       -6.798624
   37       -6.719382
   38       -6.698078
   39       -6.689855
   40       -6.683696
   41       -6.670274
   42       -6.652452
   43       -6.620740
   44       -6.587610
   45       -6.570845
   46       -6.527264
   47       -6.519387
   48       -6.499078
   49       -6.480494
   50       -6.473584
   51       -6.453941
   52       -6.439546
   53       -6.428136
   54       -6.400088
   55       -6.389972
   56       -6.385972
   57       -6.385604
   58       -6.381882
   59       -6.379744
   60       -6.375058
   61       -6.368641
   62       -6.361673
   63       -6.305780
   64       -6.295700
   65        1.463864
   66        2.198888
   67        3.084482
   68        3.153513
   69        3.161072
   70        3.310505
   71        3.338628
   72        3.429083
   73        3.584053
   74        3.667177
   75        3.675618
   76        3.677797
   77        3.954384
   78        3.969163
   79        4.064619
   80        4.283620
   81        4.323747
   82        4.332125
   83        4.421838
   84        4.836337
   85        4.921418
   86        4.983770
   87        5.015028
   88        5.089937
   89        5.095264
   90        5.107664
   91        5.220143
   92        5.291686
   93        5.396167
   94        5.436229
   95        5.464102
   96        5.569138
   97        5.657791
   98        5.754905
   99        5.808054
  100        5.864449
  101        6.214875
  102        6.274368
  103        6.326499
  104        6.353366
  105        6.468205
  106        6.501676
 
  0.5000000E+00  0.0000000E+00  0.0000000E+00  0.1562500E-01
    1      -14.690402
    2      -14.690401
    3      -14.419419
    4      -14.419418
    5      -14.402005
    6      -14.402003
    7      -14.370294
    8      -14.370293
    9      -14.345555
   10      -14.345553
   11      -14.314704
   12      -14.314703
   13      -14.233024
   14      -14.233023
   15      -14.221472
   16      -14.221469
   17       -7.527492
   18       -7.527491
   19       -7.413945
   20       -7.413944
   21       -7.392391
   22       -7.392389
   23       -7.286386
   24       -7.286385
   25       -7.270880
   26       -7.270880
   27       -7.204195
   28       -7.204195
   29       -7.185805
   30       -7.185803
   31       -6.805414
   32       -6.805413
   33       -6.803248
   34       -6.803246
   35       -6.794525
   36       -6.794524
   37       -6.749392
   38       -6.749390
   39       -6.649401
   40       -6.649400
   41       -6.608181
   42       -6.608180
   43       -6.566634
   44       -6.566633
   45       -6.566280
   46       -6.566279
   47       -6.475146
   48       -6.475146
   49       -6.466595
   50       -6.466593
   51       -6.442473
   52       -6.442472
   53       -6.433124
   54       -6.433123
   55       -6.423385
   56       -6.423384
   57       -6.392890
   58       -6.392888
   59       -6.380859
   60       -6.380856
   61       -6.368765
   62       -6.368764
   63       -6.340295
   64       -6.340294
   65        1.760709
   66        1.760710
   67        3.230053
   68        3.230056
   69        3.238429
   70        3.238429
   71        3.462110
   72        3.462111
   73        3.475018
   74        3.475019
   75        3.679089
   76        3.679089
   77        4.010952
   78        4.010952
   79        4.190876
   80        4.190877
   81        4.351388
   82        4.351390
   83        4.612513
   84        4.612514
   85        4.946986
   86        4.946988
   87        5.043892
   88        5.043892
   89        5.156837
   90        5.156839
   91        5.211991
   92        5.211991
   93        5.215323
   94        5.215323
   95        5.558758
   96        5.558758
   97        5.613192
   98        5.613193
   99        6.003858
  100        6.003859
  101        6.077729
  102        6.077730
  103        6.435685
  104        6.435687
  105        6.496884
  106        6.496886
 
  0.0000000E+00  0.2500000E+00  0.0000000E+00  0.3125000E-01
    1      -14.726584
    2      -14.523310
    3      -14.513359
    4      -14.458748
    5      -14.439274
    6      -14.415855
    7      -14.370924
    8      -14.362837
    9      -14.361176
   10      -14.324892
   11      -14.307555
   12      -14.288905
   13      -14.240857
   14      -14.231085
   15      -14.226902
   16      -14.208554
   17       -7.536535
   18       -7.521079
   19       -7.441622
   20       -7.422631
   21       -7.415238
   22       -7.408191
   23       -7.399114
   24       -7.204915
   25       -7.146867
   26       -7.104046
   27       -7.091395
   28       -7.081167
   29       -6.991445
   30       -6.972025
   31       -6.965573
   32       -6.914010
   33       -6.903683
   34       -6.857073
   35       -6.816178
   36       -6.812385
   37       -6.795081
   38       -6.794300
   39       -6.730899
   40       -6.675144
   41       -6.666657
   42       -6.654777
   43       -6.637334
   44       -6.597952
   45       -6.556686
   46       -6.540851
   47       -6.521632
   48       -6.518170
   49       -6.485464
   50       -6.469273
   51       -6.466168
   52       -6.461290
   53       -6.435027
   54       -6.431989
   55       -6.423387
   56       -6.415087
   57       -6.398685
   58       -6.395757
   59       -6.386817
   60       -6.375374
   61       -6.361178
   62       -6.360863
   63       -6.317388
   64       -6.272440
   65        1.568888
   66        2.821990
   67        2.859610
   68        2.861671
   69        3.148096
   70        3.172037
   71        3.307872
   72        3.495566
   73        3.698906
   74        3.712141
   75        3.799415
   76        3.810651
   77        3.827926
   78        4.028689
   79        4.233229
   80        4.266953
   81        4.293016
   82        4.323167
   83        4.408827
   84        4.625102
   85        4.776528
   86        4.935659
   87        4.992589
   88        5.049886
   89        5.098812
   90        5.121405
   91        5.177093
   92        5.179633
   93        5.496904
   94        5.537167
   95        5.562667
   96        5.621681
   97        5.741717
   98        5.832172
   99        5.834377
  100        5.921596
  101        6.048827
  102        6.133332
  103        6.144118
  104        6.241410
  105        6.299941
  106        6.310797
 
  0.2500000E+00  0.2500000E+00  0.0000000E+00  0.6250000E-01
    1      -14.709609
    2      -14.588014
    3      -14.505448
    4      -14.454800
    5      -14.411364
    6      -14.391925
    7      -14.368547
    8      -14.362832
    9      -14.357026
   10      -14.344804
   11      -14.297435
   12      -14.273653
   13      -14.254515
   14      -14.235683
   15      -14.228468
   16      -14.216698
   17       -7.521028
   18       -7.512209
   19       -7.482264
   20       -7.455782
   21       -7.369358
   22       -7.347962
   23       -7.309703
   24       -7.270218
   25       -7.244027
   26       -7.150922
   27       -7.147869
   28       -7.075436
   29       -7.035090
   30       -7.010080
   31       -6.916999
   32       -6.890156
   33       -6.879909
   34       -6.805695
   35       -6.803767
   36       -6.782541
   37       -6.769051
   38       -6.757074
   39       -6.707980
   40       -6.689843
   41       -6.665370
   42       -6.653080
   43       -6.614889
   44       -6.596317
   45       -6.572443
   46       -6.553993
   47       -6.529849
   48       -6.507501
   49       -6.505322
   50       -6.472877
   51       -6.461680
   52       -6.460860
   53       -6.444820
   54       -6.440286
   55       -6.439300
   56       -6.414328
   57       -6.407726
   58       -6.397061
   59       -6.395677
   60       -6.383024
   61       -6.377409
   62       -6.337129
   63       -6.317508
   64       -6.267535
   65        1.665209
   66        2.353282
   67        2.876334
   68        3.051434
   69        3.217241
   70        3.302929
   71        3.372725
   72        3.508807
   73        3.648527
   74        3.687758
   75        3.786904
   76        3.837004
   77        3.951337
   78        4.059920
   79        4.192925
   80        4.244060
   81        4.279329
   82        4.323259
   83        4.338580
   84        4.714917
   85        4.739862
   86        4.904487
   87        4.957993
   88        5.031578
   89        5.064850
   90        5.097472
   91        5.218473
   92        5.288429
   93        5.377559
   94        5.466048
   95        5.474688
   96        5.630385
   97        5.698991
   98        5.757468
   99        5.848870
  100        5.867800
  101        6.015003
  102        6.067415
  103        6.127751
  104        6.206870
  105        6.320602
  106        6.477770
 
  0.5000000E+00  0.2500000E+00  0.0000000E+00  0.3125000E-01
    1      -14.660985
    2      -14.660984
    3      -14.483592
    4      -14.483592
    5      -14.390142
    6      -14.390140
    7      -14.366840
    8      -14.366839
    9      -14.317034
   10      -14.317032
   11      -14.309686
   12      -14.309685
   13      -14.239840
   14      -14.239838
   15      -14.232306
   16      -14.232303
   17       -7.513205
   18       -7.513204
   19       -7.462487
   20       -7.462487
   21       -7.326127
   22       -7.326126
   23       -7.284231
   24       -7.284230
   25       -7.227033
   26       -7.227032
   27       -7.167179
   28       -7.167179
   29       -7.079100
   30       -7.079099
   31       -6.846730
   32       -6.846729
   33       -6.833006
   34       -6.833005
   35       -6.772690
   36       -6.772690
   37       -6.732299
   38       -6.732299
   39       -6.663027
   40       -6.663026
   41       -6.639771
   42       -6.639770
   43       -6.631032
   44       -6.631031
   45       -6.571300
   46       -6.571300
   47       -6.546966
   48       -6.546966
   49       -6.482889
   50       -6.482888
   51       -6.470033
   52       -6.470031
   53       -6.458080
   54       -6.458078
   55       -6.443941
   56       -6.443940
   57       -6.396136
   58       -6.396133
   59       -6.389361
   60       -6.389360
   61       -6.350627
   62       -6.350626
   63       -6.288446
   64       -6.288446
   65        1.940027
   66        1.940028
   67        2.936406
   68        2.936407
   69        3.344633
   70        3.344636
   71        3.496630
   72        3.496630
   73        3.652040
   74        3.652041
   75        3.845808
   76        3.845809
   77        4.096743
   78        4.096744
   79        4.145597
   80        4.145598
   81        4.230735
   82        4.230737
   83        4.523833
   84        4.523833
   85        4.901411
   86        4.901411
   87        4.907364
   88        4.907365
   89        5.161965
   90        5.161966
   91        5.215457
   92        5.215457
   93        5.301384
   94        5.301384
   95        5.546239
   96        5.546239
   97        5.652213
   98        5.652214
   99        5.905248
  100        5.905248
  101        5.962509
  102        5.962509
  103        6.211402
  104        6.211402
  105        6.540821
  106        6.556361
 
  0.0000000E+00  0.5000000E+00  0.0000000E+00  0.1562500E-01
    1      -14.635081
    2      -14.635081
    3      -14.481249
    4      -14.481249
    5      -14.411536
    6      -14.411536
    7      -14.388587
    8      -14.388587
    9      -14.333960
   10      -14.333960
   11      -14.283437
   12      -14.283437
   13      -14.246229
   14      -14.246229
   15      -14.223979
   16      -14.223979
   17       -7.559039
   18       -7.559039
   19       -7.331527
   20       -7.331527
   21       -7.322012
   22       -7.322012
   23       -7.268981
   24       -7.268981
   25       -7.188211
   26       -7.188211
   27       -7.170186
   28       -7.170186
   29       -6.971505
   30       -6.971505
   31       -6.935300
   32       -6.935300
   33       -6.793482
   34       -6.793482
   35       -6.746628
   36       -6.746628
   37       -6.742527
   38       -6.742527
   39       -6.723294
   40       -6.723294
   41       -6.716766
   42       -6.716766
   43       -6.671169
   44       -6.671169
   45       -6.585886
   46       -6.585886
   47       -6.570262
   48       -6.570262
   49       -6.501220
   50       -6.501220
   51       -6.462450
   52       -6.462450
   53       -6.445053
   54       -6.445053
   55       -6.434122
   56       -6.434122
   57       -6.404005
   58       -6.404005
   59       -6.378144
   60       -6.378144
   61       -6.354795
   62       -6.354795
   63       -6.327577
   64       -6.327577
   65        2.126760
   66        2.126760
   67        3.085390
   68        3.085390
   69        3.179729
   70        3.179729
   71        3.490080
   72        3.490080
   73        3.530462
   74        3.530462
   75        3.925183
   76        3.925183
   77        4.074330
   78        4.074330
   79        4.225057
   80        4.225057
   81        4.297267
   82        4.297267
   83        4.601202
   84        4.601202
   85        4.733099
   86        4.733099
   87        4.875800
   88        4.875800
   89        4.930112
   90        4.930112
   91        5.351463
   92        5.351463
   93        5.431915
   94        5.431915
   95        5.482871
   96        5.482871
   97        5.813586
   98        5.813586
   99        5.906246
  100        5.906246
  101        5.916085
  102        5.916085
  103        6.043571
  104        6.043571
  105        6.257738
  106        6.257739
 
  0.2500000E+00  0.5000000E+00  0.0000000E+00  0.3125000E-01
    1      -14.621449
    2      -14.621449
    3      -14.526003
    4      -14.526003
    5      -14.386940
    6      -14.386940
    7      -14.361584
    8      -14.361584
    9      -14.348104
   10      -14.348104
   11      -14.270210
   12      -14.270210
   13      -14.259898
   14      -14.259898
   15      -14.229855
   16      -14.229855
   17       -7.539891
   18       -7.539891
   19       -7.413878
   20       -7.413878
   21       -7.288075
   22       -7.288075
   23       -7.273638
   24       -7.273638
   25       -7.214441
   26       -7.214441
   27       -7.061030
   28       -7.061030
   29       -7.003808
   30       -7.003808
   31       -6.909725
   32       -6.909725
   33       -6.797342
   34       -6.797342
   35       -6.776052
   36       -6.776052
   37       -6.762588
   38       -6.762588
   39       -6.713864
   40       -6.713864
   41       -6.707665
   42       -6.707665
   43       -6.644361
   44       -6.644361
   45       -6.627374
   46       -6.627374
   47       -6.568303
   48       -6.568303
   49       -6.500958
   50       -6.500958
   51       -6.487194
   52       -6.487194
   53       -6.443339
   54       -6.443339
   55       -6.435480
   56       -6.435480
   57       -6.411368
   58       -6.411368
   59       -6.402887
   60       -6.402887
   61       -6.320168
   62       -6.320168
   63       -6.300449
   64       -6.300449
   65        2.195685
   66        2.195685
   67        2.718533
   68        2.718533
   69        3.507719
   70        3.507719
   71        3.533892
   72        3.533892
   73        3.583065
   74        3.583065
   75        3.972370
   76        3.972370
   77        4.067918
   78        4.067918
   79        4.189999
   80        4.189999
   81        4.267990
   82        4.267990
   83        4.446905
   84        4.446905
   85        4.672652
   86        4.672652
   87        4.834507
   88        4.834507
   89        5.188544
   90        5.188544
   91        5.333899
   92        5.333899
   93        5.382345
   94        5.382345
   95        5.550239
   96        5.550239
   97        5.718960
   98        5.718960
   99        5.818384
  100        5.818384
  101        5.899645
  102        5.899645
  103        5.930844
  104        5.930844
  105        6.320934
  106        6.320961
 
  0.5000000E+00  0.5000000E+00  0.0000000E+00  0.1562500E-01
    1      -14.582678
    2      -14.582678
    3      -14.582677
    4      -14.582677
    5      -14.370058
    6      -14.370058
    7      -14.370058
    8      -14.370057
    9      -14.303190
   10      -14.303190
   11      -14.303189
   12      -14.303189
   13      -14.246102
   14      -14.246102
   15      -14.246100
   16      -14.246100
   17       -7.487653
   18       -7.487653
   19       -7.487652
   20       -7.487652
   21       -7.301040
   22       -7.301040
   23       -7.301040
   24       -7.301040
   25       -7.112066
   26       -7.112066
   27       -7.112065
   28       -7.112065
   29       -6.922516
   30       -6.922516
   31       -6.922515
   32       -6.922515
   33       -6.787282
   34       -6.787282
   35       -6.787281
   36       -6.787281
   37       -6.772515
   38       -6.772515
   39       -6.772514
   40       -6.772514
   41       -6.691038
   42       -6.691038
   43       -6.691038
   44       -6.691038
   45       -6.552996
   46       -6.552996
   47       -6.552996
   48       -6.552996
   49       -6.532726
   50       -6.532726
   51       -6.532726
   52       -6.532726
   53       -6.439194
   54       -6.439194
   55       -6.439192
   56       -6.439192
   57       -6.413012
   58       -6.413012
   59       -6.413011
   60       -6.413011
   61       -6.289793
   62       -6.289793
   63       -6.289793
   64       -6.289793
   65        2.398024
   66        2.398024
   67        2.398026
   68        2.398026
   69        3.533126
   70        3.533126
   71        3.533127
   72        3.533127
   73        3.937926
   74        3.937926
   75        3.937926
   76        3.937926
   77        4.130472
   78        4.130472
   79        4.130472
   80        4.130472
   81        4.222607
   82        4.222607
   83        4.222608
   84        4.222608
   85        4.740717
   86        4.740717
   87        4.740717
   88        4.740717
   89        5.318658
   90        5.318658
   91        5.318659
   92        5.318659
   93        5.508983
   94        5.508983
   95        5.508983
   96        5.508983
   97        5.691981
   98        5.691981
   99        5.691982
  100        5.691982
  101        5.841485
  102        5.841485
  103        5.841486
  104        5.841486
  105        6.410397
  106        6.410397
 
  0.0000000E+00  0.0000000E+00  0.2500000E+00  0.3125000E-01
    1      -14.725849
    2      -14.517241
    3      -14.515057
    4      -14.458691
    5      -14.403999
    6      -14.399458
    7      -14.397107
    8      -14.362472
    9      -14.346534
   10      -14.331836
   11      -14.325273
   12      -14.310427
   13      -14.241448
   14      -14.240927
   15      -14.223363
   16      -14.205230
   17       -7.470352
   18       -7.455366
   19       -7.402208
   20       -7.396114
   21       -7.384455
   22       -7.375895
   23       -7.353520
   24       -7.277129
   25       -7.148626
   26       -7.142605
   27       -7.112163
   28       -7.104313
   29       -7.053101
   30       -7.030618
   31       -6.994958
   32       -6.931614
   33       -6.895779
   34       -6.880258
   35       -6.874249
   36       -6.755222
   37       -6.738325
   38       -6.704316
   39       -6.682854
   40       -6.681799
   41       -6.676435
   42       -6.629903
   43       -6.628066
   44       -6.600817
   45       -6.569278
   46       -6.550583
   47       -6.523201
   48       -6.521678
   49       -6.500555
   50       -6.497273
   51       -6.492184
   52       -6.491480
   53       -6.473411
   54       -6.455033
   55       -6.427907
   56       -6.417854
   57       -6.417002
   58       -6.415436
   59       -6.396839
   60       -6.384863
   61       -6.377460
   62       -6.330914
   63       -6.283684
   64       -6.281543
   65        1.576366
   66        2.818297
   67        2.866353
   68        2.954391
   69        3.160922
   70        3.235467
   71        3.339907
   72        3.498304
   73        3.501447
   74        3.707091
   75        3.775398
   76        3.878629
   77        4.026669
   78        4.201409
   79        4.236572
   80        4.399499
   81        4.402819
   82        4.536709
   83        4.599211
   84        4.682464
   85        4.693474
   86        4.710431
   87        4.915837
   88        5.070054
   89        5.088615
   90        5.123230
   91        5.157324
   92        5.235646
   93        5.294622
   94        5.306981
   95        5.315193
   96        5.463030
   97        5.498956
   98        5.777269
   99        6.050914
  100        6.114807
  101        6.292998
  102        6.308739
  103        6.329524
  104        6.353036
  105        6.385625
  106        6.405726
 
  0.2500000E+00  0.0000000E+00  0.2500000E+00  0.6250000E-01
    1      -14.708675
    2      -14.584990
    3      -14.504302
    4      -14.430348
    5      -14.406581
    6      -14.400356
    7      -14.384270
    8      -14.354880
    9      -14.347697
   10      -14.326447
   11      -14.325163
   12      -14.288738
   13      -14.249933
   14      -14.240884
   15      -14.235304
   16      -14.216358
   17       -7.449005
   18       -7.443645
   19       -7.439741
   20       -7.387530
   21       -7.364872
   22       -7.342194
   23       -7.293341
   24       -7.287180
   25       -7.171831
   26       -7.166664
   27       -7.165251
   28       -7.160753
   29       -7.129959
   30       -7.105009
   31       -6.952182
   32       -6.882308
   33       -6.857517
   34       -6.844964
   35       -6.779574
   36       -6.779507
   37       -6.745545
   38       -6.706145
   39       -6.685835
   40       -6.680550
   41       -6.677957
   42       -6.642615
   43       -6.603108
   44       -6.599274
   45       -6.567904
   46       -6.545527
   47       -6.527259
   48       -6.526352
   49       -6.515007
   50       -6.498445
   51       -6.483426
   52       -6.479713
   53       -6.471895
   54       -6.459872
   55       -6.447307
   56       -6.425566
   57       -6.408088
   58       -6.407850
   59       -6.393650
   60       -6.374803
   61       -6.373078
   62       -6.345195
   63       -6.298754
   64       -6.295546
   65        1.674092
   66        2.363919
   67        2.969854
   68        3.116037
   69        3.250988
   70        3.287083
   71        3.359014
   72        3.476883
   73        3.616996
   74        3.653904
   75        3.745306
   76        3.881420
   77        4.021764
   78        4.242851
   79        4.284315
   80        4.309940
   81        4.429204
   82        4.430583
   83        4.562591
   84        4.694494
   85        4.695114
   86        4.758748
   87        4.856968
   88        4.994161
   89        5.071877
   90        5.221440
   91        5.232264
   92        5.280048
   93        5.280885
   94        5.325661
   95        5.334172
   96        5.438286
   97        5.483571
   98        5.612655
   99        6.052889
  100        6.123813
  101        6.165785
  102        6.203533
  103        6.319558
  104        6.376928
  105        6.387712
  106        6.397434
 
  0.5000000E+00  0.0000000E+00  0.2500000E+00  0.3125000E-01
    1      -14.659342
    2      -14.659340
    3      -14.473940
    4      -14.473938
    5      -14.402626
    6      -14.402626
    7      -14.350618
    8      -14.350618
    9      -14.325120
   10      -14.325118
   11      -14.304196
   12      -14.304195
   13      -14.247264
   14      -14.247263
   15      -14.239370
   16      -14.239368
   17       -7.456235
   18       -7.456235
   19       -7.359240
   20       -7.359238
   21       -7.345911
   22       -7.345910
   23       -7.275461
   24       -7.275460
   25       -7.232823
   26       -7.232823
   27       -7.181886
   28       -7.181885
   29       -7.161588
   30       -7.161588
   31       -6.893415
   32       -6.893415
   33       -6.846859
   34       -6.846858
   35       -6.734725
   36       -6.734725
   37       -6.728693
   38       -6.728692
   39       -6.656230
   40       -6.656230
   41       -6.655252
   42       -6.655252
   43       -6.616275
   44       -6.616274
   45       -6.585327
   46       -6.585327
   47       -6.521402
   48       -6.521401
   49       -6.485889
   50       -6.485889
   51       -6.475724
   52       -6.475724
   53       -6.465650
   54       -6.465649
   55       -6.451910
   56       -6.451909
   57       -6.420737
   58       -6.420736
   59       -6.379512
   60       -6.379511
   61       -6.333035
   62       -6.333034
   63       -6.331084
   64       -6.331084
   65        1.951503
   66        1.951504
   67        3.021643
   68        3.021644
   69        3.407976
   70        3.407976
   71        3.414413
   72        3.414416
   73        3.608253
   74        3.608254
   75        3.869138
   76        3.869139
   77        4.050754
   78        4.050755
   79        4.336925
   80        4.336927
   81        4.476771
   82        4.476772
   83        4.544828
   84        4.544828
   85        4.705093
   86        4.705095
   87        4.941118
   88        4.941118
   89        5.164518
   90        5.164518
   91        5.215245
   92        5.215246
   93        5.245596
   94        5.245596
   95        5.487844
   96        5.487846
   97        5.572007
   98        5.572008
   99        5.896673
  100        5.896673
  101        6.167919
  102        6.167919
  103        6.390836
  104        6.390892
  105        6.440498
  106        6.450157
 
  0.0000000E+00  0.2500000E+00  0.2500000E+00  0.6250000E-01
    1      -14.693420
    2      -14.503228
    3      -14.493774
    4      -14.487256
    5      -14.439842
    6      -14.416217
    7      -14.394550
    8      -14.347566
    9      -14.345545
   10      -14.345241
   11      -14.343740
   12      -14.277375
   13      -14.259308
   14      -14.229546
   15      -14.225515
   16      -14.210082
   17       -7.449692
   18       -7.431805
   19       -7.397814
   20       -7.366949
   21       -7.353005
   22       -7.348206
   23       -7.331009
   24       -7.144164
   25       -7.123435
   26       -7.120123
   27       -7.101066
   28       -7.064310
   29       -7.028676
   30       -7.015911
   31       -7.005478
   32       -6.988274
   33       -6.963561
   34       -6.912716
   35       -6.860377
   36       -6.805798
   37       -6.759724
   38       -6.699192
   39       -6.693613
   40       -6.675642
   41       -6.640447
   42       -6.632579
   43       -6.625394
   44       -6.624023
   45       -6.605603