   80   80  200    1
  0.9808713E+01  0.1170790E-08  0.8189300E-09  0.8184200E-09  0.5000000E-15
  1.000000000000000E-004
  CAR 
 diamond                                 
    128     27    106
 
  0.0000000E+00  0.0000000E+00  0.0000000E+00  0.1562500E-01
    1      -14.774276
    2      -14.542667
    3      -14.502070
    4      -14.480011
    5      -14.403885
    6      -14.397149
    7      -14.356026
    8      -14.346012
    9      -14.342499
   10      -14.304667
   11      -14.303293
   12      -14.302914
   13      -14.228633
   14      -14.223606
   15      -14.170824
   16      -14.095488
   17       -7.531510
   18       -7.523199
   19       -7.502890
   20       -7.484202
   21       -7.392832
   22       -7.322099
   23       -7.309491
   24       -7.166523
   25       -7.137042
   26       -7.133324
   27       -7.106927
   28       -7.100304
   29       -7.084010
   30       -7.043623
   31       -6.967352
   32       -6.923808
   33       -6.867099
   34       -6.866965
   35       -6.816556
   36       -6.807396
   37       -6.765167
   38       -6.741302
   39       -6.733569
   40       -6.699384
   41       -6.603552
   42       -6.599324
   43       -6.592831
   44       -6.589991
   45       -6.582434
   46       -6.573620
   47       -6.535942
   48       -6.517534
   49       -6.512760
   50       -6.470985
   51       -6.423052
   52       -6.420643
   53       -6.405005
   54       -6.398316
   55       -6.394605
   56       -6.371976
   57       -6.371018
   58       -6.355761
   59       -6.296819
   60       -6.296361
   61       -6.273238
   62       -6.230387
   63       -6.218058
   64       -6.142455
   65        1.330059
   66        2.578720
   67        2.667281
   68        3.139851
   69        3.237565
   70        3.300484
   71        3.315158
   72        3.330282
   73        3.700130
   74        3.805057
   75        3.851679
   76        3.860408
   77        3.873788
   78        3.875465
   79        3.878544
   80        3.942344
   81        3.961290
   82        4.358653
   83        4.567660
   84        4.866203
   85        4.899827
   86        5.024245
   87        5.026539
   88        5.139186
   89        5.171560
   90        5.217307
   91        5.291383
   92        5.493064
   93        5.547079
   94        5.611655
   95        5.745194
   96        5.761683
   97        5.780848
   98        5.790067
   99        5.980726
  100        6.077378
  101        6.187747
  102        6.190322
  103        6.409829
  104        6.463412
  105        6.542333
  106        6.614601
 
  0.2500000E+00  0.0000000E+00  0.0000000E+00  0.3125000E-01
    1      -14.753823
    2      -14.603619
    3      -14.527088
    4      -14.414994
    5      -14.402913
    6      -14.398129
    7      -14.373165
    8      -14.349351
    9      -14.343706
   10      -14.303247
   11      -14.302982
   12      -14.238595
   13      -14.227842
   14      -14.224557
   15      -14.196577
   16      -14.113709
   17       -7.535870
   18       -7.484680
   19       -7.469716
   20       -7.467837
   21       -7.437675
   22       -7.308689
   23       -7.221358
   24       -7.203712
   25       -7.184443
   26       -7.168922
   27       -7.114460
   28       -7.114354
   29       -7.104564
   30       -7.066961
   31       -7.008411
   32       -7.007415
   33       -6.848637
   34       -6.835858
   35       -6.835314
   36       -6.820901
   37       -6.765256
   38       -6.734810
   39       -6.722836
   40       -6.636571
   41       -6.612205
   42       -6.611048
   43       -6.596962
   44       -6.595655
   45       -6.541731
   46       -6.533332
   47       -6.522437
   48       -6.480804
   49       -6.429182
   50       -6.426171
   51       -6.424117
   52       -6.422014
   53       -6.406192
   54       -6.406189
   55       -6.391161
   56       -6.372697
   57       -6.368330
   58       -6.340926
   59       -6.335291
   60       -6.309716
   61       -6.276466
   62       -6.268197
   63       -6.242565
   64       -6.191268
   65        1.429290
   66        2.128746
   67        3.106945
   68        3.127575
   69        3.231086
   70        3.249607
   71        3.314531
   72        3.362857
   73        3.657794
   74        3.701072
   75        3.794749
   76        3.818154
   77        3.908590
   78        3.910138
   79        3.963930
   80        4.008076
   81        4.054070
   82        4.193014
   83        4.751555
   84        4.940622
   85        4.987036
   86        5.047183
   87        5.068759
   88        5.191750
   89        5.232710
   90        5.263120
   91        5.284247
   92        5.305798
   93        5.335826
   94        5.485920
   95        5.619304
   96        5.651748
   97        5.676879
   98        5.763211
   99        6.067529
  100        6.168655
  101        6.232367
  102        6.308282
  103        6.337135
  104        6.520291
  105        6.575832
  106        6.586903
 
  0.5000000E+00  0.0000000E+00  0.0000000E+00  0.1562500E-01
    1      -14.694643
    2      -14.694642
    3      -14.482365
    4      -14.482364
    5      -14.400519
    6      -14.400518
    7      -14.346571
    8      -14.346568
    9      -14.303110
   10      -14.303109
   11      -14.269364
   12      -14.269362
   13      -14.225857
   14      -14.225854
   15      -14.164782
   16      -14.164780
   17       -7.524291
   18       -7.524291
   19       -7.375713
   20       -7.375711
   21       -7.373677
   22       -7.373677
   23       -7.304815
   24       -7.304813
   25       -7.226309
   26       -7.226308
   27       -7.069880
   28       -7.069878
   29       -7.050954
   30       -7.050954
   31       -6.972576
   32       -6.972575
   33       -6.950764
   34       -6.950763
   35       -6.895763
   36       -6.895763
   37       -6.702100
   38       -6.702099
   39       -6.695261
   40       -6.695260
   41       -6.579762
   42       -6.579760
   43       -6.527481
   44       -6.527481
   45       -6.511403
   46       -6.511403
   47       -6.482410
   48       -6.482409
   49       -6.441809
   50       -6.441808
   51       -6.397585
   52       -6.397583
   53       -6.379157
   54       -6.379156
   55       -6.377921
   56       -6.377919
   57       -6.345469
   58       -6.345469
   59       -6.308219
   60       -6.308218
   61       -6.308168
   62       -6.308168
   63       -6.300590
   64       -6.300589
   65        1.710506
   66        1.710507
   67        3.144718
   68        3.144721
   69        3.280209
   70        3.280209
   71        3.475053
   72        3.475054
   73        3.501214
   74        3.501215
   75        3.794533
   76        3.794535
   77        3.977566
   78        3.977568
   79        4.014615
   80        4.014616
   81        4.088965
   82        4.088966
   83        4.998057
   84        4.998057
   85        5.097484
   86        5.097486
   87        5.152840
   88        5.152840
   89        5.238919
   90        5.238920
   91        5.239838
   92        5.239840
   93        5.366489
   94        5.366490
   95        5.505004
   96        5.505004
   97        5.508060
   98        5.508060
   99        6.162916
  100        6.162917
  101        6.383088
  102        6.383090
  103        6.560570
  104        6.560572
  105        6.570521
  106        6.570522
 
  0.0000000E+00  0.2500000E+00  0.0000000E+00  0.3125000E-01
    1      -14.739521
    2      -14.518086
    3      -14.514192
    4      -14.487177
    5      -14.460627
    6      -14.412987
    7      -14.365025
    8      -14.363422
    9      -14.328677
   10      -14.310966
   11      -14.303937
   12      -14.266698
   13      -14.242154
   14      -14.182854
   15      -14.178129
   16      -14.104893
   17       -7.549356
   18       -7.439873
   19       -7.436197
   20       -7.434484
   21       -7.430884
   22       -7.345998
   23       -7.289746
   24       -7.137434
   25       -7.119198
   26       -7.095367
   27       -7.087446
   28       -7.086328
   29       -7.020186
   30       -7.007000
   31       -6.991865
   32       -6.986041
   33       -6.973269
   34       -6.915571
   35       -6.818114
   36       -6.780787
   37       -6.777826
   38       -6.767744
   39       -6.764851
   40       -6.760035
   41       -6.682998
   42       -6.629317
   43       -6.586046
   44       -6.569305
   45       -6.546715
   46       -6.513673
   47       -6.488946
   48       -6.472840
   49       -6.466761
   50       -6.463969
   51       -6.430407
   52       -6.423153
   53       -6.423020
   54       -6.393021
   55       -6.390737
   56       -6.389598
   57       -6.370662
   58       -6.363865
   59       -6.332660
   60       -6.308373
   61       -6.294660
   62       -6.273924
   63       -6.237770
   64       -6.173636
   65        1.534946
   66        2.729222
   67        2.805833
   68        2.806217
   69        3.216548
   70        3.273408
   71        3.301575
   72        3.391930
   73        3.567147
   74        3.597818
   75        3.764407
   76        3.836406
   77        3.901768
   78        3.907247
   79        3.936080
   80        4.177080
   81        4.212217
   82        4.383121
   83        4.675589
   84        4.737461
   85        4.864654
   86        4.993140
   87        5.008266
   88        5.141947
   89        5.145098
   90        5.273691
   91        5.284258
   92        5.309811
   93        5.343494
   94        5.605349
   95        5.684439
   96        5.715602
   97        5.798213
   98        5.854147
   99        5.975706
  100        6.040333
  101        6.050714
  102        6.198550
  103        6.215945
  104        6.330827
  105        6.376645
  106        6.499608
 
  0.2500000E+00  0.2500000E+00  0.0000000E+00  0.6250000E-01
    1      -14.720228
    2      -14.579364
    3      -14.504892
    4      -14.503507
    5      -14.440883
    6      -14.397280
    7      -14.364915
    8      -14.357955
    9      -14.336389
   10      -14.318264
   11      -14.278261
   12      -14.237052
   13      -14.228152
   14      -14.201776
   15      -14.188819
   16      -14.121657
   17       -7.537634
   18       -7.461610
   19       -7.428836
   20       -7.419903
   21       -7.402769
   22       -7.344000
   23       -7.248822
   24       -7.210431
   25       -7.181918
   26       -7.160296
   27       -7.089727
   28       -7.085606
   29       -7.037626
   30       -6.996286
   31       -6.963622
   32       -6.950147
   33       -6.923319
   34       -6.899828
   35       -6.843310
   36       -6.794111
   37       -6.788211
   38       -6.787356
   39       -6.748504
   40       -6.699108
   41       -6.638970
   42       -6.608192
   43       -6.584930
   44       -6.584549
   45       -6.558868
   46       -6.533491
   47       -6.515614
   48       -6.479173
   49       -6.477966
   50       -6.444443
   51       -6.444225
   52       -6.437985
   53       -6.415577
   54       -6.407488
   55       -6.379309
   56       -6.363526
   57       -6.361714
   58       -6.352908
   59       -6.320853
   60       -6.312421
   61       -6.311593
   62       -6.288949
   63       -6.232827
   64       -6.183108
   65        1.625991
   66        2.283965
   67        2.832893
   68        3.080175
   69        3.256166
   70        3.259571
   71        3.326464
   72        3.364817
   73        3.669527
   74        3.677978
   75        3.772319
   76        3.860446
   77        3.862665
   78        3.929996
   79        3.954814
   80        4.157443
   81        4.196589
   82        4.263599
   83        4.758424
   84        4.862684
   85        4.887117
   86        4.957555
   87        5.010497
   88        5.100388
   89        5.100846
   90        5.168220
   91        5.321862
   92        5.340965
   93        5.393396
   94        5.398638
   95        5.592743
   96        5.675940
   97        5.685033
   98        5.898633
   99        5.963574
  100        6.078877
  101        6.091380
  102        6.197372
  103        6.217313
  104        6.350294
  105        6.388982
  106        6.493795
 
  0.5000000E+00  0.2500000E+00  0.0000000E+00  0.3125000E-01
    1      -14.664605
    2      -14.664603
    3      -14.479212
    4      -14.479211
    5      -14.460549
    6      -14.460547
    7      -14.341622
    8      -14.341621
    9      -14.301392
   10      -14.301390
   11      -14.268131
   12      -14.268130
   13      -14.205415
   14      -14.205413
   15      -14.168812
   16      -14.168811
   17       -7.498980
   18       -7.498979
   19       -7.428796
   20       -7.428796
   21       -7.310048
   22       -7.310047
   23       -7.290240
   24       -7.290239
   25       -7.201432
   26       -7.201431
   27       -7.046425
   28       -7.046424
   29       -7.034208
   30       -7.034206
   31       -7.007479
   32       -7.007479
   33       -6.895637
   34       -6.895637
   35       -6.819361
   36       -6.819361
   37       -6.719664
   38       -6.719664
   39       -6.712662
   40       -6.712661
   41       -6.627988
   42       -6.627987
   43       -6.608563
   44       -6.608563
   45       -6.520250
   46       -6.520248
   47       -6.501854
   48       -6.501854
   49       -6.475116
   50       -6.475114
   51       -6.451922
   52       -6.451921
   53       -6.430811
   54       -6.430810
   55       -6.370581
   56       -6.370580
   57       -6.362484
   58       -6.362482
   59       -6.314518
   60       -6.314518
   61       -6.260200
   62       -6.260199
   63       -6.231782
   64       -6.231782
   65        1.887002
   66        1.887004
   67        2.921906
   68        2.921907
   69        3.264617
   70        3.264619
   71        3.492630
   72        3.492630
   73        3.671498
   74        3.671499
   75        3.857144
   76        3.857146
   77        3.920830
   78        3.920831
   79        3.985109
   80        3.985109
   81        4.241320
   82        4.241321
   83        4.823793
   84        4.823794
   85        4.935923
   86        4.935924
   87        5.053294
   88        5.053294
   89        5.145682
   90        5.145682
   91        5.258483
   92        5.258485
   93        5.421918
   94        5.421918
   95        5.499781
   96        5.499782
   97        5.738056
   98        5.738057
   99        6.015916
  100        6.015916
  101        6.197122
  102        6.197122
  103        6.296514
  104        6.296514
  105        6.378931
  106        6.378931
 
  0.0000000E+00  0.5000000E+00  0.0000000E+00  0.1562500E-01
    1      -14.644294
    2      -14.644294
    3      -14.452268
    4      -14.452268
    5      -14.450218
    6      -14.450218
    7      -14.412795
    8      -14.412795
    9      -14.306570
   10      -14.306570
   11      -14.286018
   12      -14.286018
   13      -14.206278
   14      -14.206278
   15      -14.133888
   16      -14.133888
   17       -7.535417
   18       -7.535417
   19       -7.297766
   20       -7.297766
   21       -7.262032
   22       -7.262032
   23       -7.261271
   24       -7.261271
   25       -7.219677
   26       -7.219677
   27       -7.144364
   28       -7.144364
   29       -6.972874
   30       -6.972874
   31       -6.927076
   32       -6.927076
   33       -6.900579
   34       -6.900579
   35       -6.866587
   36       -6.866587
   37       -6.812843
   38       -6.812843
   39       -6.776146
   40       -6.776146
   41       -6.650459
   42       -6.650459
   43       -6.562375
   44       -6.562375
   45       -6.560113
   46       -6.560113
   47       -6.524556
   48       -6.524556
   49       -6.441745
   50       -6.441745
   51       -6.404465
   52       -6.404465
   53       -6.393191
   54       -6.393191
   55       -6.370110
   56       -6.370110
   57       -6.359642
   58       -6.359642
   59       -6.348339
   60       -6.348339
   61       -6.284374
   62       -6.284374
   63       -6.263897
   64       -6.263897
   65        2.082596
   66        2.082596
   67        3.045436
   68        3.045436
   69        3.154149
   70        3.154149
   71        3.347132
   72        3.347132
   73        3.556034
   74        3.556034
   75        3.663007
   76        3.663007
   77        3.897789
   78        3.897789
   79        4.255751
   80        4.255751
   81        4.498208
   82        4.498208
   83        4.640248
   84        4.640248
   85        4.710884
   86        4.710884
   87        4.907664
   88        4.907664
   89        5.348253
   90        5.348253
   91        5.407729
   92        5.407729
   93        5.506644
   94        5.506644
   95        5.688812
   96        5.688812
   97        5.840226
   98        5.840226
   99        5.845547
  100        5.845547
  101        5.945887
  102        5.945887
  103        6.053416
  104        6.053416
  105        6.309111
  106        6.309111
 
  0.2500000E+00  0.5000000E+00  0.0000000E+00  0.3125000E-01
    1      -14.628655
    2      -14.628655
    3      -14.516249
    4      -14.516249
    5      -14.440419
    6      -14.440419
    7      -14.357341
    8      -14.357341
    9      -14.345190
   10      -14.345190
   11      -14.234670
   12      -14.234670
   13      -14.223367
   14      -14.223367
   15      -14.146431
   16      -14.146431
   17       -7.512769
   18       -7.512769
   19       -7.369111
   20       -7.369111
   21       -7.316146
   22       -7.316146
   23       -7.273593
   24       -7.273593
   25       -7.145826
   26       -7.145826
   27       -7.062377
   28       -7.062377
   29       -6.981407
   30       -6.981407
   31       -6.945502
   32       -6.945502
   33       -6.906229
   34       -6.906229
   35       -6.862816
   36       -6.862816
   37       -6.751983
   38       -6.751983
   39       -6.744629
   40       -6.744629
   41       -6.710278
   42       -6.710278
   43       -6.599713
   44       -6.599713
   45       -6.540735
   46       -6.540735
   47       -6.511577
   48       -6.511577
   49       -6.477663
   50       -6.477663
   51       -6.462981
   52       -6.462981
   53       -6.415852
   54       -6.415852
   55       -6.381368
   56       -6.381368
   57       -6.367048
   58       -6.367048
   59       -6.319155
   60       -6.319155
   61       -6.247693
   62       -6.247693
   63       -6.233424
   64       -6.233424
   65        2.149550
   66        2.149550
   67        2.670567
   68        2.670567
   69        3.387787
   70        3.387787
   71        3.536105
   72        3.536105
   73        3.558583
   74        3.558583
   75        3.731535
   76        3.731535
   77        3.854817
   78        3.854817
   79        4.289395
   80        4.289395
   81        4.474942
   82        4.474942
   83        4.536303
   84        4.536303
   85        4.672994
   86        4.672994
   87        4.844021
   88        4.844021
   89        5.269226
   90        5.269226
   91        5.494990
   92        5.494990
   93        5.539512
   94        5.539512
   95        5.666628
   96        5.666628
   97        5.792546
   98        5.792546
   99        5.809741
  100        5.809741
  101        5.971910
  102        5.971910
  103        5.991739
  104        5.991739
  105        6.366504
  106        6.366504
 
  0.5000000E+00  0.5000000E+00  0.0000000E+00  0.1562500E-01
    1      -14.583822
    2      -14.583822
    3      -14.583821
    4      -14.583821
    5      -14.407260
    6      -14.407260
    7      -14.407259
    8      -14.407259
    9      -14.273193
   10      -14.273193
   11      -14.273191
   12      -14.273191
   13      -14.181895
   14      -14.181895
   15      -14.181894
   16      -14.181894
   17       -7.452556
   18       -7.452556
   19       -7.452555
   20       -7.452555
   21       -7.320311
   22       -7.320311
   23       -7.320310
   24       -7.320310
   25       -7.061385
   26       -7.061385
   27       -7.061383
   28       -7.061383
   29       -6.924036
   30       -6.924035
   31       -6.924035
   32       -6.924035
   33       -6.908063
   34       -6.908063
   35       -6.908062
   36       -6.908062
   37       -6.757924
   38       -6.757924
   39       -6.757924
   40       -6.757924
   41       -6.635441
   42       -6.635441
   43       -6.635440
   44       -6.635440
   45       -6.563829
   46       -6.563829
   47       -6.563829
   48       -6.563828
   49       -6.481504
   50       -6.481504
   51       -6.481503
   52       -6.481503
   53       -6.413488
   54       -6.413488
   55       -6.413487
   56       -6.413487
   57       -6.336903
   58       -6.336903
   59       -6.336902
   60       -6.336902
   61       -6.214518
   62       -6.214518
   63       -6.214518
   64       -6.214518
   65        2.348509
   66        2.348509
   67        2.348510
   68        2.348510
   69        3.474015
   70        3.474015
   71        3.474016
   72        3.474016
   73        3.740112
   74        3.740112
   75        3.740112
   76        3.740112
   77        4.134295
   78        4.134295
   79        4.134296
   80        4.134296
   81        4.397787
   82        4.397787
   83        4.397788
   84        4.397788
   85        4.735961
   86        4.735961
   87        4.735962
   88        4.735962
   89        5.341853
   90        5.341853
   91        5.341854
   92        5.341854
   93        5.629524
   94        5.629524
   95        5.629524
   96        5.629524
   97        5.741263
   98        5.741263
   99        5.741263
  100        5.741263
  101        6.048457
  102        6.048457
  103        6.048457
  104        6.048457
  105        6.456888
  106        6.456888
 
  0.0000000E+00  0.0000000E+00  0.2500000E+00  0.3125000E-01
    1      -14.744583
    2      -14.582467
    3      -14.478155
    4      -14.461102
    5      -14.387082
    6      -14.381151
    7      -14.366391
    8      -14.352232
    9      -14.336573
   10      -14.325626
   11      -14.312802
   12      -14.302514
   13      -14.246657
   14      -14.241600
   15      -14.159756
   16      -14.106698
   17       -7.482358
   18       -7.461944
   19       -7.443614
   20       -7.418578
   21       -7.318930
   22       -7.243597
   23       -7.236674
   24       -7.226820
   25       -7.201184
   26       -7.194642
   27       -7.120320
   28       -7.082859
   29       -7.027813
   30       -6.986104
   31       -6.917483
   32       -6.907438
   33       -6.899016
   34       -6.888251
   35       -6.817964
   36       -6.801689
   37       -6.741213
   38       -6.735654
   39       -6.723455
   40       -6.717547
   41       -6.681211
   42       -6.610722
   43       -6.604954
   44       -6.583135
   45       -6.569023
   46       -6.547469
   47       -6.547322
   48       -6.537076
   49       -6.536909
   50       -6.504287
   51       -6.489712
   52       -6.460822
   53       -6.430872
   54       -6.422271
   55       -6.419743
   56       -6.417322
   57       -6.413746
   58       -6.342118
   59       -6.341144
   60       -6.322778
   61       -6.320721
   62       -6.221805
   63       -6.212322
   64       -6.168968
   65        1.557866
   66        2.732231
   67        2.812055
   68        2.973222
   69        3.256080
   70        3.262801
   71        3.443159
   72        3.453291
   73        3.475547
   74        3.549835
   75        3.844505
   76        3.974221
   77        3.974570
   78        4.058216
   79        4.170289
   80        4.281356
   81        4.412351
   82        4.416323
   83        4.498018
   84        4.629874
   85        4.724194
   86        4.818751
   87        4.984778
   88        5.050389
   89        5.084166
   90        5.087275
   91        5.183560
   92        5.218185
   93        5.448633
   94        5.462606
   95        5.537845
   96        5.568376
   97        5.716020
   98        6.103381
   99        6.107218
  100        6.117880
  101        6.278266
  102        6.357395
  103        6.429417
  104        6.525003
  105        6.611583
  106        6.683096
 
  0.2500000E+00  0.0000000E+00  0.2500000E+00  0.6250000E-01
    1      -14.724655
    2      -14.578547
    3      -14.565902
    4      -14.445716
    5      -14.387427
    6      -14.382123
    7      -14.354475
    8      -14.336375
    9      -14.327814
   10      -14.312302
   11      -14.312063
   12      -14.258912
   13      -14.245875
   14      -14.242374
   15      -14.184714
   16      -14.126242
   17       -7.446505
   18       -7.438895
   19       -7.426841
   20       -7.403435
   21       -7.388325
   22       -7.250424
   23       -7.209472
   24       -7.203426
   25       -7.165403
   26       -7.162723
   27       -7.139045
   28       -7.124322
   29       -7.117184
   30       -7.074326
   31       -6.966373
   32       -6.917027
   33       -6.869828
   34       -6.860608
   35       -6.786136
   36       -6.773154
   37       -6.763950
   38       -6.728383
   39       -6.723967
   40       -6.712133
   41       -6.702731
   42       -6.647205
   43       -6.604736
   44       -6.588993
   45       -6.569552
   46       -6.526860
   47       -6.526368
   48       -6.510570
   49       -6.502436
   50       -6.473099
   51       -6.429797
   52       -6.426879
   53       -6.424197
   54       -6.415343
   55       -6.411384
   56       -6.384122
   57       -6.383415
   58       -6.383150
   59       -6.378891
   60       -6.334471
   61       -6.327064
   62       -6.266564
   63       -6.232037
   64       -6.199579
   65        1.651211
   66        2.309400
   67        2.990635
   68        3.165694
   69        3.224647
   70        3.291666
   71        3.444413
   72        3.444649
   73        3.451852
   74        3.652596
   75        3.788621
   76        3.942127
   77        3.982853
   78        4.080020
   79        4.082314
   80        4.299597
   81        4.311973
   82        4.408400
   83        4.595223
   84        4.663395
   85        4.794490
   86        4.824811
   87        4.970485
   88        5.039337
   89        5.040116
   90        5.068730
   91        5.275237
   92        5.351395
   93        5.367115
   94        5.381493
   95        5.529080
   96        5.587650
   97        5.784606
   98        5.787641
   99        6.184408
  100        6.255559
  101        6.320949
  102        6.387503
  103        6.444770
  104        6.541395
  105        6.627066
  106        6.644627
 
  0.5000000E+00  0.0000000E+00  0.2500000E+00  0.3125000E-01
    1      -14.667075
    2      -14.667073
    3      -14.518250
    4      -14.518248
    5      -14.384529
    6      -14.384528
    7      -14.332337
    8      -14.332335
    9      -14.311158
   10      -14.311158
   11      -14.254895
   12      -14.254894
   13      -14.243657
   14      -14.243655
   15      -14.180922
   16      -14.180920
   17       -7.437333
   18       -7.437333
   19       -7.346923
   20       -7.346921
   21       -7.340280
   22       -7.340279
   23       -7.287860
   24       -7.287858
   25       -7.182117
   26       -7.182116
   27       -7.101600
   28       -7.101600
   29       -7.064371
   30       -7.064370
   31       -6.934215
   32       -6.934214
   33       -6.929135
   34       -6.929134
   35       -6.847693
   36       -6.847692
   37       -6.725265
   38       -6.725263
   39       -6.695105
   40       -6.695104
   41       -6.668315
   42       -6.668314
   43       -6.550632
   44       -6.550631
   45       -6.539111
   46       -6.539111
   47       -6.494040
   48       -6.494040
   49       -6.466162
   50       -6.466162
   51       -6.432739
   52       -6.432737
   53       -6.421047
   54       -6.421045
   55       -6.385268
   56       -6.385267
   57       -6.369669
   58       -6.369668
   59       -6.355097
   60       -6.355097
   61       -6.291238
   62       -6.291238
   63       -6.285513
   64       -6.285513
   65        1.915941
   66        1.915943
   67        3.051950
   68        3.051950
   69        3.368106
   70        3.368108
   71        3.445040
   72        3.445040
   73        3.587592
   74        3.587593
   75        3.812816
   76        3.812817
   77        4.006337
   78        4.006339
   79        4.164739
   80        4.164740
   81        4.368606
   82        4.368608
   83        4.717870
   84        4.717871
   85        4.796393
   86        4.796395
   87        4.973845
   88        4.973846
   89        5.117251
   90        5.117252
   91        5.186587
   92        5.186589
   93        5.441095
   94        5.441095
   95        5.679248
   96        5.679249
   97        5.717412
   98        5.717412
   99        6.145166
  100        6.145166
  101        6.281425
  102        6.281425
  103        6.598544
  104        6.598545
  105        6.648447
  106        6.648447
 
  0.0000000E+00  0.2500000E+00  0.2500000E+00  0.6250000E-01
    1      -14.710874
    2      -14.555652
    3      -14.493442
    4      -14.463384
    5      -14.441973
    6      -14.395629
    7      -14.388208
    8      -14.348721
    9      -14.346228
   10      -14.338680
   11      -14.317170
   12      -14.260492
   13      -14.254346
   14      -14.193486
   15      -14.167092
   16      -14.115357
   17       -7.454185
   18       -7.408645
   19       -7.398772
   20       -7.392175
   21       -7.352048
   22       -7.265397
   23       -7.220975
   24       -7.178871
   25       -7.147721
   26       -7.105057
   27       -7.081881
   28       -7.060535
   29       -7.029367
   30       -7.016175
   31       -6.997921
   32       -6.937153
   33       -6.923896
   34       -6.919955
   35       -6.839211
   36       -6.818582
   37       -6.775558
   38       -6.775466
   39       -6.719142
   40       -6.716892
   41       -6.698288
   42       -6.686483
   43       -6.630223
   44       -6.571679
   45       -6.555099