Automatically generated mesh
      36
Reciprocal lattice
    0.00000000000000    0.00000000000000    0.00000000000000             1
    0.25000000000000    0.00000000000000    0.00000000000000             2
    0.50000000000000    0.00000000000000    0.00000000000000             1
    0.00000000000000    0.25000000000000    0.00000000000000             2
    0.25000000000000    0.25000000000000    0.00000000000000             2
    0.50000000000000    0.25000000000000    0.00000000000000             2
   -0.25000000000000    0.25000000000000    0.00000000000000             2
    0.00000000000000    0.50000000000000    0.00000000000000             1
    0.25000000000000    0.50000000000000    0.00000000000000             2
    0.50000000000000    0.50000000000000    0.00000000000000             1
    0.00000000000000    0.00000000000000    0.25000000000000             2
    0.25000000000000    0.00000000000000    0.25000000000000             2
    0.50000000000000    0.00000000000000    0.25000000000000             2
   -0.25000000000000    0.00000000000000    0.25000000000000             2
    0.00000000000000    0.25000000000000    0.25000000000000             2
    0.25000000000000    0.25000000000000    0.25000000000000             2
    0.50000000000000    0.25000000000000    0.25000000000000             2
   -0.25000000000000    0.25000000000000    0.25000000000000             2
    0.00000000000000    0.50000000000000    0.25000000000000             2
    0.25000000000000    0.50000000000000    0.25000000000000             2
    0.50000000000000    0.50000000000000    0.25000000000000             2
   -0.25000000000000    0.50000000000000    0.25000000000000             2
    0.00000000000000   -0.25000000000000    0.25000000000000             2
    0.25000000000000   -0.25000000000000    0.25000000000000             2
    0.50000000000000   -0.25000000000000    0.25000000000000             2
   -0.25000000000000   -0.25000000000000    0.25000000000000             2
    0.00000000000000    0.00000000000000    0.50000000000000             1
    0.25000000000000    0.00000000000000    0.50000000000000             2
    0.50000000000000    0.00000000000000    0.50000000000000             1
    0.00000000000000    0.25000000000000    0.50000000000000             2
    0.25000000000000    0.25000000000000    0.50000000000000             2
    0.50000000000000    0.25000000000000    0.50000000000000             2
   -0.25000000000000    0.25000000000000    0.50000000000000             2
    0.00000000000000    0.50000000000000    0.50000000000000             1
    0.25000000000000    0.50000000000000    0.50000000000000             2
    0.50000000000000    0.50000000000000    0.50000000000000             1
Tetrahedra
       192    0.00260416666667
         2         1         2         5        11
         2         1         4         5        11
         2         4         5        11        15
         2         2         5        11        12
         2         5        11        12        16
         2         5        11        15        16
         2         2         3         6        12
         2         2         5         6        12
         2         5         6        12        16
         2         3         6        12        13
         2         6        12        13        17
         2         6        12        16        17
         2         2         3         7        13
         2         3         6         7        13
         2         6         7        13        17
         2         2         7        13        14
         2         7        13        14        18
         2         7        13        17        18
         2         1         2         4        14
         2         2         4         7        14
         2         4         7        14        18
         2         1         4        11        14
         2         4        11        14        15
         2         4        14        15        18
         2         4         5         9        15
         2         4         8         9        15
         2         8         9        15        19
         2         5         9        15        16
         2         9        15        16        20
         2         9        15        19        20
         2         5         6        10        16
         2         5         9        10        16
         2         9        10        16        20
         2         6        10        16        17
         2        10        16        17        21
         2        10        16        20        21
         2         6         7         9        17
         2         6         9        10        17
         2         9        10        17        21
         2         7         9        17        18
         2         9        17        18        22
         2         9        17        21        22
         2         4         7         8        18
         2         7         8         9        18
         2         8         9        18        22
         2         4         8        15        18
         2         8        15        18        19
         2         8        18        19        22
         2         7         8         9        19
         2         4         7         8        19
         2         4         7        19        23
         2         7         9        19        20
         2         7        19        20        24
         2         7        19        23        24
         2         6         9        10        20
         2         6         7         9        20
         2         6         7        20        24
         2         6        10        20        21
         2         6        20        21        25
         2         6        20        24        25
         2         5         9        10        21
         2         5         6        10        21
         2         5         6        21        25
         2         5         9        21        22
         2         5        21        22        26
         2         5        21        25        26
         2         4         8         9        22
         2         4         5         9        22
         2         4         5        22        26
         2         4         8        19        22
         2         4        19        22        23
         2         4        22        23        26
         2         2         4         7        23
         2         1         2         4        23
         2         1         2        11        23
         2         2         7        23        24
         2         2        12        23        24
         2         2        11        12        23
         2         3         6         7        24
         2         2         3         7        24
         2         2         3        12        24
         2         3         6        24        25
         2         3        13        24        25
         2         3        12        13        24
         2         2         5         6        25
         2         2         3         6        25
         2         2         3        13        25
         2         2         5        25        26
         2         2        14        25        26
         2         2        13        14        25
         2         1         4         5        26
         2         1         2         5        26
         2         1         2        14        26
         2         1         4        23        26
         2         1        11        23        26
         2         1        11        14        26
         2        11        12        16        27
         2        11        15        16        27
         2        15        16        27        30
         2        12        16        27        28
         2        16        27        28        31
         2        16        27        30        31
         2        12        13        17        28
         2        12        16        17        28
         2        16        17        28        31
         2        13        17        28        29
         2        17        28        29        32
         2        17        28        31        32
         2        13        14        18        29
         2        13        17        18        29
         2        17        18        29        32
         2        14        18        28        29
         2        18        28        29        33
         2        18        29        32        33
         2        11        14        15        28
         2        14        15        18        28
         2        15        18        28        33
         2        11        15        27        28
         2        15        27        28        30
         2        15        28        30        33
         2        15        16        20        30
         2        15        19        20        30
         2        19        20        30        34
         2        16        20        30        31
         2        20        30        31        35
         2        20        30        34        35
         2        16        17        21        31
         2        16        20        21        31
         2        20        21        31        35
         2        17        21        31        32
         2        21        31        32        36
         2        21        31        35        36
         2        17        18        22        32
         2        17        21        22        32
         2        21        22        32        36
         2        18        22        32        33
         2        22        32        33        35
         2        22        32        35        36
         2        15        18        19        33
         2        18        19        22        33
         2        19        22        33        35
         2        15        19        30        33
         2        19        30        33        34
         2        19        33        34        35
         2        19        20        24        34
         2        19        23        24        34
         2        23        24        30        34
         2        20        24        34        35
         2        24        33        34        35
         2        24        30        33        34
         2        20        21        25        35
         2        20        24        25        35
         2        24        25        33        35
         2        21        25        35        36
         2        25        32        35        36
         2        25        32        33        35
         2        21        22        26        36
         2        21        25        26        36
         2        25        26        32        36
         2        22        26        35        36
         2        26        31        35        36
         2        26        31        32        36
         2        19        22        23        35
         2        22        23        26        35
         2        23        26        31        35
         2        19        23        34        35
         2        23        30        34        35
         2        23        30        31        35
         2        12        23        24        30
         2        11        12        23        30
         2        11        12        27        30
         2        12        24        30        33
         2        12        28        30        33
         2        12        27        28        30
         2        13        24        25        33
         2        12        13        24        33
         2        12        13        28        33
         2        13        25        32        33
         2        13        29        32        33
         2        13        28        29        33
         2        14        25        26        32
         2        13        14        25        32
         2        13        14        29        32
         2        14        26        31        32
         2        14        28        31        32
         2        14        28        29        32
         2        11        23        26        31
         2        11        14        26        31
         2        11        14        28        31
         2        11        23        30        31
         2        11        27        30        31
         2        11        27        28        31
