 running on   16 total cores
 distrk:  each k-point on   16 cores,    1 groups
 distr:  one band on    8 cores,    2 groups
 using from now: INCAR     
 vasp.5.3.5 31Mar14 (build Nov 02 2014 15:17:37) complex                        
  
 POSCAR found type information on POSCAR  H  C 
 POSCAR found :  2 types and      20 ions
 scaLAPACK will be used
 WARNING: type information on POSCAR and POTCAR are incompatible
 POTCAR overwrites the type information in POSCAR
 typ   1 type information:  H  C 
 WARNING: type information on POSCAR and POTCAR are incompatible
 POTCAR overwrites the type information in POSCAR
 typ   2 type information:  C  H 

 ----------------------------------------------------------------------------- 
|                                                                             |
|  ADVICE TO THIS USER RUNNING 'VASP/VAMP'   (HEAR YOUR MASTER'S VOICE ...):  |
|                                                                             |
|      You have a (more or less) 'large supercell' and for larger cells       |
|      it might be more efficient to use real space projection operators      |
|      So try LREAL= Auto  in the INCAR   file.                               |
|      Mind: If you want to do a very accurate calculations keep the          |
|      reciprocal projection scheme          (i.e. LREAL=.FALSE.)             |
|                                                                             |
 ----------------------------------------------------------------------------- 

 LDA part: xc-table for Pade appr. of Perdew
 POSCAR, INCAR and KPOINTS ok, starting setup
 WARNING: small aliasing (wrap around) errors must be expected
 FFT: planning ...
 WAVECAR not read
 WARNING: random wavefunctions but no delay for mixing, default for NELMDL
 entering main loop
       N       E                     dE             d eps       ncg     rms          rms(c)
RMM:   1     0.718171454613E+03    0.71817E+03   -0.24394E+04  1656   0.123E+03
RMM:   2     0.172236491887E+03   -0.54593E+03   -0.59493E+03  1656   0.272E+02
RMM:   3     0.650487734414E+01   -0.16573E+03   -0.17910E+03  1656   0.132E+02
RMM:   4    -0.437360243041E+02   -0.50241E+02   -0.46904E+02  1656   0.860E+01
RMM:   5    -0.595030452932E+02   -0.15767E+02   -0.13946E+02  1656   0.468E+01
RMM:   6    -0.658396459440E+02   -0.63366E+01   -0.54592E+01  1656   0.294E+01
RMM:   7    -0.689060167103E+02   -0.30664E+01   -0.27036E+01  1656   0.192E+01
RMM:   8    -0.706365728343E+02   -0.17306E+01   -0.15387E+01  1656   0.142E+01
RMM:   9    -0.731096178538E+02   -0.24730E+01   -0.23490E+01  4419   0.105E+01
RMM:  10    -0.734862107866E+02   -0.37659E+00   -0.19991E+00  4082   0.228E+00
RMM:  11    -0.735931672723E+02   -0.10696E+00   -0.29847E-01  4382   0.743E-01
RMM:  12    -0.735998569814E+02   -0.66897E-02   -0.25678E-02  3984   0.169E-01    0.993E+00
RMM:  13    -0.755595872593E+02   -0.19597E+01   -0.63262E+00  3313   0.719E+00    0.121E+01
RMM:  14    -0.721298159306E+02    0.34298E+01   -0.16325E+00  3312   0.373E+00    0.848E+00
RMM:  15    -0.713127609756E+02    0.81705E+00   -0.51867E-01  3312   0.202E+00    0.437E+00
RMM:  16    -0.715609702463E+02   -0.24821E+00   -0.75711E-01  3312   0.264E+00    0.547E+00
RMM:  17    -0.710456260105E+02    0.51534E+00   -0.27075E-01  3323   0.159E+00    0.215E+00
RMM:  18    -0.709874859411E+02    0.58140E-01   -0.89342E-02  3590   0.844E-01    0.686E-01
RMM:  19    -0.709866923482E+02    0.79359E-03   -0.18032E-02  3723   0.392E-01    0.429E-01
RMM:  20    -0.709872391152E+02   -0.54677E-03   -0.50794E-03  3313   0.235E-01    0.231E-01
RMM:  21    -0.709874147266E+02   -0.17561E-03   -0.15141E-03  3344   0.134E-01    0.129E-01
RMM:  22    -0.709874833500E+02   -0.68623E-04   -0.29530E-04  3332   0.635E-02    0.411E-02
RMM:  23    -0.709875410836E+02   -0.57734E-04   -0.15267E-04  3313   0.472E-02    0.187E-02
RMM:  24    -0.709875608566E+02   -0.19773E-04   -0.29271E-05  3376   0.188E-02    0.115E-02
RMM:  25    -0.709875663118E+02   -0.54552E-05   -0.13728E-05  3271   0.144E-02    0.127E-02
RMM:  26    -0.709875754658E+02   -0.91540E-05   -0.43217E-06  2672   0.866E-03    0.261E-03
RMM:  27    -0.709875748342E+02    0.63159E-06   -0.10481E-06  2046   0.432E-03
   1 F= -.70987575E+02 E0= -.70987575E+02  d E =-.709876E+02
 curvature:   0.00 expect dE= 0.000E+00 dE for cont linesearch  0.000E+00
 trial: gam= 0.00000 g(F)=  0.133E+02 g(S)=  0.000E+00 ort = 0.000E+00 (trialstep = 0.100E+01)
 search vector abs. value=  0.133E+02
 bond charge predicted
       N       E                     dE             d eps       ncg     rms          rms(c)
RMM:   1    -0.745194704464E+02   -0.35319E+01   -0.10786E+03  3420   0.139E+02    0.109E+01
RMM:   2    -0.870225699435E+02   -0.12503E+02   -0.48631E+01  3352   0.253E+01    0.171E+01
RMM:   3    -0.765031271224E+02    0.10519E+02   -0.53955E+00  3401   0.717E+00    0.476E+00
RMM:   4    -0.761766669071E+02    0.32646E+00   -0.14409E+00  3876   0.293E+00    0.254E+00
RMM:   5    -0.761708644708E+02    0.58024E-02   -0.31487E-01  3882   0.132E+00    0.182E+00
RMM:   6    -0.761518848382E+02    0.18980E-01   -0.92841E-02  3681   0.755E-01    0.123E+00
RMM:   7    -0.761465396599E+02    0.53452E-02   -0.40730E-02  3569   0.576E-01    0.420E-01
RMM:   8    -0.761467063894E+02   -0.16673E-03   -0.12816E-02  4166   0.279E-01    0.244E-01
RMM:   9    -0.761465933472E+02    0.11304E-03   -0.34448E-03  3845   0.142E-01    0.152E-01
RMM:  10    -0.761461326831E+02    0.46066E-03   -0.95947E-04  3432   0.872E-02    0.815E-02
RMM:  11    -0.761458925310E+02    0.24015E-03   -0.44400E-04  3904   0.523E-02    0.193E-02
RMM:  12    -0.761458837352E+02    0.87957E-05   -0.77558E-05  4305   0.217E-02    0.126E-02
RMM:  13    -0.761458900081E+02   -0.62729E-05   -0.18083E-05  3437   0.124E-02    0.739E-03
RMM:  14    -0.761458960480E+02   -0.60399E-05   -0.28147E-06  2316   0.573E-03    0.276E-03
