       N       E                     dE             d eps       ncg     rms          rms(c)
DAV:   1     0.325702221942E+03    0.32570E+03   -0.32956E+04  3312   0.143E+03
