       N       E                     dE             d eps       ncg     rms          rms(c)
DAV:   1     0.122038231080E+04    0.12204E+04   -0.12190E+05  8612   0.151E+03
DAV:   2    -0.145057306448E+03   -0.13654E+04   -0.13076E+04 10100   0.287E+02
DAV:   3    -0.264281142761E+03   -0.11922E+03   -0.10968E+03 10172   0.774E+01
DAV:   4    -0.270912523793E+03   -0.66314E+01   -0.65112E+01 11216   0.172E+01
DAV:   5    -0.271146696576E+03   -0.23417E+00   -0.23388E+00 11776   0.356E+00    0.216E+01
DAV:   6    -0.269781609029E+03    0.13651E+01   -0.35105E+01 10064   0.157E+01    0.206E+01
DAV:   7    -0.257105778146E+03    0.12676E+02   -0.88582E+00 10056   0.109E+01    0.822E+00
DAV:   8    -0.256913007144E+03    0.19277E+00   -0.10049E+01  9640   0.661E+00    0.638E+00
DAV:   9    -0.256289655705E+03    0.62335E+00   -0.11167E+00  9512   0.336E+00    0.273E+00
DAV:  10    -0.256211376695E+03    0.78279E-01   -0.35003E-01  9680   0.137E+00    0.170E+00
DAV:  11    -0.256164608346E+03    0.46768E-01   -0.85392E-02 10568   0.773E-01    0.287E-01
DAV:  12    -0.256168124073E+03   -0.35157E-02   -0.20415E-02  8992   0.351E-01    0.147E-01
DAV:  13    -0.256168652896E+03   -0.52882E-03   -0.16214E-03  9032   0.113E-01    0.673E-02
DAV:  14    -0.256168798918E+03   -0.14602E-03   -0.41895E-04  9736   0.478E-02    0.313E-02
DAV:  15    -0.256168873240E+03   -0.74322E-04   -0.69833E-05  9656   0.190E-02    0.303E-02
DAV:  16    -0.256168872239E+03    0.10008E-05   -0.32287E-06 10592   0.141E-02    0.458E-03
DAV:  17    -0.256168874904E+03   -0.26648E-05   -0.77389E-06  8272   0.629E-03    0.414E-03
DAV:  18    -0.256168875591E+03   -0.68712E-06   -0.68929E-07  4752   0.218E-03
   1 F= -.26221530E+03 E0= -.26221530E+03  d E =-.262215E+03
       N       E                     dE             d eps       ncg     rms          rms(c)
DAV:   1    -0.258530002170E+03   -0.23611E+01   -0.74062E+03  8748   0.222E+02    0.233E+01
DAV:   2    -0.296035651381E+03   -0.37506E+02   -0.47486E+02 11304   0.501E+01    0.150E+01
DAV:   3    -0.291032742038E+03    0.50029E+01   -0.24200E+01 11418   0.141E+01    0.622E+00
DAV:   4    -0.290842844868E+03    0.18990E+00   -0.67764E+00 12280   0.530E+00    0.349E+00
DAV:   5    -0.290855786087E+03   -0.12941E-01   -0.13762E+00 12976   0.245E+00    0.170E+00
DAV:   6    -0.290838283949E+03    0.17502E-01   -0.28566E-01 12768   0.110E+00    0.804E-01
DAV:   7    -0.290840007902E+03   -0.17240E-02   -0.38200E-02 12298   0.457E-01    0.272E-01
DAV:   8    -0.290839659387E+03    0.34851E-03   -0.87555E-03 12312   0.201E-01    0.849E-02
DAV:   9    -0.290839858108E+03   -0.19872E-03   -0.10172E-03 10520   0.765E-02    0.463E-02
DAV:  10    -0.290839966097E+03   -0.10799E-03   -0.27204E-04 13568   0.331E-02    0.568E-02
DAV:  11    -0.290839952884E+03    0.13213E-04   -0.27397E-05 11136   0.122E-02    0.182E-02
DAV:  12    -0.290839938030E+03    0.14854E-04   -0.24251E-05 12032   0.917E-03    0.965E-03
DAV:  13    -0.290839912677E+03    0.25353E-04   -0.54021E-06  9936   0.558E-03    0.624E-03
DAV:  14    -0.290839926833E+03   -0.14155E-04   -0.13431E-06  5744   0.316E-03    0.457E-03
DAV:  15    -0.290839920122E+03    0.67109E-05   -0.37859E-07  5544   0.150E-03    0.396E-03
DAV:  16    -0.290839921411E+03   -0.12891E-05   -0.14753E-07  5400   0.901E-04    0.312E-03
DAV:  17    -0.290839920965E+03    0.44638E-06   -0.11217E-07  5344   0.713E-04
   2 F= -.30058704E+03 E0= -.30058704E+03  d E =-.383717E+02
       N       E                     dE             d eps       ncg     rms          rms(c)
DAV:   1    -0.291767554597E+03   -0.92763E+00   -0.19764E+02  8532   0.368E+01    0.277E+00
DAV:   2    -0.292360349649E+03   -0.59280E+00   -0.65639E+00 12288   0.561E+00    0.231E+00
DAV:   3    -0.292263384183E+03    0.96965E-01   -0.36723E-01 12480   0.169E+00    0.105E+00
DAV:   4    -0.292244918002E+03    0.18466E-01   -0.98973E-02 10032   0.728E-01    0.390E-01
DAV:   5    -0.292244706475E+03    0.21153E-03   -0.23384E-02 11872   0.321E-01    0.134E-01
DAV:   6    -0.292244682161E+03    0.24314E-04   -0.20455E-03 11640   0.105E-01    0.700E-02
DAV:   7    -0.292244587166E+03    0.94995E-04   -0.39026E-04 12592   0.451E-02    0.269E-02
DAV:   8    -0.292244621221E+03   -0.34055E-04   -0.55234E-05 11936   0.175E-02    0.118E-02
DAV:   9    -0.292244608296E+03    0.12925E-04   -0.13160E-05 11512   0.836E-03    0.464E-03
DAV:  10    -0.292244611473E+03   -0.31776E-05   -0.18912E-06  6112   0.349E-03    0.157E-03
DAV:  11    -0.292244614506E+03   -0.30326E-05   -0.51214E-07  5362   0.167E-03    0.598E-04
DAV:  12    -0.292244613686E+03    0.81981E-06   -0.11528E-07  5264   0.889E-04
   3 F= -.30075873E+03 E0= -.30075873E+03  d E =-.385434E+02
       N       E                     dE             d eps       ncg     rms          rms(c)
DAV:   1    -0.305750948725E+03   -0.13506E+02   -0.12852E+03  8532   0.914E+01    0.964E+00
DAV:   2    -0.308708354558E+03   -0.29574E+01   -0.44617E+01 10942   0.175E+01    0.573E+00
DAV:   3    -0.308032741573E+03    0.67561E+00   -0.37020E+00 11748   0.518E+00    0.348E+00
DAV:   4    -0.307908533391E+03    0.12421E+00   -0.87248E-01 11864   0.206E+00    0.147E+00
DAV:   5    -0.307901061618E+03    0.74718E-02   -0.25246E-01 12376   0.106E+00    0.659E-01
DAV:   6    -0.307894674344E+03    0.63873E-02   -0.49227E-02 13048   0.453E-01    0.291E-01
DAV:   7    -0.307894530798E+03    0.14355E-03   -0.66057E-03 10384   0.192E-01    0.845E-02
DAV:   8    -0.307894646399E+03   -0.11560E-03   -0.14181E-03 13168   0.740E-02    0.344E-02
DAV:   9    -0.307894748355E+03   -0.10196E-03   -0.19203E-04 12872   0.299E-02    0.161E-02
DAV:  10    -0.307894739951E+03    0.84035E-05   -0.30466E-05 11792   0.131E-02    0.567E-03
DAV:  11    -0.307894737825E+03    0.21267E-05   -0.71374E-06 10264   0.604E-03    0.250E-03
DAV:  12    -0.307894741899E+03   -0.40740E-05   -0.10790E-06  6056   0.273E-03    0.925E-04
DAV:  13    -0.307894742699E+03   -0.79998E-06   -0.30841E-07  5864   0.134E-03
   4 F= -.31709388E+03 E0= -.31709388E+03  d E =-.163351E+02
       N       E                     dE             d eps       ncg     rms          rms(c)
