       N       E                     dE             d eps       ncg     rms          rms(c)
DAV:   1     0.122038231080E+04    0.12204E+04   -0.12190E+05  8612   0.151E+03
DAV:   2    -0.145057306448E+03   -0.13654E+04   -0.13076E+04 10100   0.287E+02
DAV:   3    -0.264281142761E+03   -0.11922E+03   -0.10968E+03 10172   0.774E+01
DAV:   4    -0.270912523793E+03   -0.66314E+01   -0.65112E+01 11216   0.172E+01
DAV:   5    -0.271146696576E+03   -0.23417E+00   -0.23388E+00 11776   0.356E+00    0.216E+01
DAV:   6    -0.269781609029E+03    0.13651E+01   -0.35105E+01 10064   0.157E+01    0.206E+01
DAV:   7    -0.257105778146E+03    0.12676E+02   -0.88582E+00 10056   0.109E+01    0.822E+00
DAV:   8    -0.256913007144E+03    0.19277E+00   -0.10049E+01  9640   0.661E+00    0.638E+00
DAV:   9    -0.256289655705E+03    0.62335E+00   -0.11167E+00  9512   0.336E+00    0.273E+00
DAV:  10    -0.256211376695E+03    0.78279E-01   -0.35003E-01  9680   0.137E+00    0.170E+00
DAV:  11    -0.256164608346E+03    0.46768E-01   -0.85392E-02 10568   0.773E-01    0.287E-01
DAV:  12    -0.256168124073E+03   -0.35157E-02   -0.20415E-02  8992   0.351E-01    0.147E-01
DAV:  13    -0.256168652896E+03   -0.52882E-03   -0.16214E-03  9032   0.113E-01    0.673E-02
DAV:  14    -0.256168798918E+03   -0.14602E-03   -0.41895E-04  9736   0.478E-02    0.313E-02
DAV:  15    -0.256168873240E+03   -0.74322E-04   -0.69833E-05  9656   0.190E-02    0.303E-02
DAV:  16    -0.256168872239E+03    0.10008E-05   -0.32287E-06 10592   0.141E-02    0.458E-03
DAV:  17    -0.256168874904E+03   -0.26648E-05   -0.77389E-06  8272   0.629E-03    0.414E-03
DAV:  18    -0.256168875591E+03   -0.68712E-06   -0.68929E-07  4752   0.218E-03
   1 F= -.26221530E+03 E0= -.26221530E+03  d E =-.262215E+03
       N       E                     dE             d eps       ncg     rms          rms(c)
DAV:   1    -0.258530002170E+03   -0.23611E+01   -0.74062E+03  8748   0.222E+02    0.233E+01
DAV:   2    -0.296035651381E+03   -0.37506E+02   -0.47486E+02 11304   0.501E+01    0.150E+01
DAV:   3    -0.291032742038E+03    0.50029E+01   -0.24200E+01 11418   0.141E+01    0.622E+00
