<?xml version="1.0" encoding="ISO-8859-1"?>
<modeling>
 <generator>
  <i name="program" type="string">vasp </i>
  <i name="version" type="string">5.3.5  </i>
  <i name="subversion" type="string">31Mar14 (build Nov 02 2014 15:17:37) complex                          parallel </i>
  <i name="platform" type="string">ion-Intel-MKL </i>
  <i name="date" type="string">2017 05 26 </i>
  <i name="time" type="string">00:14:40 </i>
 </generator>
 <incar>
  <i type="string" name="SYSTEM">diamond</i>
  <i type="string" name="PREC">normal</i>
  <i type="int" name="NELM">   200</i>
  <i type="int" name="IBRION">     2</i>
  <i name="EDIFF">      0.00000100</i>
  <i name="EDIFFG">      0.00100000</i>
  <i type="int" name="NSW">   200</i>
  <i type="int" name="ISIF">     2</i>
  <i name="ENCUT">    600.00000000</i>
  <i type="int" name="ISMEAR">    -5</i>
  <i type="logical" name="LWAVE"> F  </i>
  <i type="logical" name="LCHARG"> F  </i>
  <i type="int" name="NELM">   200</i>
  <i type="string" name="GGA">PE</i>
 </incar>
 <kpoints>
  <generation param="Gamma">
   <v type="int" name="divisions">       4        4        4 </v>
   <v name="usershift">      0.00000000       0.00000000       0.00000000 </v>
   <v name="genvec1">      0.25000000       0.00000000       0.00000000 </v>
   <v name="genvec2">      0.00000000       0.25000000       0.00000000 </v>
   <v name="genvec3">      0.00000000       0.00000000       0.25000000 </v>
   <v name="shift">      0.00000000       0.00000000       0.00000000 </v>
  </generation>
  <varray name="kpointlist" >
   <v>       0.00000000       0.00000000       0.00000000 </v>
   <v>       0.25000000       0.00000000       0.00000000 </v>
   <v>       0.50000000       0.00000000       0.00000000 </v>
   <v>       0.00000000       0.25000000       0.00000000 </v>
   <v>       0.25000000       0.25000000       0.00000000 </v>
   <v>       0.50000000       0.25000000       0.00000000 </v>
   <v>       0.00000000       0.50000000       0.00000000 </v>
   <v>       0.25000000       0.50000000       0.00000000 </v>
   <v>       0.50000000       0.50000000       0.00000000 </v>
   <v>       0.00000000       0.00000000       0.25000000 </v>
   <v>       0.25000000       0.00000000       0.25000000 </v>
   <v>       0.50000000       0.00000000       0.25000000 </v>
   <v>       0.00000000       0.25000000       0.25000000 </v>
   <v>       0.25000000       0.25000000       0.25000000 </v>
   <v>       0.50000000       0.25000000       0.25000000 </v>
   <v>       0.00000000       0.50000000       0.25000000 </v>
   <v>       0.25000000       0.50000000       0.25000000 </v>
   <v>       0.50000000       0.50000000       0.25000000 </v>
   <v>       0.00000000       0.00000000       0.50000000 </v>
   <v>       0.25000000       0.00000000       0.50000000 </v>
   <v>       0.50000000       0.00000000       0.50000000 </v>
   <v>       0.00000000       0.25000000       0.50000000 </v>
   <v>       0.25000000       0.25000000       0.50000000 </v>
   <v>       0.50000000       0.25000000       0.50000000 </v>
   <v>       0.00000000       0.50000000       0.50000000 </v>
   <v>       0.25000000       0.50000000       0.50000000 </v>
   <v>       0.50000000       0.50000000       0.50000000 </v>
  </varray>
  <varray name="weights" >
   <v>       0.01562500 </v>
   <v>       0.03125000 </v>
   <v>       0.01562500 </v>
   <v>       0.03125000 </v>
   <v>       0.06250000 </v>
   <v>       0.03125000 </v>
   <v>       0.01562500 </v>
   <v>       0.03125000 </v>
   <v>       0.01562500 </v>
   <v>       0.03125000 </v>
   <v>       0.06250000 </v>
   <v>       0.03125000 </v>
   <v>       0.06250000 </v>
   <v>       0.12500000 </v>
   <v>       0.06250000 </v>
   <v>       0.03125000 </v>
   <v>       0.06250000 </v>
   <v>       0.03125000 </v>
   <v>       0.01562500 </v>
   <v>       0.03125000 </v>
   <v>       0.01562500 </v>
   <v>       0.03125000 </v>
   <v>       0.06250000 </v>
   <v>       0.03125000 </v>
   <v>       0.01562500 </v>
   <v>       0.03125000 </v>
   <v>       0.01562500 </v>
  </varray>
  <varray name="tetrahedronlist"  type="int" >
   <v type="int" >        2        1        2        5       10 </v>
   <v type="int" >        2        1        4        5       10 </v>
   <v type="int" >        2        4        5       10       13 </v>
   <v type="int" >        2        2        5       10       11 </v>
   <v type="int" >        2        5       10       11       14 </v>
   <v type="int" >        2        5       10       13       14 </v>
   <v type="int" >        2        2        3        6       11 </v>
   <v type="int" >        2        2        5        6       11 </v>
   <v type="int" >        2        5        6       11       14 </v>
   <v type="int" >        2        3        6       11       12 </v>
   <v type="int" >        2        6       11       12       15 </v>
   <v type="int" >        2        6       11       14       15 </v>
   <v type="int" >        2        2        3        5       12 </v>
   <v type="int" >        2        3        5        6       12 </v>
   <v type="int" >        2        5        6       12       15 </v>
   <v type="int" >        2        2        5       11       12 </v>
   <v type="int" >        2        5       11       12       14 </v>
   <v type="int" >        2        5       12       14       15 </v>
   <v type="int" >        2        1        2        4       11 </v>
   <v type="int" >        2        2        4        5       11 </v>
   <v type="int" >        2        4        5       11       14 </v>
   <v type="int" >        2        1        4       10       11 </v>
   <v type="int" >        2        4       10       11       13 </v>
   <v type="int" >        2        4       11       13       14 </v>
   <v type="int" >        2        4        5        8       13 </v>
   <v type="int" >        2        4        7        8       13 </v>
   <v type="int" >        2        7        8       13       16 </v>
   <v type="int" >        2        5        8       13       14 </v>
   <v type="int" >        2        8       13       14       17 </v>
   <v type="int" >        2        8       13       16       17 </v>
   <v type="int" >        2        5        6        9       14 </v>
   <v type="int" >        2        5        8        9       14 </v>
   <v type="int" >        2        8        9       14       17 </v>
   <v type="int" >        2        6        9       14       15 </v>
   <v type="int" >        2        9       14       15       18 </v>
   <v type="int" >        2        9       14       17       18 </v>
   <v type="int" >        2        5        6        8       15 </v>
   <v type="int" >        2        6        8        9       15 </v>
   <v type="int" >        2        8        9       15       18 </v>
   <v type="int" >        2        5        8       14       15 </v>
   <v type="int" >        2        8       14       15       17 </v>
   <v type="int" >        2        8       15       17       18 </v>
   <v type="int" >        2        4        5        7       14 </v>
   <v type="int" >        2        5        7        8       14 </v>
   <v type="int" >        2        7        8       14       17 </v>
   <v type="int" >        2        4        7       13       14 </v>
   <v type="int" >        2        7       13       14       16 </v>
   <v type="int" >        2        7       14       16       17 </v>
   <v type="int" >        2        5        7        8       16 </v>
   <v type="int" >        2        4        5        7       16 </v>
   <v type="int" >        2        4        5       13       16 </v>
   <v type="int" >        2        5        8       16       17 </v>
   <v type="int" >        2        5       14       16       17 </v>
   <v type="int" >        2        5       13       14       16 </v>
   <v type="int" >        2        6        8        9       17 </v>
   <v type="int" >        2        5        6        8       17 </v>
   <v type="int" >        2        5        6       14       17 </v>
   <v type="int" >        2        6        9       17       18 </v>
   <v type="int" >        2        6       15       17       18 </v>
   <v type="int" >        2        6       14       15       17 </v>
   <v type="int" >        2        5        8        9       18 </v>
   <v type="int" >        2        5        6        9       18 </v>
   <v type="int" >        2        5        6       15       18 </v>
   <v type="int" >        2        5        8       17       18 </v>
   <v type="int" >        2        5       14       17       18 </v>
   <v type="int" >        2        5       14       15       18 </v>
   <v type="int" >        2        4        7        8       17 </v>
   <v type="int" >        2        4        5        8       17 </v>
   <v type="int" >        2        4        5       14       17 </v>
   <v type="int" >        2        4        7       16       17 </v>
   <v type="int" >        2        4       13       16       17 </v>
   <v type="int" >        2        4       13       14       17 </v>
   <v type="int" >        2        2        4        5       13 </v>
   <v type="int" >        2        1        2        4       13 </v>
   <v type="int" >        2        1        2       10       13 </v>
   <v type="int" >        2        2        5       13       14 </v>
   <v type="int" >        2        2       11       13       14 </v>
   <v type="int" >        2        2       10       11       13 </v>
   <v type="int" >        2        3        5        6       14 </v>
   <v type="int" >        2        2        3        5       14 </v>
   <v type="int" >        2        2        3       11       14 </v>
   <v type="int" >        2        3        6       14       15 </v>
   <v type="int" >        2        3       12       14       15 </v>
   <v type="int" >        2        3       11       12       14 </v>
   <v type="int" >        2        2        5        6       15 </v>
   <v type="int" >        2        2        3        6       15 </v>
   <v type="int" >        2        2        3       12       15 </v>
   <v type="int" >        2        2        5       14       15 </v>
   <v type="int" >        2        2       11       14       15 </v>
   <v type="int" >        2        2       11       12       15 </v>
   <v type="int" >        2        1        4        5       14 </v>
   <v type="int" >        2        1        2        5       14 </v>
   <v type="int" >        2        1        2       11       14 </v>
   <v type="int" >        2        1        4       13       14 </v>
   <v type="int" >        2        1       10       13       14 </v>
   <v type="int" >        2        1       10       11       14 </v>
   <v type="int" >        2       10       11       14       19 </v>
   <v type="int" >        2       10       13       14       19 </v>
   <v type="int" >        2       13       14       19       22 </v>
   <v type="int" >        2       11       14       19       20 </v>
   <v type="int" >        2       14       19       20       23 </v>
   <v type="int" >        2       14       19       22       23 </v>
   <v type="int" >        2       11       12       15       20 </v>
   <v type="int" >        2       11       14       15       20 </v>
   <v type="int" >        2       14       15       20       23 </v>
   <v type="int" >        2       12       15       20       21 </v>
   <v type="int" >        2       15       20       21       24 </v>
   <v type="int" >        2       15       20       23       24 </v>
   <v type="int" >        2       11       12       14       21 </v>
   <v type="int" >        2       12       14       15       21 </v>
   <v type="int" >        2       14       15       21       24 </v>
   <v type="int" >        2       11       14       20       21 </v>
   <v type="int" >        2       14       20       21       23 </v>
   <v type="int" >        2       14       21       23       24 </v>
   <v type="int" >        2       10       11       13       20 </v>
   <v type="int" >        2       11       13       14       20 </v>
   <v type="int" >        2       13       14       20       23 </v>
   <v type="int" >        2       10       13       19       20 </v>
   <v type="int" >        2       13       19       20       22 </v>
   <v type="int" >        2       13       20       22       23 </v>
   <v type="int" >        2       13       14       17       22 </v>
   <v type="int" >        2       13       16       17       22 </v>
   <v type="int" >        2       16       17       22       25 </v>
   <v type="int" >        2       14       17       22       23 </v>
   <v type="int" >        2       17       22       23       26 </v>
   <v type="int" >        2       17       22       25       26 </v>
   <v type="int" >        2       14       15       18       23 </v>
   <v type="int" >        2       14       17       18       23 </v>
   <v type="int" >        2       17       18       23       26 </v>
   <v type="int" >        2       15       18       23       24 </v>
   <v type="int" >        2       18       23       24       27 </v>
   <v type="int" >        2       18       23       26       27 </v>
   <v type="int" >        2       14       15       17       24 </v>
   <v type="int" >        2       15       17       18       24 </v>
   <v type="int" >        2       17       18       24       27 </v>
   <v type="int" >        2       14       17       23       24 </v>
   <v type="int" >        2       17       23       24       26 </v>
   <v type="int" >        2       17       24       26       27 </v>
   <v type="int" >        2       13       14       16       23 </v>
   <v type="int" >        2       14       16       17       23 </v>
   <v type="int" >        2       16       17       23       26 </v>
   <v type="int" >        2       13       16       22       23 </v>
   <v type="int" >        2       16       22       23       25 </v>
   <v type="int" >        2       16       23       25       26 </v>
   <v type="int" >        2       14       16       17       25 </v>
   <v type="int" >        2       13       14       16       25 </v>
   <v type="int" >        2       13       14       22       25 </v>
   <v type="int" >        2       14       17       25       26 </v>
   <v type="int" >        2       14       23       25       26 </v>
   <v type="int" >        2       14       22       23       25 </v>
   <v type="int" >        2       15       17       18       26 </v>
   <v type="int" >        2       14       15       17       26 </v>
   <v type="int" >        2       14       15       23       26 </v>
   <v type="int" >        2       15       18       26       27 </v>
   <v type="int" >        2       15       24       26       27 </v>
   <v type="int" >        2       15       23       24       26 </v>
   <v type="int" >        2       14       17       18       27 </v>
   <v type="int" >        2       14       15       18       27 </v>
   <v type="int" >        2       14       15       24       27 </v>
   <v type="int" >        2       14       17       26       27 </v>
   <v type="int" >        2       14       23       26       27 </v>
   <v type="int" >        2       14       23       24       27 </v>
   <v type="int" >        2       13       16       17       26 </v>
   <v type="int" >        2       13       14       17       26 </v>
   <v type="int" >        2       13       14       23       26 </v>
   <v type="int" >        2       13       16       25       26 </v>
   <v type="int" >        2       13       22       25       26 </v>
   <v type="int" >        2       13       22       23       26 </v>
   <v type="int" >        2       11       13       14       22 </v>
   <v type="int" >        2       10       11       13       22 </v>
   <v type="int" >        2       10       11       19       22 </v>
   <v type="int" >        2       11       14       22       23 </v>
   <v type="int" >        2       11       20       22       23 </v>
   <v type="int" >        2       11       19       20       22 </v>
   <v type="int" >        2       12       14       15       23 </v>
   <v type="int" >        2       11       12       14       23 </v>
   <v type="int" >        2       11       12       20       23 </v>
   <v type="int" >        2       12       15       23       24 </v>
   <v type="int" >        2       12       21       23       24 </v>
   <v type="int" >        2       12       20       21       23 </v>
   <v type="int" >        2       11       14       15       24 </v>
   <v type="int" >        2       11       12       15       24 </v>
   <v type="int" >        2       11       12       21       24 </v>
   <v type="int" >        2       11       14       23       24 </v>
   <v type="int" >        2       11       20       23       24 </v>
   <v type="int" >        2       11       20       21       24 </v>
   <v type="int" >        2       10       13       14       23 </v>
   <v type="int" >        2       10       11       14       23 </v>
   <v type="int" >        2       10       11       20       23 </v>
   <v type="int" >        2       10       13       22       23 </v>
   <v type="int" >        2       10       19       22       23 </v>
   <v type="int" >        2       10       19       20       23 </v>
  </varray>
  <i name="volumeweight">      0.00260417 </i>
 </kpoints>
 <parameters>
  <separator name="general" >
   <i type="string" name="SYSTEM">diamond</i>
   <i type="logical" name="LCOMPAT"> F  </i>
  </separator>
  <separator name="electronic" >
   <i type="string" name="PREC">normal</i>
   <i name="ENMAX">    600.00000000</i>
   <i name="ENAUG">    644.87300000</i>
   <i name="EDIFF">      0.00000100</i>
   <i type="int" name="IALGO">    38</i>
   <i type="int" name="IWAVPR">    11</i>
   <i type="int" name="NBANDS">    98</i>
   <i name="NELECT">    120.00000000</i>
   <i type="int" name="TURBO">     0</i>
   <i type="int" name="IRESTART">     0</i>
   <i type="int" name="NREBOOT">     0</i>
   <i type="int" name="NMIN">     0</i>
   <i name="EREF">      0.00000000</i>
   <separator name="electronic smearing" >
    <i type="int" name="ISMEAR">    -5</i>
    <i name="SIGMA">      0.20000000</i>
    <i name="KSPACING">      0.50000000</i>
    <i type="logical" name="KGAMMA"> T  </i>
   </separator>
   <separator name="electronic projectors" >
    <i type="logical" name="LREAL"> F  </i>
    <v name="ROPT">      0.00000000      0.00000000</v>
    <i type="int" name="LMAXPAW">  -100</i>
    <i type="int" name="LMAXMIX">     2</i>
    <i type="logical" name="NLSPLINE"> F  </i>
   </separator>
   <separator name="electronic startup" >
    <i type="int" name="ISTART">     0</i>
    <i type="int" name="ICHARG">     2</i>
    <i type="int" name="INIWAV">     1</i>
   </separator>
   <separator name="electronic spin" >
    <i type="int" name="ISPIN">     1</i>
    <i type="logical" name="LNONCOLLINEAR"> F  </i>
    <v name="MAGMOM">      1.00000000      1.00000000      1.00000000      1.00000000      1.00000000      1.00000000      1.00000000      1.00000000      1.00000000      1.00000000      1.00000000      1.00000000      1.00000000      1.00000000      1.00000000      1.00000000      1.00000000      1.00000000      1.00000000      1.00000000
      1.00000000      1.00000000      1.00000000      1.00000000      1.00000000      1.00000000      1.00000000      1.00000000      1.00000000      1.00000000      1.00000000      1.00000000      1.00000000      1.00000000      1.00000000      1.00000000      1.00000000      1.00000000      1.00000000      1.00000000
      1.00000000      1.00000000      1.00000000      1.00000000      1.00000000      1.00000000      1.00000000      1.00000000      1.00000000      1.00000000      1.00000000      1.00000000      1.00000000      1.00000000      1.00000000      1.00000000      1.00000000      1.00000000      1.00000000      1.00000000
      1.00000000      1.00000000      1.00000000      1.00000000      1.00000000      1.00000000      1.00000000      1.00000000      1.00000000      1.00000000      1.00000000      1.00000000</v>
    <i name="NUPDOWN">     -1.00000000</i>
    <i type="logical" name="LSORBIT"> F  </i>
    <v name="SAXIS">      0.00000000      0.00000000      1.00000000</v>
    <i type="logical" name="LSPIRAL"> F  </i>
    <v name="QSPIRAL">      0.00000000      0.00000000      0.00000000</v>
    <i type="logical" name="LZEROZ"> F  </i>
   </separator>
   <separator name="electronic exchange-correlation" >
    <i type="logical" name="LASPH"> F  </i>
    <i type="logical" name="LMETAGGA"> F  </i>
   </separator>
   <separator name="electronic convergence" >
    <i type="int" name="NELM">   200</i>
    <i type="int" name="NELMDL">     0</i>
    <i type="int" name="NELMIN">     2</i>
    <i name="ENINI">    600.00000000</i>
    <separator name="electronic convergence detail" >
     <i type="logical" name="LDIAG"> T  </i>
     <i type="logical" name="LSUBROT"> F  </i>
     <i name="WEIMIN">      0.00100000</i>
     <i name="EBREAK">      0.00000000</i>
     <i name="DEPER">      0.30000000</i>
     <i type="int" name="NRMM">     4</i>
     <i name="TIME">      0.40000000</i>
    </separator>
   </separator>
   <separator name="electronic mixer" >
    <i name="AMIX">      0.40000000</i>
    <i name="BMIX">      1.00000000</i>
    <i name="AMIN">      0.10000000</i>
    <i name="AMIX_MAG">      1.60000000</i>
    <i name="BMIX_MAG">      1.00000000</i>
    <separator name="electronic mixer details" >
     <i type="int" name="IMIX">     4</i>
     <i type="int" name="MAXMIX">   -45</i>
     <i name="WC">    100.00000000</i>
     <i type="int" name="INIMIX">     1</i>
     <i type="int" name="MIXPRE">     1</i>
     <i type="int" name="MREMOVE">     5</i>
    </separator>
   </separator>
   <separator name="electronic dipolcorrection" >
    <i type="logical" name="LDIPOL"> F  </i>
    <i type="logical" name="LMONO"> F  </i>
    <i type="int" name="IDIPOL">     0</i>
    <i name="EPSILON">      1.00000000</i>
    <v name="DIPOL">   -100.00000000   -100.00000000   -100.00000000</v>
    <i name="EFIELD">      0.00000000</i>
   </separator>
  </separator>
  <separator name="grids" >
   <i type="int" name="NGX">    70</i>
   <i type="int" name="NGY">    50</i>
   <i type="int" name="NGZ">    50</i>
   <i type="int" name="NGXF">   140</i>
   <i type="int" name="NGYF">   100</i>
   <i type="int" name="NGZF">   100</i>
   <i type="logical" name="ADDGRID"> F  </i>
  </separator>
  <separator name="ionic" >
   <i type="int" name="NSW">   200</i>
   <i type="int" name="IBRION">     2</i>
   <i type="int" name="ISIF">     2</i>
   <i name="PSTRESS">      0.00000000</i>
   <i name="EDIFFG">      0.00100000</i>
   <i type="int" name="NFREE">     1</i>
   <i name="POTIM">      0.50000000</i>
   <i name="SMASS">     -3.00000000</i>
   <i name="SCALEE">      1.00000000</i>
  </separator>
  <separator name="ionic md" >
   <i name="TEBEG">      0.00010000</i>
   <i name="TEEND">      0.00010000</i>
   <i type="int" name="NBLOCK">     1</i>
   <i type="int" name="KBLOCK">   200</i>
   <i type="int" name="NPACO">   256</i>
   <i name="APACO">     16.00000000</i>
  </separator>
  <separator name="symmetry" >
   <i type="int" name="ISYM">     2</i>
   <i name="SYMPREC">      0.00001000</i>
  </separator>
  <separator name="dos" >
   <i type="logical" name="LORBIT"> F  </i>
   <v name="RWIGS">     -1.00000000     -1.00000000</v>
   <i type="int" name="NEDOS">   301</i>
   <i name="EMIN">     10.00000000</i>
   <i name="EMAX">    -10.00000000</i>
   <i name="EFERMI">      0.00000000</i>
  </separator>
  <separator name="writing" >
   <i type="int" name="NWRITE">     2</i>
   <i type="logical" name="LWAVE"> F  </i>
   <i type="logical" name="LCHARG"> F  </i>
   <i type="logical" name="LPARD"> F  </i>
   <i type="logical" name="LVTOT"> F  </i>
   <i type="logical" name="LVHAR"> F  </i>
   <i type="logical" name="LELF"> F  </i>
   <i type="logical" name="LOPTICS"> F  </i>
   <v name="STM">      0.00000000      0.00000000      0.00000000      0.00000000      0.00000000      0.00000000      0.00000000</v>
  </separator>
  <separator name="performance" >
   <i type="int" name="NPAR">     2</i>
   <i type="int" name="NSIM">     4</i>
   <i type="int" name="NBLK">    -1</i>
   <i type="logical" name="LPLANE"> T  </i>
   <i type="logical" name="LSCALAPACK"> T  </i>
   <i type="logical" name="LSCAAWARE"> F  </i>
   <i type="logical" name="LSCALU"> F  </i>
   <i type="logical" name="LASYNC"> F  </i>
   <i type="logical" name="LORBITALREAL"> F  </i>
  </separator>
  <separator name="miscellaneous" >
   <i type="int" name="IDIOT">     3</i>
   <i type="logical" name="LMUSIC"> F  </i>
   <v name="POMASS">      1.00000000     12.01100000</v>
   <v name="DARWINR">      0.00000000      0.00000000</v>
   <v name="DARWINV">      1.00000000      1.00000000</v>
   <i type="logical" name="LCORR"> T  </i>
  </separator>
  <i type="logical" name="GGA_COMPAT"> T  </i>
  <i type="logical" name="LBERRY"> F  </i>
  <i type="int" name="ICORELEVEL">     0</i>
  <i type="logical" name="LDAU"> F  </i>
  <i type="int" name="I_CONSTRAINED_M">     0</i>
  <separator name="electronic exchange-correlation" >
   <i type="string" name="GGA">PE</i>
   <i type="int" name="VOSKOWN">     0</i>
   <i type="logical" name="LHFCALC"> F  </i>
   <i type="string" name="PRECFOCK"></i>
   <i type="logical" name="LSYMGRAD"> F  </i>
   <i type="logical" name="LHFONE"> F  </i>
   <i type="logical" name="LRHFCALC"> F  </i>
   <i type="logical" name="LTHOMAS"> F  </i>
   <i type="logical" name="LMODELHF"> F  </i>
   <i name="ENCUT4O">     -1.00000000</i>
   <i type="int" name="EXXOEP">     0</i>
   <i type="int" name="FOURORBIT">     0</i>
   <i name="AEXX">      0.00000000</i>
   <i name="HFALPHA">      0.00000000</i>
   <i name="MCALPHA">      0.00000000</i>
   <i name="ALDAX">      1.00000000</i>
   <i name="AGGAX">      1.00000000</i>
   <i name="ALDAC">      1.00000000</i>
   <i name="AGGAC">      1.00000000</i>
   <i type="int" name="NKREDX">     1</i>
   <i type="int" name="NKREDY">     1</i>
   <i type="int" name="NKREDZ">     1</i>
   <i type="logical" name="SHIFTRED"> F  </i>
   <i type="logical" name="ODDONLY"> F  </i>
   <i type="logical" name="EVENONLY"> F  </i>
   <i type="int" name="LMAXFOCK">     0</i>
   <i type="int" name="NMAXFOCKAE">     0</i>
   <i type="logical" name="LFOCKAEDFT"> F  </i>
   <i name="HFSCREEN">      0.00000000</i>
   <i name="HFSCREENC">      0.00000000</i>
   <i type="int" name="NBANDSGWLOW">     0</i>
  </separator>
  <separator name="vdW DFT" >
   <i type="logical" name="LUSE_VDW"> F  </i>
   <i name="Zab_VDW">     -0.84910000</i>
   <i name="PARAM1">      0.12340000</i>
   <i name="PARAM2">      1.00000000</i>
   <i name="PARAM3">      0.00000000</i>
  </separator>
  <separator name="model GW" >
   <i type="int" name="MODEL_GW">     0</i>
   <i name="MODEL_EPS0">      6.53914200</i>
   <i name="MODEL_ALPHA">      1.00000000</i>
  </separator>
  <separator name="linear response parameters" >
   <i type="logical" name="LEPSILON"> F  </i>
   <i type="logical" name="LRPA"> F  </i>
   <i type="logical" name="LNABLA"> F  </i>
   <i type="logical" name="LVEL"> F  </i>
   <i type="int" name="KINTER">     0</i>
   <i name="CSHIFT">      0.10000000</i>
   <i name="OMEGAMAX">     -1.00000000</i>
   <i name="DEG_THRESHOLD">      0.00200000</i>
  </separator>
  <separator name="orbital magnetization" >
   <i type="logical" name="NUCIND"> F  </i>
   <v name="MAGPOS">      0.00000000      0.00000000      0.00000000</v>
   <i type="logical" name="LNICSALL"> T  </i>
   <i type="logical" name="ORBITALMAG"> F  </i>
   <i type="logical" name="LMAGBLOCH"> F  </i>
   <i type="logical" name="LCHIMAG"> F  </i>
   <i type="logical" name="LGAUGE"> T  </i>
   <i type="int" name="MAGATOM">     0</i>
   <v name="MAGDIPOL">      0.00000000      0.00000000      0.00000000</v>
   <v name="AVECCONST">      0.00000000      0.00000000      0.00000000</v>
  </separator>
  <separator name="response functions" >
   <i type="logical" name="LADDER"> F  </i>
   <i type="logical" name="LFXC"> F  </i>
   <i type="logical" name="LHARTREE"> T  </i>
   <i type="int" name="IBSE">     0</i>
   <i type="logical" name="LTCTE"> F  </i>
   <i type="logical" name="LTETE"> F  </i>
   <i type="logical" name="LTRIPLET"> F  </i>
   <i type="logical" name="LFXCEPS"> F  </i>
   <i type="logical" name="LFXHEG"> F  </i>
   <i type="logical" name="L2ORDER"> F  </i>
   <i type="logical" name="LUSEW"> F  </i>
   <i name="ENCUTGW">     -2.00000000</i>
   <i name="ENCUTGWSOFT">     -2.00000000</i>
   <i name="ENCUTLF">     -1.00000000</i>
   <i type="int" name="LMAXMP2">    -1</i>
   <i name="SCISSOR">      0.00000000</i>
   <i type="int" name="NOMEGA">     0</i>
   <i type="int" name="NOMEGAR">     0</i>
   <i type="int" name="NBANDSGW">    -1</i>
   <i type="int" name="NBANDSO">    -1</i>
   <i type="int" name="NBANDSV">    -1</i>
   <i type="int" name="NELM">   200</i>
   <i type="int" name="DIM">     3</i>
   <i type="int" name="ANTIRES">     0</i>
   <i name="OMEGAMAX">    -30.00000000</i>
   <i name="OMEGAMIN">    -30.00000000</i>
   <i name="OMEGATL">   -200.00000000</i>
   <i type="int" name="OMEGAGRID">     0</i>
   <i name="CSHIFT">     -0.10000000</i>
   <i type="logical" name="SELFENERGY"> F  </i>
   <i type="logical" name="LSPECTRAL"> F  </i>
   <i type="logical" name="ODDONLYGW"> F  </i>
   <i type="logical" name="EVENONLYGW"> F  </i>
   <i type="int" name="NKREDLFX">     1</i>
   <i type="int" name="NKREDLFY">     1</i>
   <i type="int" name="NKREDLFZ">     1</i>
   <i type="int" name="MAXMEM">  1800</i>
   <i type="int" name="TELESCOPE">     0</i>
   <i type="int" name="TAUPAR">     1</i>
  </separator>
  <separator name="External order field" >
   <i name="OFIELD_KAPPA">      0.00000000</i>
   <v name="OFIELD_K">      0.00000000      0.00000000      0.00000000</v>
   <i name="OFIELD_Q6_NEAR">      0.00000000</i>
   <i name="OFIELD_Q6_FAR">      0.00000000</i>
   <i name="OFIELD_A">      0.00000000</i>
  </separator>
 </parameters>
 <atominfo>
  <atoms>      72 </atoms>
  <types>       2 </types>
  <array name="atoms" >
   <dimension dim="1">ion</dimension>
   <field type="string">element</field>
   <field type="int">atomtype</field>
   <set>
    <rc><c>H </c><c>   1</c></rc>
    <rc><c>H </c><c>   1</c></rc>
    <rc><c>H </c><c>   1</c></rc>
    <rc><c>H </c><c>   1</c></rc>
    <rc><c>H </c><c>   1</c></rc>
    <rc><c>H </c><c>   1</c></rc>
    <rc><c>H </c><c>   1</c></rc>
    <rc><c>H </c><c>   1</c></rc>
    <rc><c>H </c><c>   1</c></rc>
    <rc><c>H </c><c>   1</c></rc>
    <rc><c>H </c><c>   1</c></rc>
    <rc><c>H </c><c>   1</c></rc>
    <rc><c>H </c><c>   1</c></rc>
    <rc><c>H </c><c>   1</c></rc>
    <rc><c>H </c><c>   1</c></rc>
    <rc><c>H </c><c>   1</c></rc>
    <rc><c>H </c><c>   1</c></rc>
    <rc><c>H </c><c>   1</c></rc>
    <rc><c>H </c><c>   1</c></rc>
    <rc><c>H </c><c>   1</c></rc>
    <rc><c>H </c><c>   1</c></rc>
    <rc><c>H </c><c>   1</c></rc>
    <rc><c>H </c><c>   1</c></rc>
    <rc><c>H </c><c>   1</c></rc>
    <rc><c>H </c><c>   1</c></rc>
    <rc><c>H </c><c>   1</c></rc>
    <rc><c>H </c><c>   1</c></rc>
    <rc><c>H </c><c>   1</c></rc>
    <rc><c>H </c><c>   1</c></rc>
    <rc><c>H </c><c>   1</c></rc>
    <rc><c>H </c><c>   1</c></rc>
    <rc><c>H </c><c>   1</c></rc>
    <rc><c>H </c><c>   1</c></rc>
    <rc><c>H </c><c>   1</c></rc>
    <rc><c>H </c><c>   1</c></rc>
    <rc><c>H </c><c>   1</c></rc>
    <rc><c>H </c><c>   1</c></rc>
    <rc><c>H </c><c>   1</c></rc>
    <rc><c>H </c><c>   1</c></rc>
    <rc><c>H </c><c>   1</c></rc>
    <rc><c>H </c><c>   1</c></rc>
    <rc><c>H </c><c>   1</c></rc>
    <rc><c>H </c><c>   1</c></rc>
    <rc><c>H </c><c>   1</c></rc>
    <rc><c>H </c><c>   1</c></rc>
    <rc><c>H </c><c>   1</c></rc>
    <rc><c>H </c><c>   1</c></rc>
    <rc><c>H </c><c>   1</c></rc>
    <rc><c>H </c><c>   1</c></rc>
    <rc><c>H </c><c>   1</c></rc>
    <rc><c>H </c><c>   1</c></rc>
    <rc><c>H </c><c>   1</c></rc>
    <rc><c>H </c><c>   1</c></rc>
    <rc><c>H </c><c>   1</c></rc>
    <rc><c>H </c><c>   1</c></rc>
    <rc><c>H </c><c>   1</c></rc>
    <rc><c>C </c><c>   2</c></rc>
    <rc><c>C </c><c>   2</c></rc>
    <rc><c>C </c><c>   2</c></rc>
    <rc><c>C </c><c>   2</c></rc>
    <rc><c>C </c><c>   2</c></rc>
    <rc><c>C </c><c>   2</c></rc>
    <rc><c>C </c><c>   2</c></rc>
    <rc><c>C </c><c>   2</c></rc>
    <rc><c>C </c><c>   2</c></rc>
    <rc><c>C </c><c>   2</c></rc>
    <rc><c>C </c><c>   2</c></rc>
    <rc><c>C </c><c>   2</c></rc>
    <rc><c>C </c><c>   2</c></rc>
    <rc><c>C </c><c>   2</c></rc>
    <rc><c>C </c><c>   2</c></rc>
    <rc><c>C </c><c>   2</c></rc>
   </set>
  </array>
  <array name="atomtypes" >
   <dimension dim="1">type</dimension>
   <field type="int">atomspertype</field>
   <field type="string">element</field>
   <field>mass</field>
   <field>valence</field>
   <field type="string">pseudopotential</field>
   <set>
    <rc><c>  56</c><c>H </c><c>      1.00000000</c><c>      1.00000000</c><c>PAW_PBE H 15Jun2001                     </c></rc>
    <rc><c>  16</c><c>C </c><c>     12.01100000</c><c>      4.00000000</c><c>PAW_PBE C 08Apr2002                     </c></rc>
   </set>
  </array>
 </atominfo>
 <structure name="initialpos" >
  <crystal>
   <varray name="basis" >
    <v>      11.70790005       0.00000000       0.00000000 </v>
    <v>       0.00000000       8.18929958       0.00000000 </v>
    <v>       0.00000000       0.00000000       8.18420029 </v>
   </varray>
   <i name="volume">    784.69703943 </i>
   <varray name="rec_basis" >
    <v>       0.08541241       0.00000000       0.00000000 </v>
    <v>       0.00000000       0.12211057       0.00000000 </v>
    <v>       0.00000000       0.00000000       0.12218665 </v>
   </varray>
  </crystal>
  <varray name="positions" >
   <v>       0.80100000       0.57950002       0.93360001 </v>
   <v>       0.19900000       0.42049998       0.06639999 </v>
   <v>       0.19900000       0.92049998       0.43360001 </v>
   <v>       0.80100000       0.07950002       0.56639999 </v>
   <v>       0.19900000       0.07950002       0.56639999 </v>
   <v>       0.80100000       0.92049998       0.43360001 </v>
   <v>       0.80100000       0.42049998       0.06639999 </v>
   <v>       0.19900000       0.57950002       0.93360001 </v>
   <v>       0.30100000       0.07950002       0.93360001 </v>
   <v>       0.69900000       0.92049998       0.06639999 </v>
   <v>       0.69900000       0.42049998       0.43360001 </v>
   <v>       0.30100000       0.57950002       0.56639999 </v>
   <v>       0.69900000       0.57950002       0.56639999 </v>
   <v>       0.30100000       0.42049998       0.43360001 </v>
   <v>       0.30100000       0.92049998       0.06639999 </v>
   <v>       0.69900000       0.07950002       0.93360001 </v>
   <v>       0.69859999       0.56629997       0.07959998 </v>
   <v>       0.30140001       0.43370003       0.92040002 </v>
   <v>       0.30140001       0.93370003       0.57959998 </v>
   <v>       0.69859999       0.06629997       0.42040002 </v>
   <v>       0.30140001       0.06629997       0.42040002 </v>
   <v>       0.69859999       0.93370003       0.57959998 </v>
   <v>       0.69859999       0.43370003       0.92040002 </v>
   <v>       0.30140001       0.56629997       0.07959998 </v>
   <v>       0.19859999       0.06629997       0.07959998 </v>
   <v>       0.80140001       0.93370003       0.92040002 </v>
   <v>       0.80140001       0.43370003       0.57959998 </v>
   <v>       0.19859999       0.56629997       0.42040002 </v>
   <v>       0.80140001       0.56629997       0.42040002 </v>
   <v>       0.19859999       0.43370003       0.57959998 </v>
   <v>       0.19859999       0.93370003       0.92040002 </v>
   <v>       0.80140001       0.06629997       0.07959998 </v>
   <v>       0.07280000       0.78549999       0.18230000 </v>
   <v>       0.92720002       0.21450001       0.81770003 </v>
   <v>       0.92720002       0.71450001       0.68229997 </v>
   <v>       0.07280000       0.28549999       0.31770000 </v>
   <v>       0.92720002       0.28549999       0.31770000 </v>
   <v>       0.07280000       0.71450001       0.68229997 </v>
   <v>       0.07280000       0.21450001       0.81770003 </v>
   <v>       0.92720002       0.78549999       0.18230000 </v>
   <v>       0.57279998       0.28549999       0.18230000 </v>
   <v>       0.42719999       0.71450001       0.81770003 </v>
   <v>       0.42719999       0.21450001       0.68229997 </v>
   <v>       0.57279998       0.78549999       0.31770000 </v>
   <v>       0.42719999       0.78549999       0.31770000 </v>
   <v>       0.57279998       0.21450001       0.68229997 </v>
   <v>       0.57279998       0.71450001       0.81770003 </v>
   <v>       0.42719999       0.28549999       0.18230000 </v>
   <v>       0.00000000       0.60589999       0.19920000 </v>
   <v>       0.00000000       0.39410001       0.80079997 </v>
   <v>       0.00000000       0.89410001       0.69920003 </v>
   <v>       0.00000000       0.10589999       0.30080000 </v>
   <v>       0.50000000       0.10589999       0.19920000 </v>
   <v>       0.50000000       0.89410001       0.80079997 </v>
   <v>       0.50000000       0.39410001       0.69920003 </v>
   <v>       0.50000000       0.60589999       0.30080000 </v>
   <v>       0.00000000       0.72960001       0.23029999 </v>
   <v>       0.00000000       0.27039999       0.76969999 </v>
   <v>       0.00000000       0.77039999       0.73030001 </v>
   <v>       0.00000000       0.22960001       0.26969999 </v>
   <v>       0.50000000       0.22960001       0.23029999 </v>
   <v>       0.50000000       0.77039999       0.76969999 </v>
   <v>       0.50000000       0.27039999       0.73030001 </v>
   <v>       0.50000000       0.72960001       0.26969999 </v>
   <v>       0.74980003       0.50000000       0.00000000 </v>
   <v>       0.25019997       0.50000000       0.00000000 </v>
   <v>       0.25019997       0.00000000       0.50000000 </v>
   <v>       0.74980003       0.00000000       0.50000000 </v>
   <v>       0.24980003       0.00000000       0.00000000 </v>
   <v>       0.75019997       0.00000000       0.00000000 </v>
   <v>       0.75019997       0.50000000       0.50000000 </v>
   <v>       0.24980003       0.50000000       0.50000000 </v>
  </varray>
 </structure>
 <calculation>
  <scstep>
                                                                                                                                                                                                                                                                                                                                                                                                                                                                                                                                                                                                                                                                                                                                                                                                                                                                                                                                                                                                                                                                                                                                                                                                                                                                                                                                                                                                                                                                                                                                                                                                                                                                                                                                                                                                                                                                                                                                                                                                                                                                                                                                                                                                                                                                                                                                                                                                                                                                                                                                                                                                                                                                                                                                                                                                                                                                                                                                                                                                                                                                                                                                                                                                                                                                                                                                                                                                                                                                                                                                                                                                                                                                                                                                                                                                                                                                                                                                                                                                                                                                                                                                                                                                                                                                                                                                                                                                                                                                                                                                                                                                                                                                                                                                                                                                                                                                                                                                                                                                                                                                                                                                                                                                                                                                                                                                                                                                                                                                                                                                                                                                                                                                                                                                                                                                                                                                                                                                                                                                                                                                                                                                                                                                                                                                                                                                                                                                                                                                                                                                                                                                                                                                                                                                                                                                                                                                                                                                                                                                                                                                                                                                                                                                                                                                                                                                                                                                                                                                                                                                                                                                                                                                                                                                                                                                                                                                                                                                                                                                                                                                                                                                                                                                                                                                                                                                                                                                                                                                                                                                                                                                                                                                                                                                                                                                                                                                                                                                                                                                                                                                                                                                                                                                                                                                                                                                                                                                                                                                                                                                                                                                                                                                                                                                                                                                                                                                                                                                                                                                                                                                                                                                                                                                                                                                                                                                                                                                                                                                                                                                                                                                                                                                                                                                                                                                                                                                                                                                                                                                                                                                                                                                                                                                                                                                                                                                                                                                                                                                                                                                                                                                                                                                                                                                                                                                                                                                                                                                                                                                                                                                                                                                                                                                                                                                                                                                                                                                                                                                                                                                                                                                                                                                                                                                                                                                                                                                                                                                                                                                                                                                                                                                                                                                                                                                                                                                                                                                                                                                                                                                                                                                                                                                                                                                                                                                                                                                                                                                                                                                                                                                                                                                                                                                                                                                                                                                                                                                                                                                                                                                                                                                                                                                                                                                                                                                                                                                                                                                                                                                                                                                                                                                                                                                                                                                                                                                                                                                                                                                                                                                                                                                                                                                                                                                                                                                                                                                                                                                                                                                                                                                                                                                                                                                                                                                                                                                                                                                                                                                                                                                                                                                                                                                                                                                                                                                                                                                                                                                                                                                                                                                                                                                                                                                                                                                                                                                                                                                                                                                                                                                                                                                                                                                                                                                                                                                                                                                                                                                                                                                                                                                                                                                                                                                                                                                                                                                                                                                                                                                                                                                                                                                                                                                                                                                                                                                                                                                                                                                                                                                                                                                                                                                                                                                                                                                                                                                                                                                                                                                                                                                                                                                                                                                                                                                                                                                                                                                                                                                                                                                                                                                                                                                                                                                                                                                                                                                                                                                                                                                                                                                                                                                                                                                                                                                                                                                                                                                                                                                                                                                                                                                                                                                                                                                                                                                                                                                                                                                                                                                                                                                                                                                                                                                                                                                                                                                                                                                                                                                                                                                                                                                                                                                                                                                                                                                                                                                                                                                                                                                                                                                                                                                                                                                                                                                                                                                                                                                                                                                                                                                                                                                                                                                                                                                                                                                                                                                                                                                                                                                                                                                                                                                                                                                                                                                                                                                                                                                                                                                                                                                                                                                                                                                                                                                                                                                                                                                                                                                                                                                                                                                                                                                                                                                                                                                                                                                                                                                                                                                                                                                                                                                                                                                                                                                                                                                                                                                                                                                                                                                                                                                                                                                                                                                                                                                                                                                                                                                                                                                                                                                                                                                                                                                                                                                                                                                                                                                                                                                                                                                                                                                                                                                                                                                                                                                                                                                                                                                                                                                                                                                                                                                                                                                                                                                                                                                                                                                                                                                                                                                                                                                                                                                                                                                                                                                                                                                                                                                                                                                                                                                                                                                                                                                                                                                                                                                                                                                                                                                                                                                                                                                                                                                                                                                                                                                                                                                                                                                                                                                                                                                                                                                                                                                                                                                                                                                                                                                                                                                                                                                                                                                                                                                                                                                                                                                                                                                                                                                                                                                                                                                                                                                                                                                                                                                                                                                                                                                                                                                                                                                                                                                                                                                                                                                                                                                                                                                                                                                                                                                                                                                                                                                                                                                                                                                                                                                                                                                                                                                                                                                                                                                                                                                                                                                                                                                                                                                                                                                                                                                                                                                                                                                                                                                                                                                                                                                                                                                                                                                                                                                                                                                                                                                                                                                                                                                                                                                                                                                                                                                                                                                                                                                                                                                                                                                                                                                                                                                                                                                                                                                                                                                                                                                                                                                                                                                                                                                                                                                                                                                                                                                                                                                                                                                                                                                                                                                                                                                                                                                                                                                                                                                                                                                                                                                                                                                                                                                                                                                                                                                                                                                                                                                                                                                                                                                                                                                                                                                                                                                                                                                                                                                                                                                                                                                                                                                                                                                                                                                                                                                                                                                                                                                                                                                                                                                                                                                                                                                                                                                                                                                                                                                                                                                                                                                                                                                                                                                                                                                                                                                                                                                                                                                                                                                                                                                                                                                                                                                                                                                                                                                                                                                                                                                                                                                                                                                                                                                                                                                                                                                                                                                                                                                                                                                                                                                                                                                                                                                                                                                                                                                                                                                                                                                                                                                                                                                                                                                                                                                                                                                                                                                                                                                                                                                                                                                                                                                                                                                                                                                                                                                                                                                                                                                                                                                                                                                                                                                                                                                                                                                                                                                                                                                                                                                                                                                                                                                                                                                                                                                                                                                                                                                                                                                                                                                                                                                                                                                                                                                                                                                                                                                                                                                                                                                                                                                                                                                                                                                                                                                                                                                                                                                                                                                                                                                                                                                                                                                                                                                                                                                                                                                                                                                                                                                                                                                                                                                                                                                                                                                                                                                                                                                                                                                                                                                                                                                                                                                                                                                                                                                                                                                                                                                                    
[...]
    <v>       0.50000000       0.90502718       0.79009978 </v>
    <v>       0.50000000       0.40502718       0.70990022 </v>
    <v>       0.50000000       0.59497282       0.29009981 </v>
    <v>      -0.00000000       0.72718751       0.20153437 </v>
    <v>      -0.00000000       0.27281249       0.79846562 </v>
    <v>      -0.00000000       0.77281249       0.70153438 </v>
    <v>      -0.00000000       0.22718751       0.29846562 </v>
    <v>       0.50000000       0.22718751       0.20153437 </v>
    <v>       0.50000000       0.77281249       0.79846562 </v>
    <v>       0.50000000       0.27281249       0.70153438 </v>
    <v>       0.50000000       0.72718751       0.29846562 </v>
    <v>       0.74968217       0.50000000       0.00000000 </v>
    <v>       0.25031783       0.50000000       0.00000000 </v>
    <v>       0.25031783      -0.00000000       0.50000000 </v>
    <v>       0.74968217      -0.00000000       0.50000000 </v>
    <v>       0.24968217      -0.00000000       0.00000000 </v>
    <v>       0.75031783      -0.00000000       0.00000000 </v>
    <v>       0.75031783       0.50000000       0.50000000 </v>
    <v>       0.24968217       0.50000000       0.50000000 </v>
   </varray>
  </structure>
  <varray name="forces" >
   <v>       0.02110205       0.01951062      -0.00207387 </v>
   <v>      -0.02110205      -0.01951062       0.00207387 </v>
   <v>      -0.02110205      -0.01951062      -0.00207387 </v>
   <v>       0.02110205       0.01951062       0.00207387 </v>
   <v>      -0.02110205       0.01951062       0.00207387 </v>
   <v>       0.02110205      -0.01951062      -0.00207387 </v>
   <v>       0.02110205      -0.01951062       0.00207387 </v>
   <v>      -0.02110205       0.01951062      -0.00207387 </v>
   <v>       0.02110205       0.01951062      -0.00207387 </v>
   <v>      -0.02110205      -0.01951062       0.00207387 </v>
   <v>      -0.02110205      -0.01951062      -0.00207387 </v>
   <v>       0.02110205       0.01951062       0.00207387 </v>
   <v>      -0.02110205       0.01951062       0.00207387 </v>
   <v>       0.02110205      -0.01951062      -0.00207387 </v>
   <v>       0.02110205      -0.01951062       0.00207387 </v>
   <v>      -0.02110205       0.01951062      -0.00207387 </v>
   <v>      -0.00862223       0.00557391      -0.00170128 </v>
   <v>       0.00862223      -0.00557391       0.00170128 </v>
   <v>       0.00862223      -0.00557391      -0.00170128 </v>
   <v>      -0.00862223       0.00557391       0.00170128 </v>
   <v>       0.00862223       0.00557391       0.00170128 </v>
   <v>      -0.00862223      -0.00557391      -0.00170128 </v>
   <v>      -0.00862223      -0.00557391       0.00170128 </v>
   <v>       0.00862223       0.00557391      -0.00170128 </v>
   <v>      -0.00862223       0.00557391      -0.00170128 </v>
   <v>       0.00862223      -0.00557391       0.00170128 </v>
   <v>       0.00862223      -0.00557391      -0.00170128 </v>
   <v>      -0.00862223       0.00557391       0.00170128 </v>
   <v>       0.00862223       0.00557391       0.00170128 </v>
   <v>      -0.00862223      -0.00557391      -0.00170128 </v>
   <v>      -0.00862223      -0.00557391       0.00170128 </v>
   <v>       0.00862223       0.00557391      -0.00170128 </v>
   <v>      -0.00678026       0.00052646       0.01826566 </v>
   <v>       0.00678026      -0.00052646      -0.01826566 </v>
   <v>       0.00678026      -0.00052646       0.01826566 </v>
   <v>      -0.00678026       0.00052646      -0.01826566 </v>
   <v>       0.00678026       0.00052646      -0.01826566 </v>
   <v>      -0.00678026      -0.00052646       0.01826566 </v>
   <v>      -0.00678026      -0.00052646      -0.01826566 </v>
   <v>       0.00678026       0.00052646       0.01826566 </v>
   <v>      -0.00678026       0.00052646       0.01826566 </v>
   <v>       0.00678026      -0.00052646      -0.01826566 </v>
   <v>       0.00678026      -0.00052646       0.01826566 </v>
   <v>      -0.00678026       0.00052646      -0.01826566 </v>
   <v>       0.00678026       0.00052646      -0.01826566 </v>
   <v>      -0.00678026      -0.00052646       0.01826566 </v>
   <v>      -0.00678026      -0.00052646      -0.01826566 </v>
   <v>       0.00678026       0.00052646       0.01826566 </v>
   <v>       0.00000000      -0.04789992       0.01966392 </v>
   <v>       0.00000000       0.04789992      -0.01966392 </v>
   <v>       0.00000000       0.04789992       0.01966392 </v>
   <v>       0.00000000      -0.04789992      -0.01966392 </v>
   <v>       0.00000000      -0.04789992       0.01966392 </v>
   <v>       0.00000000       0.04789992      -0.01966392 </v>
   <v>       0.00000000       0.04789992       0.01966392 </v>
   <v>       0.00000000      -0.04789992      -0.01966392 </v>
   <v>      -0.00000000       0.09847952      -0.09611446 </v>
   <v>       0.00000000      -0.09847952       0.09611446 </v>
   <v>       0.00000000      -0.09847952      -0.09611446 </v>
   <v>       0.00000000       0.09847952       0.09611446 </v>
   <v>      -0.00000000       0.09847952      -0.09611446 </v>
   <v>      -0.00000000      -0.09847952       0.09611446 </v>
   <v>       0.00000000      -0.09847952      -0.09611446 </v>
   <v>       0.00000000       0.09847952       0.09611446 </v>
   <v>      -0.03967700       0.00000000      -0.00000000 </v>
   <v>       0.03967700       0.00000000       0.00000000 </v>
   <v>       0.03967700       0.00000000       0.00000000 </v>
   <v>      -0.03967700       0.00000000      -0.00000000 </v>
   <v>      -0.03967700       0.00000000      -0.00000000 </v>
   <v>       0.03967700       0.00000000       0.00000000 </v>
   <v>       0.03967700       0.00000000       0.00000000 </v>
   <v>      -0.03967700       0.00000000      -0.00000000 </v>
  </varray>
  <varray name="stress" >
   <v>      -1.58458333       0.00000000       0.00000000 </v>
   <v>       0.00000000      -2.12336575       0.00000000 </v>
   <v>       0.00000000       0.00000000     -21.55163745 </v>
  </varray>
  <energy>
   <i name="e_fr_energy">   -337.35597567 </i>
   <i name="e_wo_entrp">   -337.35597567 </i>
   <i name="e_0_energy">      0.00000000 </i>
  </energy>
  <time name="totalsc">  519.39  519.68</time>
 </calculation>
 <calculation>
  <scstep>
   <time name="dav">   70.82   70.85</time>
   <time name="total">   72.52   72.56</time>
   <energy>
    <i name="alphaZ">     70.70467880 </i>
    <i name="ewald">  -1292.84392527 </i>
    <i name="hartreedc">  -1470.58184819 </i>
    <i name="XCdc">    377.94957458 </i>
    <i name="pawpsdc">   1336.30704627 </i>
    <i name="pawaedc">  -1358.41544620 </i>
    <i name="eentropy">      0.00000000 </i>
    <i name="bandstr">  -1051.82069185 </i>
    <i name="atom">   3053.73195627 </i>
    <i name="e_fr_energy">   -334.96865559 </i>
    <i name="e_wo_entrp">   -334.96865559 </i>
    <i name="e_0_energy">   -334.96865559 </i>
   </energy>
  </scstep>
  <scstep>
   <time name="dav">   82.38   82.42</time>
   <time name="total">   84.06   84.11</time>
   <energy>
    <i name="e_fr_energy">   -334.96875654 </i>
    <i name="e_wo_entrp">   -334.96875654 </i>
    <i name="e_0_energy">   -334.96875654 </i>
   </energy>
  </scstep>
  <scstep>
   <time name="dav">   71.09   71.12</time>
   <time name="total">   72.36   72.40</time>
   <energy>
    <i name="e_fr_energy">   -334.96872266 </i>
    <i name="e_wo_entrp">   -334.96872266 </i>
    <i name="e_0_energy">   -334.96872266 </i>
   </energy>
  </scstep>
  <scstep>
   <time name="dav">   61.32   61.35</time>
   <time name="total">   62.60   62.63</time>
   <energy>
    <i name="e_fr_energy">   -334.96871716 </i>
    <i name="e_wo_entrp">   -334.96871716 </i>
    <i name="e_0_energy">   -334.96871716 </i>
   </energy>
  </scstep>
  <scstep>
   <time name="dav">   73.92   73.95</time>
   <time name="total">   74.11   74.15</time>
   <energy>
    <i name="alphaZ">     70.70467880 </i>
    <i name="ewald">  -1292.84392527 </i>
    <i name="hartreedc">  -1470.37056680 </i>
    <i name="XCdc">    377.93450323 </i>
    <i name="pawpsdc">   1335.57972655 </i>
    <i name="pawaedc">  -1357.68482672 </i>
    <i name="eentropy">      0.00000000 </i>
    <i name="bandstr">  -1052.02026265 </i>
    <i name="atom">   3053.73195627 </i>
    <i name="e_fr_energy">   -334.96871659 </i>
    <i name="e_wo_entrp">   -334.96871659 </i>
    <i name="e_0_energy">   -334.96871659 </i>
   </energy>
  </scstep>
  <structure>
   <crystal>
    <varray name="basis" >
     <v>      11.70790005       0.00000000       0.00000000 </v>
     <v>       0.00000000       8.18929958       0.00000000 </v>
     <v>       0.00000000       0.00000000       8.18420029 </v>
    </varray>
    <i name="volume">    784.69703943 </i>
    <varray name="rec_basis" >
     <v>       0.08541241       0.00000000       0.00000000 </v>
     <v>       0.00000000       0.12211057       0.00000000 </v>
     <v>       0.00000000       0.00000000       0.12218665 </v>
    </varray>
   </crystal>
   <varray name="positions" >
    <v>       0.80407895       0.58384061       0.93065213 </v>
    <v>       0.19592105       0.41615939       0.06934787 </v>
    <v>       0.19592105       0.91615939       0.43065213 </v>
    <v>       0.80407895       0.08384061       0.56934787 </v>
    <v>       0.19592105       0.08384061       0.56934787 </v>
    <v>       0.80407895       0.91615939       0.43065213 </v>
    <v>       0.80407895       0.41615939       0.06934787 </v>
    <v>       0.19592105       0.58384061       0.93065213 </v>
    <v>       0.30407895       0.08384061       0.93065213 </v>
    <v>       0.69592105       0.91615939       0.06934787 </v>
    <v>       0.69592105       0.41615939       0.43065213 </v>
    <v>       0.30407895       0.58384061       0.56934787 </v>
    <v>       0.69592105       0.58384061       0.56934787 </v>
    <v>       0.30407895       0.41615939       0.43065213 </v>
    <v>       0.30407895       0.91615939       0.06934787 </v>
    <v>       0.69592105       0.08384061       0.93065213 </v>
    <v>       0.69548506       0.57021726       0.08367647 </v>
    <v>       0.30451494       0.42978274       0.91632353 </v>
    <v>       0.30451494       0.92978274       0.58367647 </v>
    <v>       0.69548506       0.07021726       0.41632353 </v>
    <v>       0.30451494       0.07021726       0.41632353 </v>
    <v>       0.69548506       0.92978274       0.58367647 </v>
    <v>       0.69548506       0.42978274       0.91632353 </v>
    <v>       0.30451494       0.57021726       0.08367647 </v>
    <v>       0.19548506       0.07021726       0.08367647 </v>
    <v>       0.80451494       0.92978274       0.91632353 </v>
    <v>       0.80451494       0.42978274       0.58367647 </v>
    <v>       0.19548506       0.57021726       0.41632353 </v>
    <v>       0.80451494       0.57021726       0.41632353 </v>
    <v>       0.19548506       0.42978274       0.58367647 </v>
    <v>       0.19548506       0.92978274       0.91632353 </v>
    <v>       0.80451494       0.07021726       0.08367647 </v>
    <v>       0.08035516       0.79289552       0.19106167 </v>
    <v>       0.91964487       0.20710448       0.80893835 </v>
    <v>       0.91964487       0.70710448       0.69106165 </v>
    <v>       0.08035516       0.29289552       0.30893833 </v>
    <v>       0.91964487       0.29289552       0.30893833 </v>
    <v>       0.08035516       0.70710448       0.69106165 </v>
    <v>       0.08035516       0.20710448       0.80893835 </v>
    <v>       0.91964487       0.79289552       0.19106167 </v>
    <v>       0.58035513       0.29289552       0.19106167 </v>
    <v>       0.41964484       0.70710448       0.80893835 </v>
    <v>       0.41964484       0.20710448       0.69106165 </v>
    <v>       0.58035513       0.79289552       0.30893833 </v>
    <v>       0.41964484       0.79289552       0.30893833 </v>
    <v>       0.58035513       0.20710448       0.69106165 </v>
    <v>       0.58035513       0.70710448       0.80893835 </v>
    <v>       0.41964484       0.29289552       0.19106167 </v>
    <v>      -0.00000000       0.59500844       0.21001377 </v>
    <v>      -0.00000000       0.40499156       0.78998620 </v>
    <v>      -0.00000000       0.90499156       0.71001380 </v>
    <v>      -0.00000000       0.09500844       0.28998623 </v>
    <v>       0.50000000       0.09500844       0.21001377 </v>
    <v>       0.50000000       0.90499156       0.78998620 </v>
    <v>       0.50000000       0.40499156       0.71001380 </v>
    <v>       0.50000000       0.59500844       0.28998623 </v>
    <v>      -0.00000000       0.72728153       0.20096576 </v>
    <v>      -0.00000000       0.27271847       0.79903423 </v>
    <v>      -0.00000000       0.77271847       0.70096577 </v>
    <v>      -0.00000000       0.22728153       0.29903423 </v>
    <v>       0.50000000       0.22728153       0.20096576 </v>
    <v>       0.50000000       0.77271847       0.79903423 </v>
    <v>       0.50000000       0.27271847       0.70096577 </v>
    <v>       0.50000000       0.72728153       0.29903423 </v>
    <v>       0.74966357       0.50000000       0.00000000 </v>
    <v>       0.25033643       0.50000000       0.00000000 </v>
    <v>       0.25033643      -0.00000000       0.50000000 </v>
    <v>       0.74966357      -0.00000000       0.50000000 </v>
    <v>       0.24966357      -0.00000000       0.00000000 </v>
    <v>       0.75033643      -0.00000000       0.00000000 </v>
    <v>       0.75033643       0.50000000       0.50000000 </v>
    <v>       0.24966357       0.50000000       0.50000000 </v>
   </varray>
  </structure>
  <varray name="forces" >
   <v>       0.01559160       0.01649825      -0.00428595 </v>
   <v>      -0.01559160      -0.01649825       0.00428595 </v>
   <v>      -0.01559160      -0.01649825      -0.00428595 </v>
   <v>       0.01559160       0.01649825       0.00428595 </v>
   <v>      -0.01559160       0.01649825       0.00428595 </v>
   <v>       0.01559160      -0.01649825      -0.00428595 </v>
   <v>       0.01559160      -0.01649825       0.00428595 </v>
   <v>      -0.01559160       0.01649825      -0.00428595 </v>
   <v>       0.01559160       0.01649825      -0.00428595 </v>
   <v>      -0.01559160      -0.01649825       0.00428595 </v>
   <v>      -0.01559160      -0.01649825      -0.00428595 </v>
   <v>       0.01559160       0.01649825       0.00428595 </v>
   <v>      -0.01559160       0.01649825       0.00428595 </v>
   <v>       0.01559160      -0.01649825      -0.00428595 </v>
   <v>       0.01559160      -0.01649825       0.00428595 </v>
   <v>      -0.01559160       0.01649825      -0.00428595 </v>
   <v>      -0.00107568      -0.00188252      -0.00488412 </v>
   <v>       0.00107568       0.00188252       0.00488412 </v>
   <v>       0.00107568       0.00188252      -0.00488412 </v>
   <v>      -0.00107568      -0.00188252       0.00488412 </v>
   <v>       0.00107568      -0.00188252       0.00488412 </v>
   <v>      -0.00107568       0.00188252      -0.00488412 </v>
   <v>      -0.00107568       0.00188252       0.00488412 </v>
   <v>       0.00107568      -0.00188252      -0.00488412 </v>
   <v>      -0.00107568      -0.00188252      -0.00488412 </v>
   <v>       0.00107568       0.00188252       0.00488412 </v>
   <v>       0.00107568       0.00188252      -0.00488412 </v>
   <v>      -0.00107568      -0.00188252       0.00488412 </v>
   <v>       0.00107568      -0.00188252       0.00488412 </v>
   <v>      -0.00107568       0.00188252      -0.00488412 </v>
   <v>      -0.00107568       0.00188252       0.00488412 </v>
   <v>       0.00107568      -0.00188252      -0.00488412 </v>
   <v>      -0.01124587       0.00206857       0.01056297 </v>
   <v>       0.01124587      -0.00206857      -0.01056297 </v>
   <v>       0.01124587      -0.00206857       0.01056297 </v>
   <v>      -0.01124587       0.00206857      -0.01056297 </v>
   <v>       0.01124587       0.00206857      -0.01056297 </v>
   <v>      -0.01124587      -0.00206857       0.01056297 </v>
   <v>      -0.01124587      -0.00206857      -0.01056297 </v>
   <v>       0.01124587       0.00206857       0.01056297 </v>
   <v>      -0.01124587       0.00206857       0.01056297 </v>
   <v>       0.01124587      -0.00206857      -0.01056297 </v>
   <v>       0.01124587      -0.00206857       0.01056297 </v>
   <v>      -0.01124587       0.00206857      -0.01056297 </v>
   <v>       0.01124587       0.00206857      -0.01056297 </v>
   <v>      -0.01124587      -0.00206857       0.01056297 </v>
   <v>      -0.01124587      -0.00206857      -0.01056297 </v>
   <v>       0.01124587       0.00206857       0.01056297 </v>
   <v>       0.00000000      -0.01892892       0.01030293 </v>
   <v>       0.00000000       0.01892892      -0.01030293 </v>
   <v>       0.00000000       0.01892892       0.01030293 </v>
   <v>       0.00000000      -0.01892892      -0.01030293 </v>
   <v>       0.00000000      -0.01892892       0.01030293 </v>
   <v>       0.00000000       0.01892892      -0.01030293 </v>
   <v>       0.00000000       0.01892892       0.01030293 </v>
   <v>       0.00000000      -0.01892892      -0.01030293 </v>
   <v>       0.00000000       0.06598744      -0.07188976 </v>
   <v>       0.00000000      -0.06598744       0.07188976 </v>
   <v>       0.00000000      -0.06598744      -0.07188976 </v>
   <v>       0.00000000       0.06598744       0.07188976 </v>
   <v>       0.00000000       0.06598744      -0.07188976 </v>
   <v>       0.00000000      -0.06598744       0.07188976 </v>
   <v>       0.00000000      -0.06598744      -0.07188976 </v>
   <v>       0.00000000       0.06598744       0.07188976 </v>
   <v>      -0.04355523      -0.00000000      -0.00000000 </v>
   <v>       0.04355523      -0.00000000       0.00000000 </v>
   <v>       0.04355523      -0.00000000       0.00000000 </v>
   <v>      -0.04355523      -0.00000000       0.00000000 </v>
   <v>      -0.04355523      -0.00000000      -0.00000000 </v>
   <v>       0.04355523      -0.00000000       0.00000000 </v>
   <v>       0.04355523      -0.00000000       0.00000000 </v>
   <v>      -0.04355523      -0.00000000       0.00000000 </v>
  </varray>
  <varray name="stress" >
   <v>      -1.98844498       0.00000000       0.00000000 </v>
   <v>       0.00000000      -2.79592639      -0.00000000 </v>
   <v>       0.00000000      -0.00000000     -21.58032657 </v>
  </varray>
  <energy>
   <i name="e_fr_energy">   -337.36001392 </i>
   <i name="e_wo_entrp">   -337.36001392 </i>
   <i name="e_0_energy">      0.00000000 </i>
  </energy>
  <time name="totalsc">  497.02  497.30</time>
 </calculation>
 <calculation>
  <scstep>
   <time name="dav">   76.24   76.28</time>
   <time name="total">   78.14   78.18</time>
   <energy>
    <i name="alphaZ">     70.70467880 </i>
    <i name="ewald">  -1295.01670359 </i>
    <i name="hartreedc">  -1469.34657009 </i>
    <i name="XCdc">    377.85662566 </i>
    <i name="pawpsdc">   1335.56770958 </i>
    <i name="pawaedc">  -1357.67272460 </i>
    <i name="eentropy">      0.00000000 </i>
    <i name="bandstr">  -1050.79626340 </i>
    <i name="atom">   3053.73195627 </i>
    <i name="e_fr_energy">   -334.97129136 </i>
    <i name="e_wo_entrp">   -334.97129136 </i>
    <i name="e_0_energy">   -334.97129136 </i>
   </energy>
  </scstep>
  <scstep>
   <time name="dav">   88.88   88.93</time>
   <time name="total">   90.27   90.31</time>
   <energy>
    <i name="e_fr_energy">   -334.97223429 </i>
    <i name="e_wo_entrp">   -334.97223429 </i>
    <i name="e_0_energy">   -334.97223429 </i>
   </energy>
  </scstep>
  <scstep>
   <time name="dav">   89.88   89.93</time>
   <time name="total">   91.59   91.64</time>
   <energy>
    <i name="e_fr_energy">   -334.97193416 </i>
    <i name="e_wo_entrp">   -334.97193416 </i>
    <i name="e_0_energy">   -334.97193416 </i>
   </energy>
  </scstep>
  <scstep>
