<?xml version="1.0" encoding="ISO-8859-1"?>
<modeling>
 <generator>
  <i name="program" type="string">vasp </i>
  <i name="version" type="string">5.3.5  </i>
  <i name="subversion" type="string">31Mar14 (build Nov 02 2014 15:17:37) complex                          parallel </i>
  <i name="platform" type="string">ion-Intel-MKL </i>
  <i name="date" type="string">2017 05 08 </i>
  <i name="time" type="string">02:27:44 </i>
 </generator>
 <incar>
  <i type="string" name="SYSTEM">diamond</i>
  <i type="string" name="PREC">normal</i>
  <i type="string" name="ALGO"> Very Fast</i>
  <i type="int" name="NELM">   200</i>
  <i type="int" name="IBRION">     2</i>
  <i name="EDIFF">      0.00000100</i>
  <i name="EDIFFG">      0.00100000</i>
  <i type="int" name="NSW">   200</i>
  <i type="int" name="ISIF">     2</i>
  <i name="ENCUT">    600.00000000</i>
  <i type="int" name="ISMEAR">    -5</i>
  <i type="logical" name="LWAVE"> F  </i>
  <i type="logical" name="LCHARG"> F  </i>
  <i type="int" name="NELM">   200</i>
 </incar>
 <kpoints>
  <generation param="Gamma">
   <v type="int" name="divisions">       4        4        4 </v>
   <v name="usershift">      0.00000000       0.00000000       0.00000000 </v>
   <v name="genvec1">      0.25000000       0.00000000       0.00000000 </v>
   <v name="genvec2">      0.00000000       0.25000000       0.00000000 </v>
   <v name="genvec3">      0.00000000       0.00000000       0.25000000 </v>
   <v name="shift">      0.00000000       0.00000000       0.00000000 </v>
  </generation>
  <varray name="kpointlist" >
   <v>       0.00000000       0.00000000       0.00000000 </v>
   <v>       0.25000000       0.00000000       0.00000000 </v>
   <v>       0.50000000       0.00000000       0.00000000 </v>
   <v>       0.00000000       0.25000000       0.00000000 </v>
   <v>       0.25000000       0.25000000       0.00000000 </v>
   <v>       0.50000000       0.25000000       0.00000000 </v>
   <v>      -0.25000000       0.25000000       0.00000000 </v>
   <v>       0.00000000       0.50000000       0.00000000 </v>
   <v>       0.25000000       0.50000000       0.00000000 </v>
   <v>       0.50000000       0.50000000       0.00000000 </v>
   <v>       0.00000000       0.00000000       0.25000000 </v>
   <v>       0.25000000       0.00000000       0.25000000 </v>
   <v>       0.50000000       0.00000000       0.25000000 </v>
   <v>      -0.25000000       0.00000000       0.25000000 </v>
   <v>       0.00000000       0.25000000       0.25000000 </v>
   <v>       0.25000000       0.25000000       0.25000000 </v>
   <v>       0.50000000       0.25000000       0.25000000 </v>
   <v>      -0.25000000       0.25000000       0.25000000 </v>
   <v>       0.00000000       0.50000000       0.25000000 </v>
   <v>       0.25000000       0.50000000       0.25000000 </v>
   <v>       0.50000000       0.50000000       0.25000000 </v>
   <v>      -0.25000000       0.50000000       0.25000000 </v>
   <v>       0.00000000      -0.25000000       0.25000000 </v>
   <v>       0.25000000      -0.25000000       0.25000000 </v>
   <v>       0.50000000      -0.25000000       0.25000000 </v>
   <v>      -0.25000000      -0.25000000       0.25000000 </v>
   <v>       0.00000000       0.00000000       0.50000000 </v>
   <v>       0.25000000       0.00000000       0.50000000 </v>
   <v>       0.50000000       0.00000000       0.50000000 </v>
   <v>       0.00000000       0.25000000       0.50000000 </v>
   <v>       0.25000000       0.25000000       0.50000000 </v>
   <v>       0.50000000       0.25000000       0.50000000 </v>
   <v>      -0.25000000       0.25000000       0.50000000 </v>
   <v>       0.00000000       0.50000000       0.50000000 </v>
   <v>       0.25000000       0.50000000       0.50000000 </v>
   <v>       0.50000000       0.50000000       0.50000000 </v>
  </varray>
  <varray name="weights" >
   <v>       0.01562500 </v>
   <v>       0.03125000 </v>
   <v>       0.01562500 </v>
   <v>       0.03125000 </v>
   <v>       0.03125000 </v>
   <v>       0.03125000 </v>
   <v>       0.03125000 </v>
   <v>       0.01562500 </v>
   <v>       0.03125000 </v>
   <v>       0.01562500 </v>
   <v>       0.03125000 </v>
   <v>       0.03125000 </v>
   <v>       0.03125000 </v>
   <v>       0.03125000 </v>
   <v>       0.03125000 </v>
   <v>       0.03125000 </v>
   <v>       0.03125000 </v>
   <v>       0.03125000 </v>
   <v>       0.03125000 </v>
   <v>       0.03125000 </v>
   <v>       0.03125000 </v>
   <v>       0.03125000 </v>
   <v>       0.03125000 </v>
   <v>       0.03125000 </v>
   <v>       0.03125000 </v>
   <v>       0.03125000 </v>
   <v>       0.01562500 </v>
   <v>       0.03125000 </v>
   <v>       0.01562500 </v>
   <v>       0.03125000 </v>
   <v>       0.03125000 </v>
   <v>       0.03125000 </v>
   <v>       0.03125000 </v>
   <v>       0.01562500 </v>
   <v>       0.03125000 </v>
   <v>       0.01562500 </v>
  </varray>
  <varray name="tetrahedronlist"  type="int" >
   <v type="int" >        2        1        2        5       11 </v>
   <v type="int" >        2        1        4        5       11 </v>
   <v type="int" >        2        4        5       11       15 </v>
   <v type="int" >        2        2        5       11       12 </v>
   <v type="int" >        2        5       11       12       16 </v>
   <v type="int" >        2        5       11       15       16 </v>
   <v type="int" >        2        2        3        6       12 </v>
   <v type="int" >        2        2        5        6       12 </v>
   <v type="int" >        2        5        6       12       16 </v>
   <v type="int" >        2        3        6       12       13 </v>
   <v type="int" >        2        6       12       13       17 </v>
   <v type="int" >        2        6       12       16       17 </v>
   <v type="int" >        2        2        3        7       13 </v>
   <v type="int" >        2        3        6        7       13 </v>
   <v type="int" >        2        6        7       13       17 </v>
   <v type="int" >        2        2        7       13       14 </v>
   <v type="int" >        2        7       13       14       18 </v>
   <v type="int" >        2        7       13       17       18 </v>
   <v type="int" >        2        1        2        4       14 </v>
   <v type="int" >        2        2        4        7       14 </v>
   <v type="int" >        2        4        7       14       18 </v>
   <v type="int" >        2        1        4       11       14 </v>
   <v type="int" >        2        4       11       14       15 </v>
   <v type="int" >        2        4       14       15       18 </v>
   <v type="int" >        2        4        5        9       15 </v>
   <v type="int" >        2        4        8        9       15 </v>
   <v type="int" >        2        8        9       15       19 </v>
   <v type="int" >        2        5        9       15       16 </v>
   <v type="int" >        2        9       15       16       20 </v>
   <v type="int" >        2        9       15       19       20 </v>
   <v type="int" >        2        5        6       10       16 </v>
   <v type="int" >        2        5        9       10       16 </v>
   <v type="int" >        2        9       10       16       20 </v>
   <v type="int" >        2        6       10       16       17 </v>
   <v type="int" >        2       10       16       17       21 </v>
   <v type="int" >        2       10       16       20       21 </v>
   <v type="int" >        2        6        7        9       17 </v>
   <v type="int" >        2        6        9       10       17 </v>
   <v type="int" >        2        9       10       17       21 </v>
   <v type="int" >        2        7        9       17       18 </v>
   <v type="int" >        2        9       17       18       22 </v>
   <v type="int" >        2        9       17       21       22 </v>
   <v type="int" >        2        4        7        8       18 </v>
   <v type="int" >        2        7        8        9       18 </v>
   <v type="int" >        2        8        9       18       22 </v>
   <v type="int" >        2        4        8       15       18 </v>
   <v type="int" >        2        8       15       18       19 </v>
   <v type="int" >        2        8       18       19       22 </v>
   <v type="int" >        2        7        8        9       19 </v>
   <v type="int" >        2        4        7        8       19 </v>
   <v type="int" >        2        4        7       19       23 </v>
   <v type="int" >        2        7        9       19       20 </v>
   <v type="int" >        2        7       19       20       24 </v>
   <v type="int" >        2        7       19       23       24 </v>
   <v type="int" >        2        6        9       10       20 </v>
   <v type="int" >        2        6        7        9       20 </v>
   <v type="int" >        2        6        7       20       24 </v>
   <v type="int" >        2        6       10       20       21 </v>
   <v type="int" >        2        6       20       21       25 </v>
   <v type="int" >        2        6       20       24       25 </v>
   <v type="int" >        2        5        9       10       21 </v>
   <v type="int" >        2        5        6       10       21 </v>
   <v type="int" >        2        5        6       21       25 </v>
   <v type="int" >        2        5        9       21       22 </v>
   <v type="int" >        2        5       21       22       26 </v>
   <v type="int" >        2        5       21       25       26 </v>
   <v type="int" >        2        4        8        9       22 </v>
   <v type="int" >        2        4        5        9       22 </v>
   <v type="int" >        2        4        5       22       26 </v>
   <v type="int" >        2        4        8       19       22 </v>
   <v type="int" >        2        4       19       22       23 </v>
   <v type="int" >        2        4       22       23       26 </v>
   <v type="int" >        2        2        4        7       23 </v>
   <v type="int" >        2        1        2        4       23 </v>
   <v type="int" >        2        1        2       11       23 </v>
   <v type="int" >        2        2        7       23       24 </v>
   <v type="int" >        2        2       12       23       24 </v>
   <v type="int" >        2        2       11       12       23 </v>
   <v type="int" >        2        3        6        7       24 </v>
   <v type="int" >        2        2        3        7       24 </v>
   <v type="int" >        2        2        3       12       24 </v>
   <v type="int" >        2        3        6       24       25 </v>
   <v type="int" >        2        3       13       24       25 </v>
   <v type="int" >        2        3       12       13       24 </v>
   <v type="int" >        2        2        5        6       25 </v>
   <v type="int" >        2        2        3        6       25 </v>
   <v type="int" >        2        2        3       13       25 </v>
   <v type="int" >        2        2        5       25       26 </v>
   <v type="int" >        2        2       14       25       26 </v>
   <v type="int" >        2        2       13       14       25 </v>
   <v type="int" >        2        1        4        5       26 </v>
   <v type="int" >        2        1        2        5       26 </v>
   <v type="int" >        2        1        2       14       26 </v>
   <v type="int" >        2        1        4       23       26 </v>
   <v type="int" >        2        1       11       23       26 </v>
   <v type="int" >        2        1       11       14       26 </v>
   <v type="int" >        2       11       12       16       27 </v>
   <v type="int" >        2       11       15       16       27 </v>
   <v type="int" >        2       15       16       27       30 </v>
   <v type="int" >        2       12       16       27       28 </v>
   <v type="int" >        2       16       27       28       31 </v>
   <v type="int" >        2       16       27       30       31 </v>
   <v type="int" >        2       12       13       17       28 </v>
   <v type="int" >        2       12       16       17       28 </v>
   <v type="int" >        2       16       17       28       31 </v>
   <v type="int" >        2       13       17       28       29 </v>
   <v type="int" >        2       17       28       29       32 </v>
   <v type="int" >        2       17       28       31       32 </v>
   <v type="int" >        2       13       14       18       29 </v>
   <v type="int" >        2       13       17       18       29 </v>
   <v type="int" >        2       17       18       29       32 </v>
   <v type="int" >        2       14       18       28       29 </v>
   <v type="int" >        2       18       28       29       33 </v>
   <v type="int" >        2       18       29       32       33 </v>
   <v type="int" >        2       11       14       15       28 </v>
   <v type="int" >        2       14       15       18       28 </v>
   <v type="int" >        2       15       18       28       33 </v>
   <v type="int" >        2       11       15       27       28 </v>
   <v type="int" >        2       15       27       28       30 </v>
   <v type="int" >        2       15       28       30       33 </v>
   <v type="int" >        2       15       16       20       30 </v>
   <v type="int" >        2       15       19       20       30 </v>
   <v type="int" >        2       19       20       30       34 </v>
   <v type="int" >        2       16       20       30       31 </v>
   <v type="int" >        2       20       30       31       35 </v>
   <v type="int" >        2       20       30       34       35 </v>
   <v type="int" >        2       16       17       21       31 </v>
   <v type="int" >        2       16       20       21       31 </v>
   <v type="int" >        2       20       21       31       35 </v>
   <v type="int" >        2       17       21       31       32 </v>
   <v type="int" >        2       21       31       32       36 </v>
   <v type="int" >        2       21       31       35       36 </v>
   <v type="int" >        2       17       18       22       32 </v>
   <v type="int" >        2       17       21       22       32 </v>
   <v type="int" >        2       21       22       32       36 </v>
   <v type="int" >        2       18       22       32       33 </v>
   <v type="int" >        2       22       32       33       35 </v>
   <v type="int" >        2       22       32       35       36 </v>
   <v type="int" >        2       15       18       19       33 </v>
   <v type="int" >        2       18       19       22       33 </v>
   <v type="int" >        2       19       22       33       35 </v>
   <v type="int" >        2       15       19       30       33 </v>
   <v type="int" >        2       19       30       33       34 </v>
   <v type="int" >        2       19       33       34       35 </v>
   <v type="int" >        2       19       20       24       34 </v>
   <v type="int" >        2       19       23       24       34 </v>
   <v type="int" >        2       23       24       30       34 </v>
   <v type="int" >        2       20       24       34       35 </v>
   <v type="int" >        2       24       33       34       35 </v>
   <v type="int" >        2       24       30       33       34 </v>
   <v type="int" >        2       20       21       25       35 </v>
   <v type="int" >        2       20       24       25       35 </v>
   <v type="int" >        2       24       25       33       35 </v>
   <v type="int" >        2       21       25       35       36 </v>
   <v type="int" >        2       25       32       35       36 </v>
   <v type="int" >        2       25       32       33       35 </v>
   <v type="int" >        2       21       22       26       36 </v>
   <v type="int" >        2       21       25       26       36 </v>
   <v type="int" >        2       25       26       32       36 </v>
   <v type="int" >        2       22       26       35       36 </v>
   <v type="int" >        2       26       31       35       36 </v>
   <v type="int" >        2       26       31       32       36 </v>
   <v type="int" >        2       19       22       23       35 </v>
   <v type="int" >        2       22       23       26       35 </v>
   <v type="int" >        2       23       26       31       35 </v>
   <v type="int" >        2       19       23       34       35 </v>
   <v type="int" >        2       23       30       34       35 </v>
   <v type="int" >        2       23       30       31       35 </v>
   <v type="int" >        2       12       23       24       30 </v>
   <v type="int" >        2       11       12       23       30 </v>
   <v type="int" >        2       11       12       27       30 </v>
   <v type="int" >        2       12       24       30       33 </v>
   <v type="int" >        2       12       28       30       33 </v>
   <v type="int" >        2       12       27       28       30 </v>
   <v type="int" >        2       13       24       25       33 </v>
   <v type="int" >        2       12       13       24       33 </v>
   <v type="int" >        2       12       13       28       33 </v>
   <v type="int" >        2       13       25       32       33 </v>
   <v type="int" >        2       13       29       32       33 </v>
   <v type="int" >        2       13       28       29       33 </v>
   <v type="int" >        2       14       25       26       32 </v>
   <v type="int" >        2       13       14       25       32 </v>
   <v type="int" >        2       13       14       29       32 </v>
   <v type="int" >        2       14       26       31       32 </v>
   <v type="int" >        2       14       28       31       32 </v>
   <v type="int" >        2       14       28       29       32 </v>
   <v type="int" >        2       11       23       26       31 </v>
   <v type="int" >        2       11       14       26       31 </v>
   <v type="int" >        2       11       14       28       31 </v>
   <v type="int" >        2       11       23       30       31 </v>
   <v type="int" >        2       11       27       30       31 </v>
   <v type="int" >        2       11       27       28       31 </v>
  </varray>
  <i name="volumeweight">      0.00260417 </i>
 </kpoints>
 <parameters>
  <separator name="general" >
   <i type="string" name="SYSTEM">diamond</i>
   <i type="logical" name="LCOMPAT"> F  </i>
  </separator>
  <separator name="electronic" >
   <i type="string" name="PREC">normal</i>
   <i name="ENMAX">    600.00000000</i>
   <i name="ENAUG">    644.87300000</i>
   <i name="EDIFF">      0.00000100</i>
   <i type="int" name="IALGO">    48</i>
   <i type="int" name="IWAVPR">    11</i>
   <i type="int" name="NBANDS">    46</i>
   <i name="NELECT">     68.00000000</i>
   <i type="int" name="TURBO">     0</i>
   <i type="int" name="IRESTART">     0</i>
   <i type="int" name="NREBOOT">     0</i>
   <i type="int" name="NMIN">     0</i>
   <i name="EREF">      0.00000000</i>
   <separator name="electronic smearing" >
    <i type="int" name="ISMEAR">    -5</i>
    <i name="SIGMA">      0.20000000</i>
    <i name="KSPACING">      0.50000000</i>
    <i type="logical" name="KGAMMA"> T  </i>
   </separator>
   <separator name="electronic projectors" >
    <i type="logical" name="LREAL"> F  </i>
    <v name="ROPT">      0.00000000      0.00000000</v>
    <i type="int" name="LMAXPAW">  -100</i>
    <i type="int" name="LMAXMIX">     2</i>
    <i type="logical" name="NLSPLINE"> F  </i>
   </separator>
   <separator name="electronic startup" >
    <i type="int" name="ISTART">     0</i>
    <i type="int" name="ICHARG">     2</i>
    <i type="int" name="INIWAV">     1</i>
   </separator>
   <separator name="electronic spin" >
    <i type="int" name="ISPIN">     1</i>
    <i type="logical" name="LNONCOLLINEAR"> F  </i>
    <v name="MAGMOM">      1.00000000      1.00000000      1.00000000      1.00000000      1.00000000      1.00000000      1.00000000      1.00000000      1.00000000      1.00000000      1.00000000      1.00000000      1.00000000      1.00000000      1.00000000      1.00000000      1.00000000      1.00000000      1.00000000      1.00000000
</v>
    <i name="NUPDOWN">     -1.00000000</i>
    <i type="logical" name="LSORBIT"> F  </i>
    <v name="SAXIS">      0.00000000      0.00000000      1.00000000</v>
    <i type="logical" name="LSPIRAL"> F  </i>
    <v name="QSPIRAL">      0.00000000      0.00000000      0.00000000</v>
    <i type="logical" name="LZEROZ"> F  </i>
   </separator>
   <separator name="electronic exchange-correlation" >
    <i type="logical" name="LASPH"> F  </i>
    <i type="logical" name="LMETAGGA"> F  </i>
   </separator>
   <separator name="electronic convergence" >
    <i type="int" name="NELM">   200</i>
    <i type="int" name="NELMDL">     0</i>
    <i type="int" name="NELMIN">     2</i>
    <i name="ENINI">    600.00000000</i>
    <separator name="electronic convergence detail" >
     <i type="logical" name="LDIAG"> T  </i>
     <i type="logical" name="LSUBROT"> F  </i>
     <i name="WEIMIN">      0.00100000</i>
     <i name="EBREAK">      0.00000001</i>
     <i name="DEPER">      0.30000000</i>
     <i type="int" name="NRMM">     4</i>
     <i name="TIME">      0.40000000</i>
    </separator>
   </separator>
   <separator name="electronic mixer" >
    <i name="AMIX">      0.40000000</i>
    <i name="BMIX">      1.00000000</i>
    <i name="AMIN">      0.10000000</i>
    <i name="AMIX_MAG">      1.60000000</i>
    <i name="BMIX_MAG">      1.00000000</i>
    <separator name="electronic mixer details" >
     <i type="int" name="IMIX">     4</i>
     <i type="int" name="MAXMIX">   -45</i>
     <i name="WC">    100.00000000</i>
     <i type="int" name="INIMIX">     1</i>
     <i type="int" name="MIXPRE">     1</i>
     <i type="int" name="MREMOVE">     5</i>
    </separator>
   </separator>
   <separator name="electronic dipolcorrection" >
    <i type="logical" name="LDIPOL"> F  </i>
    <i type="logical" name="LMONO"> F  </i>
    <i type="int" name="IDIPOL">     0</i>
    <i name="EPSILON">      1.00000000</i>
    <v name="DIPOL">   -100.00000000   -100.00000000   -100.00000000</v>
    <i name="EFIELD">      0.00000000</i>
   </separator>
  </separator>
  <separator name="grids" >
   <i type="int" name="NGX">    40</i>
   <i type="int" name="NGY">    40</i>
   <i type="int" name="NGZ">    40</i>
   <i type="int" name="NGXF">    80</i>
   <i type="int" name="NGYF">    80</i>
   <i type="int" name="NGZF">    80</i>
   <i type="logical" name="ADDGRID"> F  </i>
  </separator>
  <separator name="ionic" >
   <i type="int" name="NSW">   200</i>
   <i type="int" name="IBRION">     2</i>
   <i type="int" name="ISIF">     2</i>
   <i name="PSTRESS">      0.00000000</i>
   <i name="EDIFFG">      0.00100000</i>
   <i type="int" name="NFREE">     1</i>
   <i name="POTIM">      0.50000000</i>
   <i name="SMASS">     -3.00000000</i>
   <i name="SCALEE">      1.00000000</i>
  </separator>
  <separator name="ionic md" >
   <i name="TEBEG">      0.00010000</i>
   <i name="TEEND">      0.00010000</i>
   <i type="int" name="NBLOCK">     1</i>
   <i type="int" name="KBLOCK">   200</i>
   <i type="int" name="NPACO">   256</i>
   <i name="APACO">     16.00000000</i>
  </separator>
  <separator name="symmetry" >
   <i type="int" name="ISYM">     2</i>
   <i name="SYMPREC">      0.00001000</i>
  </separator>
  <separator name="dos" >
   <i type="logical" name="LORBIT"> F  </i>
   <v name="RWIGS">     -1.00000000     -1.00000000</v>
   <i type="int" name="NEDOS">   301</i>
   <i name="EMIN">     10.00000000</i>
   <i name="EMAX">    -10.00000000</i>
   <i name="EFERMI">      0.00000000</i>
  </separator>
  <separator name="writing" >
   <i type="int" name="NWRITE">     2</i>
   <i type="logical" name="LWAVE"> F  </i>
   <i type="logical" name="LCHARG"> F  </i>
   <i type="logical" name="LPARD"> F  </i>
   <i type="logical" name="LVTOT"> F  </i>
   <i type="logical" name="LVHAR"> F  </i>
   <i type="logical" name="LELF"> F  </i>
   <i type="logical" name="LOPTICS"> F  </i>
   <v name="STM">      0.00000000      0.00000000      0.00000000      0.00000000      0.00000000      0.00000000      0.00000000</v>
  </separator>
  <separator name="performance" >
   <i type="int" name="NPAR">     2</i>
   <i type="int" name="NSIM">     4</i>
   <i type="int" name="NBLK">    -1</i>
   <i type="logical" name="LPLANE"> T  </i>
   <i type="logical" name="LSCALAPACK"> T  </i>
   <i type="logical" name="LSCAAWARE"> F  </i>
   <i type="logical" name="LSCALU"> F  </i>
   <i type="logical" name="LASYNC"> F  </i>
   <i type="logical" name="LORBITALREAL"> F  </i>
  </separator>
  <separator name="miscellaneous" >
   <i type="int" name="IDIOT">     3</i>
   <i type="logical" name="LMUSIC"> F  </i>
   <v name="POMASS">     12.01100000      1.00000000</v>
   <v name="DARWINR">      0.00000000      0.00000000</v>
   <v name="DARWINV">      1.00000000      1.00000000</v>
   <i type="logical" name="LCORR"> T  </i>
  </separator>
  <i type="logical" name="GGA_COMPAT"> T  </i>
  <i type="logical" name="LBERRY"> F  </i>
  <i type="int" name="ICORELEVEL">     0</i>
  <i type="logical" name="LDAU"> F  </i>
  <i type="int" name="I_CONSTRAINED_M">     0</i>
  <separator name="electronic exchange-correlation" >
   <i type="string" name="GGA">--</i>
   <i type="int" name="VOSKOWN">     0</i>
   <i type="logical" name="LHFCALC"> F  </i>
   <i type="string" name="PRECFOCK"></i>
   <i type="logical" name="LSYMGRAD"> F  </i>
   <i type="logical" name="LHFONE"> F  </i>
   <i type="logical" name="LRHFCALC"> F  </i>
   <i type="logical" name="LTHOMAS"> F  </i>
   <i type="logical" name="LMODELHF"> F  </i>
   <i name="ENCUT4O">     -1.00000000</i>
   <i type="int" name="EXXOEP">     0</i>
   <i type="int" name="FOURORBIT">     0</i>
   <i name="AEXX">      0.00000000</i>
   <i name="HFALPHA">      0.00000000</i>
   <i name="MCALPHA">      0.00000000</i>
   <i name="ALDAX">      1.00000000</i>
   <i name="AGGAX">      1.00000000</i>
   <i name="ALDAC">      1.00000000</i>
   <i name="AGGAC">      1.00000000</i>
   <i type="int" name="NKREDX">     1</i>
   <i type="int" name="NKREDY">     1</i>
   <i type="int" name="NKREDZ">     1</i>
   <i type="logical" name="SHIFTRED"> F  </i>
   <i type="logical" name="ODDONLY"> F  </i>
   <i type="logical" name="EVENONLY"> F  </i>
   <i type="int" name="LMAXFOCK">     0</i>
   <i type="int" name="NMAXFOCKAE">     0</i>
   <i type="logical" name="LFOCKAEDFT"> F  </i>
   <i name="HFSCREEN">      0.00000000</i>
   <i name="HFSCREENC">      0.00000000</i>
   <i type="int" name="NBANDSGWLOW">     0</i>
  </separator>
  <separator name="vdW DFT" >
   <i type="logical" name="LUSE_VDW"> F  </i>
   <i name="Zab_VDW">     -0.84910000</i>
   <i name="PARAM1">      0.12340000</i>
   <i name="PARAM2">      1.00000000</i>
   <i name="PARAM3">      0.00000000</i>
  </separator>
  <separator name="model GW" >
   <i type="int" name="MODEL_GW">     0</i>
   <i name="MODEL_EPS0">      7.68143590</i>
   <i name="MODEL_ALPHA">      1.00000000</i>
  </separator>
  <separator name="linear response parameters" >
   <i type="logical" name="LEPSILON"> F  </i>
   <i type="logical" name="LRPA"> F  </i>
   <i type="logical" name="LNABLA"> F  </i>
   <i type="logical" name="LVEL"> F  </i>
   <i type="int" name="KINTER">     0</i>
   <i name="CSHIFT">      0.10000000</i>
   <i name="OMEGAMAX">     -1.00000000</i>
   <i name="DEG_THRESHOLD">      0.00200000</i>
  </separator>
  <separator name="orbital magnetization" >
   <i type="logical" name="NUCIND"> F  </i>
   <v name="MAGPOS">      0.00000000      0.00000000      0.00000000</v>
   <i type="logical" name="LNICSALL"> T  </i>
   <i type="logical" name="ORBITALMAG"> F  </i>
   <i type="logical" name="LMAGBLOCH"> F  </i>
   <i type="logical" name="LCHIMAG"> F  </i>
   <i type="logical" name="LGAUGE"> T  </i>
   <i type="int" name="MAGATOM">     0</i>
   <v name="MAGDIPOL">      0.00000000      0.00000000      0.00000000</v>
   <v name="AVECCONST">      0.00000000      0.00000000      0.00000000</v>
  </separator>
  <separator name="response functions" >
   <i type="logical" name="LADDER"> F  </i>
   <i type="logical" name="LFXC"> F  </i>
   <i type="logical" name="LHARTREE"> T  </i>
   <i type="int" name="IBSE">     0</i>
   <i type="logical" name="LTCTE"> F  </i>
   <i type="logical" name="LTETE"> F  </i>
   <i type="logical" name="LTRIPLET"> F  </i>
   <i type="logical" name="LFXCEPS"> F  </i>
   <i type="logical" name="LFXHEG"> F  </i>
   <i type="logical" name="L2ORDER"> F  </i>
   <i type="logical" name="LUSEW"> F  </i>
   <i name="ENCUTGW">     -2.00000000</i>
   <i name="ENCUTGWSOFT">     -2.00000000</i>
   <i name="ENCUTLF">     -1.00000000</i>
   <i type="int" name="LMAXMP2">    -1</i>
   <i name="SCISSOR">      0.00000000</i>
   <i type="int" name="NOMEGA">     0</i>
   <i type="int" name="NOMEGAR">     0</i>
   <i type="int" name="NBANDSGW">    -1</i>
   <i type="int" name="NBANDSO">    -1</i>
   <i type="int" name="NBANDSV">    -1</i>
   <i type="int" name="NELM">   200</i>
   <i type="int" name="DIM">     3</i>
   <i type="int" name="ANTIRES">     0</i>
   <i name="OMEGAMAX">    -30.00000000</i>
   <i name="OMEGAMIN">    -30.00000000</i>
   <i name="OMEGATL">   -200.00000000</i>
   <i type="int" name="OMEGAGRID">     0</i>
   <i name="CSHIFT">     -0.10000000</i>
   <i type="logical" name="SELFENERGY"> F  </i>
   <i type="logical" name="LSPECTRAL"> F  </i>
   <i type="logical" name="ODDONLYGW"> F  </i>
   <i type="logical" name="EVENONLYGW"> F  </i>
   <i type="int" name="NKREDLFX">     1</i>
   <i type="int" name="NKREDLFY">     1</i>
   <i type="int" name="NKREDLFZ">     1</i>
   <i type="int" name="MAXMEM">  1800</i>
   <i type="int" name="TELESCOPE">     0</i>
   <i type="int" name="TAUPAR">     1</i>
  </separator>
  <separator name="External order field" >
   <i name="OFIELD_KAPPA">      0.00000000</i>
   <v name="OFIELD_K">      0.00000000      0.00000000      0.00000000</v>
   <i name="OFIELD_Q6_NEAR">      0.00000000</i>
   <i name="OFIELD_Q6_FAR">      0.00000000</i>
   <i name="OFIELD_A">      0.00000000</i>
  </separator>
 </parameters>
 <atominfo>
  <atoms>      20 </atoms>
  <types>       2 </types>
  <array name="atoms" >
   <dimension dim="1">ion</dimension>
   <field type="string">element</field>
   <field type="int">atomtype</field>
   <set>
    <rc><c>C </c><c>   1</c></rc>
    <rc><c>C </c><c>   1</c></rc>
    <rc><c>C </c><c>   1</c></rc>
    <rc><c>C </c><c>   1</c></rc>
    <rc><c>C </c><c>   1</c></rc>
    <rc><c>C </c><c>   1</c></rc>
    <rc><c>C </c><c>   1</c></rc>
    <rc><c>C </c><c>   1</c></rc>
    <rc><c>C </c><c>   1</c></rc>
    <rc><c>C </c><c>   1</c></rc>
    <rc><c>C </c><c>   1</c></rc>
    <rc><c>C </c><c>   1</c></rc>
    <rc><c>C </c><c>   1</c></rc>
    <rc><c>C </c><c>   1</c></rc>
    <rc><c>C </c><c>   1</c></rc>
    <rc><c>C </c><c>   1</c></rc>
    <rc><c>H </c><c>   2</c></rc>
    <rc><c>H </c><c>   2</c></rc>
    <rc><c>H </c><c>   2</c></rc>
    <rc><c>H </c><c>   2</c></rc>
   </set>
  </array>
  <array name="atomtypes" >
   <dimension dim="1">type</dimension>
   <field type="int">atomspertype</field>
   <field type="string">element</field>
   <field>mass</field>
   <field>valence</field>
   <field type="string">pseudopotential</field>
   <set>
    <rc><c>  16</c><c>C </c><c>     12.01100000</c><c>      4.00000000</c><c> PAW_PBE C 08Apr2002                    </c></rc>
    <rc><c>   4</c><c>H </c><c>      1.00000000</c><c>      1.00000000</c><c> PAW_PBE H 15Jun2001                    </c></rc>
   </set>
  </array>
 </atominfo>
 <structure name="initialpos" >
  <crystal>
   <varray name="basis" >
    <v>       6.34999990       0.00000000       0.00000000 </v>
    <v>       0.00000000       6.34999990       0.00000000 </v>
    <v>       0.00000000       0.00000000       6.34999990 </v>
   </varray>
   <i name="volume">    256.04786346 </i>
   <varray name="rec_basis" >
    <v>       0.15748032       0.00000000       0.00000000 </v>
    <v>       0.00000000       0.15748032       0.00000000 </v>
    <v>       0.00000000       0.00000000       0.15748032 </v>
   </varray>
  </crystal>
  <varray name="positions" >
   <v>       0.45587999       0.83459997       0.53931999 </v>
   <v>       0.45587999       0.04190000       0.33202001 </v>
   <v>       0.45587999       0.11777000       0.61519998 </v>
   <v>       0.69524998       0.99809003       0.49551001 </v>
   <v>       0.60030001       0.52968001       0.15026000 </v>
   <v>       0.54931998       0.63409001       0.89600998 </v>
   <v>       0.56970000       0.35765001       0.93207002 </v>
   <v>       0.34876001       0.49586999       0.03313000 </v>
   <v>       0.08224000       0.01558000       0.15304001 </v>
   <v>       0.03126000       0.11999000       0.89879000 </v>
   <v>       0.05164000       0.84355003       0.93484998 </v>
   <v>       0.83069998       0.98176998       0.03591000 </v>
   <v>       0.07562000       0.53223002       0.66030997 </v>
   <v>       0.02464000       0.63664001       0.40605000 </v>
   <v>       0.04502000       0.36019999       0.44211999 </v>
   <v>       0.82406998       0.49842000       0.54316997 </v>
   <v>       0.51572001       0.99809003       0.49551001 </v>
   <v>       0.51703000       0.50432998       0.00287000 </v>
   <v>       0.99896002       0.99023002       0.00565000 </v>
   <v>       0.99234003       0.50687998       0.51292002 </v>
  </varray>
 </structure>
 <calculation>
  <scstep>
   <time name="diag">   60.28  120.66</time>
   <time name="diis">   68.60  137.35</time>
   <time name="orth">    3.32    6.64</time>
   <time name="total">  132.89  266.03</time>
   <energy>
    <i name="alphaZ">     89.14447120 </i>
    <i name="ewald">  -1475.88535045 </i>
    <i name="hartreedc">   -762.71483223 </i>
    <i name="XCdc">    216.88103171 </i>
    <i name="pawpsdc">    608.42839238 </i>
    <i name="pawaedc">   -626.87209802 </i>
    <i name="eentropy">      0.00000000 </i>
    <i name="bandstr">    264.83328217 </i>
    <i name="atom">   2404.35655786 </i>
    <i name="e_fr_energy">    718.17145461 </i>
    <i name="e_wo_entrp">    718.17145461 </i>
    <i name="e_0_energy">    718.17145461 </i>
   </energy>
  </scstep>
  <scstep>
   <time name="diag">   56.72  113.55</time>
   <time name="diis">   63.62  127.38</time>
   <time name="orth">    3.37    6.75</time>
   <time name="total">  123.77  247.82</time>
   <energy>
    <i name="e_fr_energy">    172.23649189 </i>
    <i name="e_wo_entrp">    172.23649189 </i>
    <i name="e_0_energy">    172.23649189 </i>
   </energy>
  </scstep>
  <scstep>
   <time name="diag">   57.20  114.53</time>
   <time name="diis">   70.41  151.57</time>
   <time name="orth">    9.44   28.33</time>
   <time name="total">  137.14  294.64</time>
   <energy>
    <i name="e_fr_energy">      6.50487734 </i>
    <i name="e_wo_entrp">      6.50487734 </i>
    <i name="e_0_energy">      6.50487734 </i>
   </energy>
  </scstep>
  <scstep>
   <time name="diag">   89.82  269.76</time>
   <time name="diis">   90.28  271.15</time>
   <time name="orth">   11.76   35.32</time>
   <time name="total">  191.93  576.44</time>
   <energy>
    <i name="e_fr_energy">    -43.73602430 </i>
    <i name="e_wo_entrp">    -43.73602430 </i>
    <i name="e_0_energy">    -43.73602430 </i>
   </energy>
  </scstep>
  <scstep>
   <time name="diag">   93.75  281.56</time>
   <time name="diis">   96.83  290.81</time>
   <time name="orth">    9.16   27.50</time>
   <time name="total">  199.80  600.09</time>
   <energy>
    <i name="e_fr_energy">    -59.50304529 </i>
    <i name="e_wo_entrp">    -59.50304529 </i>
    <i name="e_0_energy">    -59.50304529 </i>
   </energy>
  </scstep>
  <scstep>
   <time name="diag">   91.72  275.37</time>
   <time name="diis">   91.86  275.61</time>
   <time name="orth">   11.51   34.55</time>
   <time name="total">  195.31  586.19</time>
   <energy>
    <i name="e_fr_energy">    -65.83964594 </i>
    <i name="e_wo_entrp">    -65.83964594 </i>
    <i name="e_0_energy">    -65.83964594 </i>
   </energy>
  </scstep>
  <scstep>
   <time name="diag">   97.18  291.59</time>
   <time name="diis">   94.25  282.81</time>
   <time name="orth">    7.15   21.45</time>
   <time name="total">  198.80  596.50</time>
   <energy>
    <i name="e_fr_energy">    -68.90601671 </i>
    <i name="e_wo_entrp">    -68.90601671 </i>
    <i name="e_0_energy">    -68.90601671 </i>
   </energy>
  </scstep>
  <scstep>
   <time name="diag">   95.66  287.04</time>
   <time name="diis">   91.95  275.89</time>
   <time name="orth">   12.28   36.83</time>
   <time name="total">  200.01  600.14</time>
   <energy>
    <i name="e_fr_energy">    -70.63657283 </i>
    <i name="e_wo_entrp">    -70.63657283 </i>
    <i name="e_0_energy">    -70.63657283 </i>
   </energy>
  </scstep>
  <scstep>
   <time name="diag">   89.58  268.79</time>
   <time name="diis">  235.21  705.76</time>
   <time name="orth">   10.00   30.01</time>
   <time name="total">  334.90 1004.88</time>
   <energy>
    <i name="e_fr_energy">    -73.10961785 </i>
    <i name="e_wo_entrp">    -73.10961785 </i>
    <i name="e_0_energy">    -73.10961785 </i>
   </energy>
  </scstep>
  <scstep>
   <time name="diag">   93.51  280.57</time>
   <time name="diis">  217.84  653.65</time>
   <time name="orth">    8.13   24.39</time>
   <time name="total">  319.54  958.79</time>
   <energy>
    <i name="e_fr_energy">    -73.48621079 </i>
    <i name="e_wo_entrp">    -73.48621079 </i>
    <i name="e_0_energy">    -73.48621079 </i>
   </energy>
  </scstep>
  <scstep>
   <time name="diag">   93.49  280.52</time>
   <time name="diis">  235.42  706.39</time>
   <time name="orth">   13.57   40.72</time>
   <time name="total">  342.56 1027.86</time>
   <energy>
    <i name="e_fr_energy">    -73.59316727 </i>
    <i name="e_wo_entrp">    -73.59316727 </i>
    <i name="e_0_energy">    -73.59316727 </i>
   </energy>
  </scstep>
  <scstep>
   <time name="diag">   92.86  278.61</time>
   <time name="diis">  220.42  661.38</time>
   <time name="orth">   11.03   33.09</time>
   <time name="total">  336.09 1008.46</time>
   <energy>
    <i name="e_fr_energy">    -73.59985698 </i>
    <i name="e_wo_entrp">    -73.59985698 </i>
    <i name="e_0_energy">    -73.59985698 </i>
   </energy>
  </scstep>
  <scstep>
   <time name="diag">   93.80  281.48</time>
   <time name="diis">  174.27  522.89</time>
   <time name="orth">   11.29   33.86</time>
   <time name="total">  291.75  875.40</time>
   <energy>
    <i name="e_fr_energy">    -75.55958726 </i>
    <i name="e_wo_entrp">    -75.55958726 </i>
    <i name="e_0_energy">    -75.55958726 </i>
   </energy>
  </scstep>
  <scstep>
   <time name="diag">   93.29  279.93</time>
   <time name="diis">  178.37  535.22</time>
   <time name="orth">    8.64   25.90</time>
   <time name="total">  291.91  875.90</time>
   <energy>
    <i name="e_fr_energy">    -72.12981593 </i>
    <i name="e_wo_entrp">    -72.12981593 </i>
    <i name="e_0_energy">    -72.12981593 </i>
   </energy>
  </scstep>
  <scstep>
   <time name="diag">   97.28  291.89</time>
   <time name="diis">  162.78  488.44</time>
   <time name="orth">    9.51   28.55</time>
   <time name="total">  282.54  847.78</time>
   <energy>
    <i name="e_fr_energy">    -71.31276098 </i>
    <i name="e_wo_entrp">    -71.31276098 </i>
    <i name="e_0_energy">    -71.31276098 </i>
   </energy>
  </scstep>
  <scstep>
   <time name="diag">   95.40  286.26</time>
   <time name="diis">  169.77  509.41</time>
   <time name="orth">   10.14   30.42</time>
   <time name="total">  286.64  860.09</time>
   <energy>
    <i name="e_fr_energy">    -71.56097025 </i>
    <i name="e_wo_entrp">    -71.56097025 </i>
    <i name="e_0_energy">    -71.56097025 </i>
   </energy>
  </scstep>
  <scstep>
   <time name="diag">   93.93  281.85</time>
   <time name="diis">  173.73  521.27</time>
   <time name="orth">   11.40   34.21</time>
   <time name="total">  290.65  872.14</time>
   <energy>
    <i name="e_fr_energy">    -71.04562601 </i>
    <i name="e_wo_entrp">    -71.04562601 </i>
    <i name="e_0_energy">    -71.04562601 </i>
   </energy>
  </scstep>
  <scstep>
   <time name="diag">   97.51  292.59</time>
   <time name="diis">  195.05  585.27</time>
   <time name="orth">   11.64   34.93</time>
   <time name="total">  316.17  948.69</time>
   <energy>
    <i name="e_fr_energy">    -70.98748594 </i>
    <i name="e_wo_entrp">    -70.98748594 </i>
    <i name="e_0_energy">    -70.98748594 </i>
   </energy>
  </scstep>
  <scstep>
   <time name="diag">   92.89  278.73</time>
   <time name="diis">  190.10  570.40</time>
   <time name="orth">    9.14   27.42</time>
   <time name="total">  304.28  912.99</time>
   <energy>
    <i name="e_fr_energy">    -70.98669235 </i>
    <i name="e_wo_entrp">    -70.98669235 </i>
    <i name="e_0_energy">    -70.98669235 </i>
   </energy>
  </scstep>
  <scstep>
   <time name="diag">   94.72  284.22</time>
   <time name="diis">  177.53  532.69</time>
   <time name="orth">    9.97   29.91</time>
   <time name="total">  293.28  879.99</time>
   <energy>
    <i name="e_fr_energy">    -70.98723912 </i>
    <i name="e_wo_entrp">    -70.98723912 </i>
    <i name="e_0_energy">    -70.98723912 </i>
   </energy>
  </scstep>
  <scstep>
   <time name="diag">   91.06  273.24</time>
   <time name="diis">  169.41  508.33</time>
   <time name="orth">   13.11   39.34</time>
   <time name="total">  286.57  859.90</time>
   <energy>
    <i name="e_fr_energy">    -70.98741473 </i>
    <i name="e_wo_entrp">    -70.98741473 </i>
    <i name="e_0_energy">    -70.98741473 </i>
   </energy>
  </scstep>
  <scstep>
   <time name="diag">   92.09  276.32</time>
   <time name="diis">  172.73  518.29</time>
   <time name="orth">    9.42   28.25</time>
   <time name="total">  287.32  862.14</time>
   <energy>
    <i name="e_fr_energy">    -70.98748335 </i>
    <i name="e_wo_entrp">    -70.98748335 </i>
    <i name="e_0_energy">    -70.98748335 </i>
   </energy>
  </scstep>
  <scstep>
   <time name="diag">   93.47  280.44</time>
   <time name="diis">  168.02  504.17</time>
   <time name="orth">   10.14   30.43</time>
   <time name="total">  282.57  847.92</time>
   <energy>
    <i name="e_fr_energy">    -70.98754108 </i>
    <i name="e_wo_entrp">    -70.98754108 </i>
    <i name="e_0_energy">    -70.98754108 </i>
   </energy>
  </scstep>
  <scstep>
   <time name="diag">   95.72  287.19</time>
   <time name="diis">  175.96  527.98</time>
   <time name="orth">    8.68   26.04</time>
   <time name="total">  293.07  879.35</time>
   <energy>
    <i name="e_fr_energy">    -70.98756086 </i>
    <i name="e_wo_entrp">    -70.98756086 </i>
    <i name="e_0_energy">    -70.98756086 </i>
   </energy>
  </scstep>
  <scstep>
   <time name="diag">   91.64  274.98</time>
   <time name="diis">  179.45  538.44</time>
   <time name="orth">   12.52   37.58</time>
   <time name="total">  296.44  889.48</time>
   <energy>
    <i name="e_fr_energy">    -70.98756631 </i>
    <i name="e_wo_entrp">    -70.98756631 </i>
    <i name="e_0_energy">    -70.98756631 </i>
   </energy>
  </scstep>
  <scstep>
   <time name="diag">   94.78  284.37</time>
   <time name="diis">  132.93  398.86</time>
   <time name="orth">    8.89   26.67</time>
   <time name="total">  248.06  744.30</time>
   <energy>
    <i name="e_fr_energy">    -70.98757547 </i>
    <i name="e_wo_entrp">    -70.98757547 </i>
    <i name="e_0_energy">    -70.98757547 </i>
   </energy>
  </scstep>
  <scstep>
   <time name="diag">   94.33  283.05</time>
   <time name="diis">  113.55  340.73</time>
   <time name="orth">   11.80   35.41</time>
   <time name="total">  220.36  661.21</time>
   <energy>
    <i name="alphaZ">     89.14447120 </i>
    <i name="ewald">  -1475.88535045 </i>
    <i name="hartreedc">   -812.97856816 </i>
    <i name="XCdc">    220.21619395 </i>
    <i name="pawpsdc">    813.61271895 </i>
    <i name="pawaedc">   -832.50715742 </i>
    <i name="eentropy">      0.00000000 </i>
    <i name="bandstr">   -476.94644076 </i>
    <i name="atom">   2404.35655786 </i>
    <i name="e_fr_energy">    -70.98757483 </i>
    <i name="e_wo_entrp">    -70.98757483 </i>
    <i name="e_0_energy">    -70.98757483 </i>
   </energy>
  </scstep>
  <structure>
   <crystal>
    <varray name="basis" >
     <v>       6.34999990       0.00000000       0.00000000 </v>
     <v>       0.00000000       6.34999990       0.00000000 </v>
     <v>       0.00000000       0.00000000       6.34999990 </v>
    </varray>
    <i name="volume">    256.04786346 </i>
    <varray name="rec_basis" >
     <v>       0.15748032       0.00000000       0.00000000 </v>
     <v>       0.00000000       0.15748032       0.00000000 </v>
     <v>       0.00000000       0.00000000       0.15748032 </v>
    </varray>
   </crystal>
   <varray name="positions" >
    <v>       0.45587999       0.83459997       0.53931999 </v>
    <v>       0.45587999       0.04190000       0.33202001 </v>
    <v>       0.45587999       0.11777000       0.61519998 </v>
    <v>       0.69524998       0.99809003       0.49551001 </v>
    <v>       0.60030001       0.52968001       0.15026000 </v>
    <v>       0.54931998       0.63409001       0.89600998 </v>
    <v>       0.56970000       0.35765001       0.93207002 </v>
    <v>       0.34876001       0.49586999       0.03313000 </v>
    <v>       0.08224000       0.01558000       0.15304001 </v>
    <v>       0.03126000       0.11999000       0.89879000 </v>
    <v>       0.05164000       0.84355003       0.93484998 </v>
    <v>       0.83069998       0.98176998       0.03591000 </v>
    <v>       0.07562000       0.53223002       0.66030997 </v>
    <v>       0.02464000       0.63664001       0.40605000 </v>
    <v>       0.04502000       0.36019999       0.44211999 </v>
    <v>       0.82406998       0.49842000       0.54316997 </v>
    <v>       0.51572001       0.99809003       0.49551001 </v>
    <v>       0.51703000       0.50432998       0.00287000 </v>
    <v>       0.99896002       0.99023002       0.00565000 </v>
    <v>       0.99234003       0.50687998       0.51292002 </v>
   </varray>
  </structure>
  <varray name="forces" >
   <v>      -0.71861154      -2.37101328       1.39553327 </v>
   <v>      -1.55180966       1.11066786      -2.41973490 </v>
   <v>      -0.90066825       1.50477061       1.31168808 </v>
   <v>       2.84413510      -0.14725413       0.04536623 </v>
   <v>       2.46642030       0.46641158       3.82828591 </v>
   <v>       0.95518641       3.44056651      -3.22785333 </v>
   <v>       1.30553291      -3.74415684      -2.17412277 </v>
   <v>      -4.33581235      -0.17462631       0.22046124 </v>
   <v>       2.15889976       0.44383032       4.04666052 </v>
   <v>       1.35371426       3.01828403      -2.88142804 </v>
   <v>       1.17271334      -3.35459356      -1.94476637 </v>
   <v>      -4.62268683      -0.68811591       1.35422217 </v>
   <v>       1.77497877       1.34071298       3.95063860 </v>
   <v>       1.29546658       3.44247827      -2.61771718 </v>
   <v>       1.21700068      -3.94397211      -1.88753466 </v>
   <v>      -4.32996295      -0.46039960       0.99948715 </v>
   <v>      -0.00949339       0.05680869       0.14797447 </v>
   <v>      -0.07423707      -0.01882111       0.13363540 </v>
   <v>       0.03121629      -0.00429519      -0.24613147 </v>
   <v>      -0.03198235       0.08271720      -0.03466430 </v>
  </varray>
  <varray name="stress" >
   <v>      84.49724227       5.57198366      -1.72141654 </v>
   <v>       5.57198366      64.29643622     -22.09458540 </v>
   <v>      -1.72141655     -22.09458542      67.22340590 </v>
  </varray>
  <energy>
   <i name="e_fr_energy">    -70.98757483 </i>
   <i name="e_wo_entrp">    -70.98757483 </i>
   <i name="e_0_energy">      0.00000000 </i>
  </energy>
  <time name="totalsc"> 7088.2220896.82</time>
 </calculation>
 <calculation>
  <scstep>
   <time name="diag">   92.74  278.27</time>
   <time name="diis">  174.81  524.52</time>
   <time name="orth">   14.14   42.43</time>
   <time name="total">  293.49  880.62</time>
   <energy>
    <i name="alphaZ">     89.14447120 </i>
    <i name="ewald">  -1834.49822828 </i>
    <i name="hartreedc">   -569.38012450 </i>
    <i name="XCdc">    212.52560739 </i>
    <i name="pawpsdc">    813.60058590 </i>
    <i name="pawaedc">   -832.49499442 </i>
    <i name="eentropy">      0.00000000 </i>
    <i name="bandstr">   -357.77334558 </i>
    <i name="atom">   2404.35655786 </i>
    <i name="e_fr_energy">    -74.51947045 </i>
    <i name="e_wo_entrp">    -74.51947045 </i>
    <i name="e_0_energy">    -74.51947045 </i>
   </energy>
  </scstep>
  <scstep>
   <time name="diag">   97.05  291.21</time>
   <time name="diis">  158.79  476.45</time>
   <time name="orth">   13.22   39.68</time>
   <time name="total">  280.37  841.28</time>
   <energy>
    <i name="e_fr_energy">    -87.02256994 </i>
    <i name="e_wo_entrp">    -87.02256994 </i>
    <i name="e_0_energy">    -87.02256994 </i>
   </energy>
  </scstep>
  <scstep>
   <time name="diag">   91.66  275.04</time>
   <time name="diis">  184.32  553.07</time>
   <time name="orth">    8.56   25.69</time>
   <time name="total">  295.80  887.55</time>
   <energy>
    <i name="e_fr_energy">    -76.50312712 </i>
    <i name="e_wo_entrp">    -76.50312712 </i>
    <i name="e_0_energy">    -76.50312712 </i>
   </energy>
  </scstep>
  <scstep>
   <time name="diag">   92.06  276.22</time>
   <time name="diis">  205.96  617.98</time>
   <time name="orth">   12.74   38.24</time>
   <time name="total">  322.84  968.69</time>
   <energy>
    <i name="e_fr_energy">    -76.17666691 </i>
    <i name="e_wo_entrp">    -76.17666691 </i>
    <i name="e_0_energy">    -76.17666691 </i>
   </energy>
  </scstep>
  <scstep>
   <time name="diag">   94.08  282.28</time>
   <time name="diis">  203.73  611.31</time>
   <time name="orth">   12.31   36.93</time>
   <time name="total">  320.87  962.79</time>
   <energy>
    <i name="e_fr_energy">    -76.17086447 </i>
    <i name="e_wo_entrp">    -76.17086447 </i>
    <i name="e_0_energy">    -76.17086447 </i>
   </energy>
  </scstep>
  <scstep>
   <time name="diag">   92.99  279.01</time>
   <time name="diis">  194.08  582.34</time>
   <time name="orth">    9.77   29.31</time>
   <time name="total">  309.16  927.65</time>
   <energy>
    <i name="e_fr_energy">    -76.15188484 </i>
    <i name="e_wo_entrp">    -76.15188484 </i>
    <i name="e_0_energy">    -76.15188484 </i>
   </energy>
  </scstep>
  <scstep>
   <time name="diag">   93.92  281.80</time>
   <time name="diis">  188.15  564.55</time>
   <time name="orth">   13.22   39.66</time>
   <time name="total">  307.18  921.71</time>
   <energy>
    <i name="e_fr_energy">    -76.14653966 </i>
    <i name="e_wo_entrp">    -76.14653966 </i>
    <i name="e_0_energy">    -76.14653966 </i>
   </energy>
  </scstep>
  <scstep>
   <time name="diag">   96.48  289.49</time>
   <time name="diis">  230.10  690.44</time>
   <time name="orth">    9.06   27.17</time>
   <time name="total">  347.45 1042.56</time>
   <energy>
    <i name="e_fr_energy">    -76.14670639 </i>
    <i name="e_wo_entrp">    -76.14670639 </i>
    <i name="e_0_energy">    -76.14670639 </i>
   </energy>
  </scstep>
  <scstep>
   <time name="diag">   93.61  280.87</time>
   <time name="diis">  195.40  586.29</time>
   <time name="orth">   10.59   31.78</time>
   <time name="total">  312.42  937.43</time>
   <energy>
    <i name="e_fr_energy">    -76.14659335 </i>
    <i name="e_wo_entrp">    -76.14659335 </i>
    <i name="e_0_energy">    -76.14659335 </i>
   </energy>
  </scstep>
  <scstep>
   <time name="diag">   95.49  286.53</time>
   <time name="diis">  167.66  566.36</time>
   <time name="orth">    6.58   26.33</time>
   <time name="total">  279.55  917.85</time>
   <energy>
    <i name="e_fr_energy">    -76.14613268 </i>
    <i name="e_wo_entrp">    -76.14613268 </i>
    <i name="e_0_energy">    -76.14613268 </i>
   </energy>
  </scstep>
  <scstep>
   <time name="diag">   73.33  293.38</time>
   <time name="diis">  172.99  692.11</time>
   <time name="orth">    6.94   27.76</time>
   <time name="total">  261.56 1046.46</time>
   <energy>
    <i name="e_fr_energy">    -76.14589253 </i>
    <i name="e_wo_entrp">    -76.14589253 </i>
    <i name="e_0_energy">    -76.14589253 </i>
   </energy>
  </scstep>
  <scstep>
   <time name="diag">   72.93  291.80</time>
   <time name="diis">  192.73  771.08</time>
   <time name="orth">    7.59   30.37</time>
   <time name="total">  282.72 1131.08</time>
   <energy>
    <i name="e_fr_energy">    -76.14588374 </i>
    <i name="e_wo_entrp">    -76.14588374 </i>
    <i name="e_0_energy">    -76.14588374 </i>
   </energy>
  </scstep>
  <scstep>
   <time name="diag">   73.26  293.09</time>
   <time name="diis">  153.32  613.40</time>
   <time name="orth">    8.87   35.49</time>
   <time name="total">  244.88  979.72</time>
   <energy>
    <i name="e_fr_energy">    -76.14589001 </i>
    <i name="e_wo_entrp">    -76.14589001 </i>
    <i name="e_0_energy">    -76.14589001 </i>
   </energy>
  </scstep>
  <scstep>
   <time name="diag">   75.09  300.40</time>
   <time name="diis">  105.55  422.31</time>
   <time name="orth">    9.59   38.37</time>
   <time name="total">  200.19  800.91</time>
   <energy>
    <i name="e_fr_energy">    -76.14589605 </i>
    <i name="e_wo_entrp">    -76.14589605 </i>
    <i name="e_0_energy">    -76.14589605 </i>
   </energy>
  </scstep>
  <scstep>
