diamond                                 
           1
    11.707900    0.000000    0.000000
     0.000000    8.189300    0.000000
     0.000000    0.000000    8.184200
   H    C 
  64  16
Direct configuration=     1
   0.07654902  0.80697144  0.21954026
   0.92345100  0.19302856  0.78045977
   0.92345100  0.69302856  0.71954023
   0.07654902  0.30697144  0.28045974
   0.92345100  0.30697144  0.28045974
   0.07654902  0.69302856  0.71954023
   0.07654902  0.19302856  0.78045977
   0.92345100  0.80697144  0.21954026
   0.57654900  0.30697144  0.21954026
   0.42345097  0.69302856  0.78045977
   0.42345097  0.19302856  0.71954023
   0.57654900  0.80697144  0.28045974
   0.42345097  0.80697144  0.28045974
   0.57654900  0.19302856  0.71954023
   0.57654900  0.69302856  0.78045977
   0.42345097  0.30697144  0.21954026
   0.81113686  0.58588138  0.93279950
   0.18886314  0.41411862  0.06720050
   0.18886314  0.91411862  0.43279950
   0.81113686  0.08588138  0.56720050
   0.18886314  0.08588138  0.56720050
   0.81113686  0.91411862  0.43279950
   0.81113686  0.41411862  0.06720050
   0.18886314  0.58588138  0.93279950
   0.31113686  0.08588138  0.93279950
   0.68886314  0.91411862  0.06720050
   0.68886314  0.41411862  0.43279950
   0.31113686  0.58588138  0.56720050
   0.68886314  0.58588138  0.56720050
   0.31113686  0.41411862  0.43279950
   0.31113686  0.91411862  0.06720050
   0.68886314  0.08588138  0.93279950
   0.70301564  0.56755039  0.08591050
   0.29698436  0.43244961  0.91408950
   0.29698436  0.93244961  0.58591050
   0.70301564  0.06755039  0.41408950
   0.29698436  0.06755039  0.41408950
   0.70301564  0.93244961  0.58591050
   0.70301564  0.43244961  0.91408950
   0.29698436  0.56755039  0.08591050
   0.20301564  0.06755039  0.08591050
   0.79698436  0.93244961  0.91408950
   0.79698436  0.43244961  0.58591050
   0.20301564  0.56755039  0.41408950
   0.79698436  0.56755039  0.41408950
   0.20301564  0.43244961  0.58591050
   0.20301564  0.93244961  0.91408950
   0.79698436  0.06755039  0.08591050
   0.00000000  0.61981148  0.19129192
   0.00000000  0.38018852  0.80870805
   0.00000000  0.88018852  0.69129195
   0.00000000  0.11981148  0.30870808
   0.50000000  0.11981148  0.19129192
   0.50000000  0.88018852  0.80870805
   0.50000000  0.38018852  0.69129195
   0.50000000  0.61981148  0.30870808
   0.00000000  0.27175887  0.46578924
   0.00000000  0.72824113  0.53421076
   0.00000000  0.22824113  0.96578924
   0.00000000  0.77175887  0.03421076
   0.50000000  0.77175887  0.46578924
   0.50000000  0.22824113  0.53421076
   0.50000000  0.72824113  0.96578924
   0.50000000  0.27175887  0.03421076
   0.00000000  0.25126969  0.33356436
   0.00000000  0.74873031  0.66643563
   0.00000000  0.24873031  0.83356437
   0.00000000  0.75126969  0.16643563
   0.50000000  0.75126969  0.33356436
   0.50000000  0.24873031  0.66643563
   0.50000000  0.74873031  0.83356437
   0.50000000  0.25126969  0.16643563
   0.75695986  0.50000000  0.00000000
   0.24304014  0.50000000  0.00000000
   0.24304014  0.00000000  0.50000000
   0.75695986  0.00000000  0.50000000
   0.25695986  0.00000000  0.00000000
   0.74304014  0.00000000  0.00000000
   0.74304014  0.50000000  0.50000000
   0.25695986  0.50000000  0.50000000
Direct configuration=     2
   0.07655103  0.80698073  0.21955222
   0.92344899  0.19301927  0.78044781
   0.92344899  0.69301927  0.71955219
   0.07655103  0.30698073  0.28044778
   0.92344899  0.30698073  0.28044778
   0.07655103  0.69301927  0.71955219
   0.07655103  0.19301927  0.78044781
   0.92344899  0.80698073  0.21955222
   0.57655101  0.30698073  0.21955222
   0.42344896  0.69301927  0.78044781
   0.42344896  0.19301927  0.71955219
   0.57655101  0.80698073  0.28044778
   0.42344896  0.80698073  0.28044778
   0.57655101  0.19301927  0.71955219
   0.57655101  0.69301927  0.78044781
   0.42344896  0.30698073  0.21955222
   0.81110737  0.58589987  0.93281734
   0.18889263  0.41410013  0.06718266
   0.18889263  0.91410013  0.43281734
   0.81110737  0.08589987  0.56718266
   0.18889263  0.08589987  0.56718266
   0.81110737  0.91410013  0.43281734
   0.81110737  0.41410013  0.06718266
   0.18889263  0.58589987  0.93281734
   0.31110737  0.08589987  0.93281734
   0.68889263  0.91410013  0.06718266
   0.68889263  0.41410013  0.43281734
   0.31110737  0.58589987  0.56718266
   0.68889263  0.58589987  0.56718266
   0.31110737  0.41410013  0.43281734
   0.31110737  0.91410013  0.06718266
   0.68889263  0.08589987  0.93281734
   0.70297962  0.56756280  0.08594978
   0.29702038  0.43243720  0.91405022
   0.29702038  0.93243720  0.58594978
   0.70297962  0.06756280  0.41405022
   0.29702038  0.06756280  0.41405022
   0.70297962  0.93243720  0.58594978
   0.70297962  0.43243720  0.91405022
   0.29702038  0.56756280  0.08594978
   0.20297962  0.06756280  0.08594978
   0.79702038  0.93243720  0.91405022
   0.79702038  0.43243720  0.58594978
   0.20297962  0.56756280  0.41405022
   0.79702038  0.56756280  0.41405022
   0.20297962  0.43243720  0.58594978
   0.20297962  0.93243720  0.91405022
   0.79702038  0.06756280  0.08594978
  -0.00000000  0.61981982  0.19127857
  -0.00000000  0.38018018  0.80872140
  -0.00000000  0.88018018  0.69127860
  -0.00000000  0.11981982  0.30872143
   0.50000000  0.11981982  0.19127857
   0.50000000  0.88018018  0.80872140
   0.50000000  0.38018018  0.69127860
   0.50000000  0.61981982  0.30872143
  -0.00000000  0.27173057  0.46581633
  -0.00000000  0.72826943  0.53418367
  -0.00000000  0.22826943  0.96581633
  -0.00000000  0.77173057  0.03418367
   0.50000000  0.77173057  0.46581633
   0.50000000  0.22826943  0.53418367
   0.50000000  0.72826943  0.96581633
   0.50000000  0.27173057  0.03418367
  -0.00000000  0.25120551  0.33354106
  -0.00000000  0.74879449  0.66645892
  -0.00000000  0.24879449  0.83354108
  -0.00000000  0.75120551  0.16645892
   0.50000000  0.75120551  0.33354106
   0.50000000  0.24879449  0.66645892
   0.50000000  0.74879449  0.83354108
   0.50000000  0.25120551  0.16645892
   0.75697808  0.50000000 -0.00000000
   0.24302192  0.50000000 -0.00000000
   0.24302192  0.00000000  0.50000000
   0.75697808  0.00000000  0.50000000
   0.25697808  0.00000000 -0.00000000
   0.74302192  0.00000000 -0.00000000
   0.74302192  0.50000000  0.50000000
   0.25697808  0.50000000  0.50000000
Direct configuration=     3
   0.07655006  0.80697626  0.21954646
   0.92344996  0.19302374  0.78045357
   0.92344996  0.69302374  0.71954643
   0.07655006  0.30697626  0.28045354
   0.92344996  0.30697626  0.28045354
   0.07655006  0.69302374  0.71954643
   0.07655006  0.19302374  0.78045357
   0.92344996  0.80697626  0.21954646
   0.57655004  0.30697626  0.21954646
   0.42344993  0.69302374  0.78045357
   0.42344993  0.19302374  0.71954643
   0.57655004  0.80697626  0.28045354
   0.42344993  0.80697626  0.28045354
   0.57655004  0.19302374  0.71954643
   0.57655004  0.69302374  0.78045357
   0.42344993  0.30697626  0.21954646
   0.81112157  0.58589096  0.93280875
   0.18887843  0.41410904  0.06719125
   0.18887843  0.91410904  0.43280875
   0.81112157  0.08589096  0.56719125
   0.18887843  0.08589096  0.56719125
   0.81112157  0.91410904  0.43280875
   0.81112157  0.41410904  0.06719125
   0.18887843  0.58589096  0.93280875
   0.31112157  0.08589096  0.93280875
   0.68887843  0.91410904  0.06719125
   0.68887843  0.41410904  0.43280875
   0.31112157  0.58589096  0.56719125
   0.68887843  0.58589096  0.56719125
   0.31112157  0.41410904  0.43280875
   0.31112157  0.91410904  0.06719125
   0.68887843  0.08589096  0.93280875
   0.70299697  0.56755682  0.08593085
   0.29700303  0.43244318  0.91406915
   0.29700303  0.93244318  0.58593085
   0.70299697  0.06755682  0.41406915
   0.29700303  0.06755682  0.41406915
   0.70299697  0.93244318  0.58593085
   0.70299697  0.43244318  0.91406915
   0.29700303  0.56755682  0.08593085
   0.20299697  0.06755682  0.08593085
   0.79700303  0.93244318  0.91406915
   0.79700303  0.43244318  0.58593085
   0.20299697  0.56755682  0.41406915
   0.79700303  0.56755682  0.41406915
   0.20299697  0.43244318  0.58593085
   0.20299697  0.93244318  0.91406915
   0.79700303  0.06755682  0.08593085
  -0.00000000  0.61981580  0.19128500
  -0.00000000  0.38018420  0.80871497
  -0.00000000  0.88018420  0.69128503
  -0.00000000  0.11981580  0.30871500
   0.50000000  0.11981580  0.19128500
   0.50000000  0.88018420  0.80871497
   0.50000000  0.38018420  0.69128503
   0.50000000  0.61981580  0.30871500
  -0.00000000  0.27174420  0.46580329
  -0.00000000  0.72825580  0.53419671
  -0.00000000  0.22825580  0.96580329
  -0.00000000  0.77174420  0.03419671
   0.50000000  0.77174420  0.46580329
   0.50000000  0.22825580  0.53419671
   0.50000000  0.72825580  0.96580329
   0.50000000  0.27174420  0.03419671
  -0.00000000  0.25123642  0.33355228
  -0.00000000  0.74876358  0.66644770
  -0.00000000  0.24876358  0.83355230
  -0.00000000  0.75123642  0.16644770
   0.50000000  0.75123642  0.33355228
   0.50000000  0.24876358  0.66644770
   0.50000000  0.74876358  0.83355230
   0.50000000  0.25123642  0.16644770
   0.75696930  0.50000000 -0.00000000
   0.24303070  0.50000000 -0.00000000
   0.24303070  0.00000000  0.50000000
   0.75696930  0.00000000  0.50000000
   0.25696930  0.00000000 -0.00000000
   0.74303070  0.00000000 -0.00000000
   0.74303070  0.50000000  0.50000000
   0.25696930  0.50000000  0.50000000
