diamond                                 
           1
    11.707900    0.000000    0.000000
     0.000000    8.189300    0.000000
     0.000000    0.000000    8.184200
   H    C 
  64  16
Direct configuration=     1
   0.07280000  0.78549999  0.18230000
   0.92720002  0.21450001  0.81770003
   0.92720002  0.71450001  0.68229997
   0.07280000  0.28549999  0.31770000
   0.92720002  0.28549999  0.31770000
   0.07280000  0.71450001  0.68229997
   0.07280000  0.21450001  0.81770003
   0.92720002  0.78549999  0.18230000
   0.57279998  0.28549999  0.18230000
   0.42719999  0.71450001  0.81770003
   0.42719999  0.21450001  0.68229997
   0.57279998  0.78549999  0.31770000
   0.42719999  0.78549999  0.31770000
   0.57279998  0.21450001  0.68229997
   0.57279998  0.71450001  0.81770003
   0.42719999  0.28549999  0.18230000
   0.80100000  0.57950002  0.93360001
   0.19900000  0.42049998  0.06639999
   0.19900000  0.92049998  0.43360001
   0.80100000  0.07950002  0.56639999
   0.19900000  0.07950002  0.56639999
   0.80100000  0.92049998  0.43360001
   0.80100000  0.42049998  0.06639999
   0.19900000  0.57950002  0.93360001
   0.30100000  0.07950002  0.93360001
   0.69900000  0.92049998  0.06639999
   0.69900000  0.42049998  0.43360001
   0.30100000  0.57950002  0.56639999
   0.69900000  0.57950002  0.56639999
   0.30100000  0.42049998  0.43360001
   0.30100000  0.92049998  0.06639999
   0.69900000  0.07950002  0.93360001
   0.69859999  0.56629997  0.07959998
   0.30140001  0.43370003  0.92040002
   0.30140001  0.93370003  0.57959998
   0.69859999  0.06629997  0.42040002
   0.30140001  0.06629997  0.42040002
   0.69859999  0.93370003  0.57959998
   0.69859999  0.43370003  0.92040002
   0.30140001  0.56629997  0.07959998
   0.19859999  0.06629997  0.07959998
   0.80140001  0.93370003  0.92040002
   0.80140001  0.43370003  0.57959998
   0.19859999  0.56629997  0.42040002
   0.80140001  0.56629997  0.42040002
   0.19859999  0.43370003  0.57959998
   0.19859999  0.93370003  0.92040002
   0.80140001  0.06629997  0.07959998
   0.00000000  0.60589999  0.19920000
   0.00000000  0.39410001  0.80079997
   0.00000000  0.89410001  0.69920003
   0.00000000  0.10589999  0.30080000
   0.50000000  0.10589999  0.19920000
   0.50000000  0.89410001  0.80079997
   0.50000000  0.39410001  0.69920003
   0.50000000  0.60589999  0.30080000
   0.00000000  0.74159998  0.78549999
   0.00000000  0.25840002  0.21450001
   0.00000000  0.75840002  0.28549999
   0.00000000  0.24159998  0.71450001
   0.50000000  0.24159998  0.78549999
   0.50000000  0.75840002  0.21450001
   0.50000000  0.25840002  0.28549999
   0.50000000  0.74159998  0.71450001
   0.00000000  0.72960001  0.23029999
   0.00000000  0.27039999  0.76969999
   0.00000000  0.77039999  0.73030001
   0.00000000  0.22960001  0.26969999
   0.50000000  0.22960001  0.23029999
   0.50000000  0.77039999  0.76969999
   0.50000000  0.27039999  0.73030001
   0.50000000  0.72960001  0.26969999
   0.74980003  0.50000000  0.00000000
   0.25019997  0.50000000  0.00000000
   0.25019997  0.00000000  0.50000000
   0.74980003  0.00000000  0.50000000
   0.24980003  0.00000000  0.00000000
   0.75019997  0.00000000  0.00000000
   0.75019997  0.50000000  0.50000000
   0.24980003  0.50000000  0.50000000
Direct configuration=     2
   0.07842433  0.78849179  0.17164799
   0.92157569  0.21150821  0.82835204
   0.92157569  0.71150821  0.67164796
   0.07842433  0.28849179  0.32835201
   0.92157569  0.28849179  0.32835201
   0.07842433  0.71150821  0.67164796
   0.07842433  0.21150821  0.82835204
   0.92157569  0.78849179  0.17164799
   0.57842431  0.28849179  0.17164799
   0.42157566  0.71150821  0.82835204
   0.42157566  0.21150821  0.67164796
   0.57842431  0.78849179  0.32835201
   0.42157566  0.78849179  0.32835201
   0.57842431  0.21150821  0.67164796
   0.57842431  0.71150821  0.82835204
   0.42157566  0.28849179  0.17164799
   0.80622976  0.58761638  0.92690687
   0.19377024  0.41238362  0.07309313
   0.19377024  0.91238362  0.42690687
   0.80622976  0.08761638  0.57309313
   0.19377024  0.08761638  0.57309313
   0.80622976  0.91238362  0.42690687
   0.80622976  0.41238362  0.07309313
   0.19377024  0.58761638  0.92690687
   0.30622976  0.08761638  0.92690687
   0.69377024  0.91238362  0.07309313
   0.69377024  0.41238362  0.42690687
   0.30622976  0.58761638  0.57309313
   0.69377024  0.58761638  0.57309313
   0.30622976  0.41238362  0.42690687
   0.30622976  0.91238362  0.07309313
   0.69377024  0.08761638  0.92690687
   0.69338171  0.57305986  0.08764744
   0.30661829  0.42694014  0.91235256
   0.30661829  0.92694014  0.58764744
   0.69338171  0.07305986  0.41235256
   0.30661829  0.07305986  0.41235256
   0.69338171  0.92694014  0.58764744
   0.69338171  0.42694014  0.91235256
   0.30661829  0.57305986  0.08764744
   0.19338171  0.07305986  0.08764744
   0.80661829  0.92694014  0.91235256
   0.80661829  0.42694014  0.58764744
   0.19338171  0.57305986  0.41235256
   0.80661829  0.57305986  0.41235256
   0.19338171  0.42694014  0.58764744
   0.19338171  0.92694014  0.91235256
   0.80661829  0.07305986  0.08764744
   0.00000000  0.59784676  0.20211554
   0.00000000  0.40215324  0.79788443
   0.00000000  0.90215324  0.70211557
   0.00000000  0.09784676  0.29788446
   0.50000000  0.09784676  0.20211554
   0.50000000  0.90215324  0.79788443
   0.50000000  0.40215324  0.70211557
   0.50000000  0.59784676  0.29788446
   0.00000000  0.32738944  0.63189638
   0.00000000  0.67261056 -0.63189638
   0.00000000  0.17261056  0.13189638
   0.00000000 -0.17261056 -0.13189638
   0.50000000 -0.17261056  0.63189638
   0.50000000  0.17261056 -0.63189638
   0.50000000  0.67261056  0.13189638
   0.50000000  0.32738944 -0.13189638
   0.00000000  0.31745140 -0.59772617
   0.00000000  0.68254860  0.59772615
   0.00000000  0.18254860 -0.09772615
   0.00000000 -0.18254860  0.09772615
   0.50000000 -0.18254860 -0.59772617
   0.50000000  0.18254860  0.59772615
   0.50000000  0.68254860 -0.09772615
   0.50000000  0.31745140  0.09772615
   0.74979506  0.50000000 -0.00000000
   0.25020494  0.50000000 -0.00000000
   0.25020494 -0.00000000  0.50000000
   0.74979506  0.00000000  0.50000000
   0.24979506 -0.00000000 -0.00000000
   0.75020494  0.00000000 -0.00000000
   0.75020494  0.50000000  0.50000000
   0.24979506  0.50000000  0.50000000
Direct configuration=     3
   0.07840222  0.78848003  0.17168987
   0.92159780  0.21151997  0.82831016
   0.92159780  0.71151997  0.67168984
   0.07840222  0.28848003  0.32831013
   0.92159780  0.28848003  0.32831013
   0.07840222  0.71151997  0.67168984
   0.07840222  0.21151997  0.82831016
   0.92159780  0.78848003  0.17168987
   0.57840220  0.28848003  0.17168987
   0.42159777  0.71151997  0.82831016
   0.42159777  0.21151997  0.67168984
   0.57840220  0.78848003  0.32831013
   0.42159777  0.78848003  0.32831013
   0.57840220  0.21151997  0.67168984
   0.57840220  0.71151997  0.82831016
   0.42159777  0.28848003  0.17168987
   0.80620920  0.58758447  0.92693318
   0.19379080  0.41241553  0.07306682
   0.19379080  0.91241553  0.42693318
   0.80620920  0.08758447  0.57306682
   0.19379080  0.08758447  0.57306682
   0.80620920  0.91241553  0.42693318
   0.80620920  0.41241553  0.07306682
   0.19379080  0.58758447  0.92693318
   0.30620920  0.08758447  0.92693318
   0.69379080  0.91241553  0.07306682
   0.69379080  0.41241553  0.42693318
   0.30620920  0.58758447  0.57306682
   0.69379080  0.58758447  0.57306682
   0.30620920  0.41241553  0.42693318
   0.30620920  0.91241553  0.07306682
   0.69379080  0.08758447  0.92693318
   0.69340223  0.57303329  0.08761580
   0.30659777  0.42696671  0.91238420
   0.30659777  0.92696671  0.58761580
   0.69340223  0.07303329  0.41238420
   0.30659777  0.07303329  0.41238420
   0.69340223  0.92696671  0.58761580
   0.69340223  0.42696671  0.91238420
   0.30659777  0.57303329  0.08761580
   0.19340223  0.07303329  0.08761580
   0.80659777  0.92696671  0.91238420
   0.80659777  0.42696671  0.58761580
   0.19340223  0.57303329  0.41238420
   0.80659777  0.57303329  0.41238420
   0.19340223  0.42696671  0.58761580
   0.19340223  0.92696671  0.91238420
   0.80659777  0.07303329  0.08761580
   0.00000000  0.59787842  0.20210408
   0.00000000  0.40212158  0.79789589
   0.00000000  0.90212158  0.70210411
   0.00000000  0.09787842  0.29789592
   0.50000000  0.09787842  0.20210408
   0.50000000  0.90212158  0.79789589
   0.50000000  0.40212158  0.70210411
   0.50000000  0.59787842  0.29789592
   0.00000000  0.32901771  0.62856919
   0.00000000  0.67098229 -0.62856919
   0.00000000  0.17098229  0.12856919
   0.00000000 -0.17098229 -0.12856919
   0.50000000 -0.17098229  0.62856919
   0.50000000  0.17098229 -0.62856919
   0.50000000  0.67098229  0.12856919
   0.50000000  0.32901771 -0.12856919
   0.00000000  0.31907156 -0.59447119
   0.00000000  0.68092844  0.59447118
   0.00000000  0.18092844 -0.09447118
   0.00000000 -0.18092844  0.09447118
   0.50000000 -0.18092844 -0.59447119
   0.50000000  0.18092844  0.59447118
   0.50000000  0.68092844 -0.09447118
   0.50000000  0.31907156  0.09447118
   0.74979508  0.50000000 -0.00000000
   0.25020492  0.50000000 -0.00000000
   0.25020492 -0.00000000  0.50000000
   0.74979508  0.00000000  0.50000000
   0.24979508 -0.00000000 -0.00000000
   0.75020492  0.00000000 -0.00000000
   0.75020492  0.50000000  0.50000000
   0.24979508  0.50000000  0.50000000
Direct configuration=     4
   0.07838458  0.78847065  0.17172327
   0.92161544  0.21152935  0.82827676
   0.92161544  0.71152935  0.67172324
   0.07838458  0.28847065  0.32827673
   0.92161544  0.28847065  0.32827673
   0.07838458  0.71152935  0.67172324
   0.07838458  0.21152935  0.82827676
   0.92161544  0.78847065  0.17172327
   0.57838456  0.28847065  0.17172327
   0.42161541  0.71152935  0.82827676
   0.42161541  0.21152935  0.67172324
   0.57838456  0.78847065  0.32827673
   0.42161541  0.78847065  0.32827673
   0.57838456  0.21152935  0.67172324
   0.57838456  0.71152935  0.82827676
   0.42161541  0.28847065  0.17172327
   0.80619280  0.58755902  0.92695417
   0.19380720  0.41244098  0.07304583
   0.19380720  0.91244098  0.42695417
   0.80619280  0.08755902  0.57304583
   0.19380720  0.08755902  0.57304583
   0.80619280  0.91244098  0.42695417
   0.80619280  0.41244098  0.07304583
   0.19380720  0.58755902  0.92695417
   0.30619280  0.08755902  0.92695417
   0.69380720  0.91244098  0.07304583
   0.69380720  0.41244098  0.42695417
   0.30619280  0.58755902  0.57304583
   0.69380720  0.58755902  0.57304583
   0.30619280  0.41244098  0.42695417
   0.30619280  0.91244098  0.07304583
   0.69380720  0.08755902  0.92695417
   0.69341859  0.57301209  0.08759056
   0.30658141  0.42698791  0.91240944
   0.30658141  0.92698791  0.58759056
   0.69341859  0.07301209  0.41240944
   0.30658141  0.07301209  0.41240944
   0.69341859  0.92698791  0.58759056
   0.69341859  0.42698791  0.91240944
   0.30658141  0.57301209  0.08759056
   0.19341859  0.07301209  0.08759056
   0.80658141  0.92698791  0.91240944
   0.80658141  0.42698791  0.58759056
   0.19341859  0.57301209  0.41240944
   0.80658141  0.57301209  0.41240944
   0.19341859  0.42698791  0.58759056
   0.19341859  0.92698791  0.91240944
   0.80658141  0.07301209  0.08759056
   0.00000000  0.59790368  0.20209494
   0.00000000  0.40209632  0.79790503
   0.00000000  0.90209632  0.70209497
   0.00000000  0.09790368  0.29790506
   0.50000000  0.09790368  0.20209494
   0.50000000  0.90209632  0.79790503
   0.50000000  0.40209632  0.70209497
   0.50000000  0.59790368  0.29790506
   0.00000000  0.33031675  0.62591474
   0.00000000  0.66968325 -0.62591474
   0.00000000  0.16968325  0.12591474
   0.00000000 -0.16968325 -0.12591474
   0.50000000 -0.16968325  0.62591474
   0.50000000  0.16968325 -0.62591474
   0.50000000  0.66968325  0.12591474
   0.50000000  0.33031675 -0.12591474
   0.00000000  0.32036413 -0.59187435
   0.00000000  0.67963587  0.59187434
   0.00000000  0.17963587 -0.09187434
   0.00000000 -0.17963587  0.09187434
   0.50000000 -0.17963587 -0.59187435
   0.50000000  0.17963587  0.59187434
   0.50000000  0.67963587 -0.09187434
   0.50000000  0.32036413  0.09187434
   0.74979510  0.50000000 -0.00000000
   0.25020490  0.50000000 -0.00000000
   0.25020490 -0.00000000  0.50000000
   0.74979510  0.00000000  0.50000000
   0.24979510 -0.00000000 -0.00000000
   0.75020490  0.00000000 -0.00000000
   0.75020490  0.50000000  0.50000000
   0.24979510  0.50000000  0.50000000
Direct configuration=     5
   0.07831134  0.78843169  0.17186198
   0.92168868  0.21156831  0.82813805
   0.92168868  0.71156831  0.67186195
   0.07831134  0.28843169  0.32813802
   0.92168868  0.28843169  0.32813802
   0.07831134  0.71156831  0.67186195
   0.07831134  0.21156831  0.82813805
   0.92168868  0.78843169  0.17186198
   0.57831132  0.28843169  0.17186198
   0.42168865  0.71156831  0.82813805
   0.42168865  0.21156831  0.67186195
   0.57831132  0.78843169  0.32813802
   0.42168865  0.78843169  0.32813802
   0.57831132  0.21156831  0.67186195
   0.57831132  0.71156831  0.82813805
   0.42168865  0.28843169  0.17186198
   0.80612470  0.58745332  0.92704133
   0.19387530  0.41254668  0.07295867
   0.19387530  0.91254668  0.42704133
   0.80612470  0.08745332  0.57295867
   0.19387530  0.08745332  0.57295867
   0.80612470  0.91254668  0.42704133
   0.80612470  0.41254668  0.07295867
   0.19387530  0.58745332  0.92704133
   0.30612470  0.08745332  0.92704133
   0.69387530  0.91254668  0.07295867
   0.69387530  0.41254668  0.42704133
   0.30612470  0.58745332  0.57295867
   0.69387530  0.58745332  0.57295867
   0.30612470  0.41254668  0.42704133
   0.30612470  0.91254668  0.07295867
   0.69387530  0.08745332  0.92704133
   0.69348654  0.57292406  0.08748577
   0.30651346  0.42707594  0.91251423
   0.30651346  0.92707594  0.58748577
   0.69348654  0.07292406  0.41251423
   0.30651346  0.07292406  0.41251423
   0.69348654  0.92707594  0.58748577
   0.69348654  0.42707594  0.91251423
   0.30651346  0.57292406  0.08748577
   0.19348654  0.07292406  0.08748577
   0.80651346  0.92707594  0.91251423
   0.80651346  0.42707594  0.58748577
   0.19348654  0.57292406  0.41251423
   0.80651346  0.57292406  0.41251423
   0.19348654  0.42707594  0.58748577
   0.19348654  0.92707594  0.91251423
   0.80651346  0.07292406  0.08748577
   0.00000000  0.59800854  0.20205697
   0.00000000  0.40199146  0.79794300
   0.00000000  0.90199146  0.70205700
   0.00000000  0.09800854  0.29794303
   0.50000000  0.09800854  0.20205697
   0.50000000  0.90199146  0.79794300
   0.50000000  0.40199146  0.70205700
   0.50000000  0.59800854  0.29794303
   0.00000000  0.33571060  0.61489296
   0.00000000  0.66428940 -0.61489296
   0.00000000  0.16428940  0.11489296
   0.00000000 -0.16428940 -0.11489296
   0.50000000 -0.16428940  0.61489296
   0.50000000  0.16428940 -0.61489296
   0.50000000  0.66428940  0.11489296
   0.50000000  0.33571060 -0.11489296
   0.00000000  0.32573113 -0.58109179
   0.00000000  0.67426887  0.58109177
   0.00000000  0.17426887 -0.08109177
   0.00000000 -0.17426887  0.08109177
   0.50000000 -0.17426887 -0.58109179
   0.50000000  0.17426887  0.58109177
   0.50000000  0.67426887 -0.08109177
   0.50000000  0.32573113  0.08109177
   0.74979516  0.50000000 -0.00000000
   0.25020484  0.50000000 -0.00000000
   0.25020484 -0.00000000  0.50000000
   0.74979516  0.00000000  0.50000000
   0.24979516 -0.00000000 -0.00000000
   0.75020484  0.00000000 -0.00000000
   0.75020484  0.50000000  0.50000000
   0.24979516  0.50000000  0.50000000
Direct configuration=     6
   0.07349221  0.79578343  0.15923070
   0.92650781  0.20421657  0.84076933
   0.92650781  0.70421657  0.65923067
   0.07349221  0.29578343  0.34076930
   0.92650781  0.29578343  0.34076930
   0.07349221  0.70421657  0.65923067
   0.07349221  0.20421657  0.84076933
   0.92650781  0.79578343  0.15923070
   0.57349219  0.29578343  0.15923070
   0.42650778  0.70421657  0.84076933
   0.42650778  0.20421657  0.65923067
   0.57349219  0.79578343  0.34076930
   0.42650778  0.79578343  0.34076930
   0.57349219  0.20421657  0.65923067
   0.57349219  0.70421657  0.84076933
   0.42650778  0.29578343  0.15923070
   0.80317119  0.58242868  0.93126289
   0.19682881  0.41757132  0.06873711
   0.19682881  0.91757132  0.43126289
   0.80317119  0.08242868  0.56873711
   0.19682881  0.08242868  0.56873711
   0.80317119  0.91757132  0.43126289
   0.80317119  0.41757132  0.06873711
   0.19682881  0.58242868  0.93126289
   0.30317119  0.08242868  0.93126289
   0.69682881  0.91757132  0.06873711
   0.69682881  0.41757132  0.43126289
   0.30317119  0.58242868  0.56873711
   0.69682881  0.58242868  0.56873711
   0.30317119  0.41757132  0.43126289
   0.30317119  0.91757132  0.06873711
   0.69682881  0.08242868  0.93126289
   0.69676496  0.56859395  0.08247713
   0.30323504  0.43140605  0.91752287
   0.30323504  0.93140605  0.58247713
   0.69676496  0.06859395  0.41752287
   0.30323504  0.06859395  0.41752287
   0.69676496  0.93140605  0.58247713
   0.69676496  0.43140605  0.91752287
   0.30323504  0.56859395  0.08247713
   0.19676496  0.06859395  0.08247713
   0.80323504  0.93140605  0.91752287
   0.80323504  0.43140605  0.58247713
   0.19676496  0.56859395  0.41752287
   0.80323504  0.56859395  0.41752287
   0.19676496  0.43140605  0.58247713
   0.19676496  0.93140605  0.91752287
   0.80323504  0.06859395  0.08247713
   0.00000000  0.60490390  0.20108292
   0.00000000  0.39509610  0.79891705
   0.00000000  0.89509610  0.70108295
   0.00000000  0.10490390  0.29891708
   0.50000000  0.10490390  0.20108292
   0.50000000  0.89509610  0.79891705
   0.50000000  0.39509610  0.70108295
   0.50000000  0.60490390  0.29891708
   0.00000000  0.33494812  0.59765004
   0.00000000  0.66505188 -0.59765004
   0.00000000  0.16505188  0.09765004
   0.00000000 -0.16505188 -0.09765004
   0.50000000 -0.16505188  0.59765004
   0.50000000  0.16505188 -0.59765004
   0.50000000  0.66505188  0.09765004
   0.50000000  0.33494812 -0.09765004
   0.00000000  0.30783617 -0.59162228
   0.00000000  0.69216383  0.59162226
   0.00000000  0.19216383 -0.09162226
   0.00000000 -0.19216383  0.09162226
   0.50000000 -0.19216383 -0.59162228
   0.50000000  0.19216383  0.59162226
   0.50000000  0.69216383 -0.09162226
   0.50000000  0.30783617  0.09162226
   0.75013460  0.50000000 -0.00000000
   0.24986540  0.50000000 -0.00000000
   0.24986540  0.00000000  0.50000000
   0.75013460  0.00000000  0.50000000
   0.25013460  0.00000000 -0.00000000
   0.74986540  0.00000000 -0.00000000
   0.74986540  0.50000000  0.50000000
   0.25013460  0.50000000  0.50000000
Direct configuration=     7
   0.07341194  0.79590589  0.15902029
   0.92658808  0.20409411  0.84097973
   0.92658808  0.70409411  0.65902027
   0.07341194  0.29590589  0.34097971
   0.92658808  0.29590589  0.34097971
   0.07341194  0.70409411  0.65902027
   0.07341194  0.20409411  0.84097973
   0.92658808  0.79590589  0.15902029
   0.57341192  0.29590589  0.15902029
   0.42658805  0.70409411  0.84097973
   0.42658805  0.20409411  0.65902027
   0.57341192  0.79590589  0.34097971
   0.42658805  0.79590589  0.34097971
   0.57341192  0.20409411  0.65902027
   0.57341192  0.70409411  0.84097973
   0.42658805  0.29590589  0.15902029
   0.80312199  0.58234498  0.93133321
   0.19687801  0.41765502  0.06866679
   0.19687801  0.91765502  0.43133321
   0.80312199  0.08234498  0.56866679
   0.19687801  0.08234498  0.56866679
   0.80312199  0.91765502  0.43133321
   0.80312199  0.41765502  0.06866679
   0.19687801  0.58234498  0.93133321
   0.30312199  0.08234498  0.93133321
   0.69687801  0.91765502  0.06866679
   0.69687801  0.41765502  0.43133321
   0.30312199  0.58234498  0.56866679
   0.69687801  0.58234498  0.56866679
   0.30312199  0.41765502  0.43133321
   0.30312199  0.91765502  0.06866679
   0.69687801  0.08234498  0.93133321
   0.69681957  0.56852183  0.08239369
   0.30318043  0.43147817  0.91760631
   0.30318043  0.93147817  0.58239369
   0.69681957  0.06852183  0.41760631
   0.30318043  0.06852183  0.41760631
   0.69681957  0.93147817  0.58239369
   0.69681957  0.43147817  0.91760631
   0.30318043  0.56852183  0.08239369
   0.19681957  0.06852183  0.08239369
   0.80318043  0.93147817  0.91760631
   0.80318043  0.43147817  0.58239369
   0.19681957  0.56852183  0.41760631
   0.80318043  0.56852183  0.41760631
   0.19681957  0.43147817  0.58239369
   0.19681957  0.93147817  0.91760631
   0.80318043  0.06852183  0.08239369
   0.00000000  0.60501876  0.20106670
   0.00000000  0.39498124  0.79893327
   0.00000000  0.89498124  0.70106673
   0.00000000  0.10501876  0.29893330
   0.50000000  0.10501876  0.20106670
   0.50000000  0.89498124  0.79893327
   0.50000000  0.39498124  0.70106673
   0.50000000  0.60501876  0.29893330
   0.00000000  0.33493542  0.59736281
   0.00000000  0.66506458 -0.59736281
   0.00000000  0.16506458  0.09736281
   0.00000000 -0.16506458 -0.09736281
   0.50000000 -0.16506458  0.59736281
   0.50000000  0.16506458 -0.59736281
   0.50000000  0.66506458  0.09736281
   0.50000000  0.33493542 -0.09736281
   0.00000000  0.30753809 -0.59179769
   0.00000000  0.69246191  0.59179768
   0.00000000  0.19246191 -0.09179768
   0.00000000 -0.19246191  0.09179768
   0.50000000 -0.19246191 -0.59179769
   0.50000000  0.19246191  0.59179768
   0.50000000  0.69246191 -0.09179768
   0.50000000  0.30753809  0.09179768
   0.75014025  0.50000000 -0.00000000
   0.24985975  0.50000000 -0.00000000
   0.24985975  0.00000000  0.50000000
   0.75014025  0.00000000  0.50000000
   0.25014025  0.00000000 -0.00000000
   0.74985975  0.00000000 -0.00000000
   0.74985975  0.50000000  0.50000000
   0.25014025  0.50000000  0.50000000
Direct configuration=     8
   0.07481593  0.80058160  0.15542512
   0.92518409  0.19941840  0.84457491
   0.92518409  0.69941840  0.65542509
   0.07481593  0.30058160  0.34457488
   0.92518409  0.30058160  0.34457488
   0.07481593  0.69941840  0.65542509
   0.07481593  0.19941840  0.84457491
   0.92518409  0.80058160  0.15542512
   0.57481591  0.30058160  0.15542512
   0.42518406  0.69941840  0.84457491
   0.42518406  0.19941840  0.65542509
   0.57481591  0.80058160  0.34457488
   0.42518406  0.80058160  0.34457488
   0.57481591  0.19941840  0.65542509
   0.57481591  0.69941840  0.84457491
   0.42518406  0.30058160  0.15542512
   0.80245783  0.58098093  0.93249911
   0.19754217  0.41901907  0.06750089
   0.19754217  0.91901907  0.43249911
   0.80245783  0.08098093  0.56750089
   0.19754217  0.08098093  0.56750089
   0.80245783  0.91901907  0.43249911
   0.80245783  0.41901907  0.06750089
   0.19754217  0.58098093  0.93249911
   0.30245783  0.08098093  0.93249911
   0.69754217  0.91901907  0.06750089
   0.69754217  0.41901907  0.43249911
   0.30245783  0.58098093  0.56750089
   0.69754217  0.58098093  0.56750089
   0.30245783  0.41901907  0.43249911
   0.30245783  0.91901907  0.06750089
   0.69754217  0.08098093  0.93249911
   0.69775702  0.56727168  0.08100873
   0.30224298  0.43272832  0.91899127
   0.30224298  0.93272832  0.58100873
   0.69775702  0.06727168  0.41899127
   0.30224298  0.06727168  0.41899127
   0.69775702  0.93272832  0.58100873
   0.69775702  0.43272832  0.91899127
   0.30224298  0.56727168  0.08100873
   0.19775702  0.06727168  0.08100873
   0.80224298  0.93272832  0.91899127
   0.80224298  0.43272832  0.58100873
   0.19775702  0.56727168  0.41899127
   0.80224298  0.56727168  0.41899127
   0.19775702  0.43272832  0.58100873
   0.19775702  0.93272832  0.91899127
   0.80224298  0.06727168  0.08100873
   0.00000000  0.61055333  0.19837382
   0.00000000  0.38944667  0.80162615
   0.00000000  0.88944667  0.69837385
   0.00000000  0.11055333  0.30162618
   0.50000000  0.11055333  0.19837382
   0.50000000  0.88944667  0.80162615
   0.50000000  0.38944667  0.69837385
   0.50000000  0.61055333  0.30162618
   0.00000000  0.33315814  0.58303443
   0.00000000  0.66684186 -0.58303443
   0.00000000  0.16684186  0.08303443
   0.00000000 -0.16684186 -0.08303443
   0.50000000 -0.16684186  0.58303443
   0.50000000  0.16684186 -0.58303443
   0.50000000  0.66684186  0.08303443
   0.50000000  0.33315814 -0.08303443
   0.00000000  0.29619464 -0.58829351
   0.00000000  0.70380536  0.58829349
   0.00000000  0.20380536 -0.08829349
   0.00000000 -0.20380536  0.08829349
   0.50000000 -0.20380536 -0.58829351
   0.50000000  0.20380536  0.58829349
   0.50000000  0.70380536 -0.08829349
   0.50000000  0.29619464  0.08829349
   0.75022223  0.50000000 -0.00000000
   0.24977777  0.50000000 -0.00000000
   0.24977777  0.00000000  0.50000000
   0.75022223  0.00000000  0.50000000
   0.25022223  0.00000000 -0.00000000
   0.74977777  0.00000000 -0.00000000
   0.74977777  0.50000000  0.50000000
   0.25022223  0.50000000  0.50000000
Direct configuration=     9
   0.07876780  0.81374245  0.14530567
   0.92123222  0.18625755  0.85469436
   0.92123222  0.68625755  0.64530564
   0.07876780  0.31374245  0.35469433
   0.92123222  0.31374245  0.35469433
   0.07876780  0.68625755  0.64530564
   0.07876780  0.18625755  0.85469436
   0.92123222  0.81374245  0.14530567
   0.57876778  0.31374245  0.14530567
   0.42123219  0.68625755  0.85469436
   0.42123219  0.18625755  0.64530564
   0.57876778  0.81374245  0.35469433
   0.42123219  0.81374245  0.35469433
   0.57876778  0.18625755  0.64530564
   0.57876778  0.68625755  0.85469436
   0.42123219  0.31374245  0.14530567
   0.80058842  0.57714149  0.93578080
   0.19941158  0.42285851  0.06421920
   0.19941158  0.92285851  0.43578080
   0.80058842  0.07714149  0.56421920
   0.19941158  0.07714149  0.56421920
   0.80058842  0.92285851  0.43578080
   0.80058842  0.42285851  0.06421920
   0.19941158  0.57714149  0.93578080
   0.30058842  0.07714149  0.93578080
   0.69941158  0.92285851  0.06421920
   0.69941158  0.42285851  0.43578080
   0.30058842  0.57714149  0.56421920
   0.69941158  0.57714149  0.56421920
   0.30058842  0.42285851  0.43578080
   0.30058842  0.92285851  0.06421920
   0.69941158  0.07714149  0.93578080
   0.70039567  0.56375284  0.07711041
   0.29960433  0.43624716  0.92288959
   0.29960433  0.93624716  0.57711041
   0.70039567  0.06375284  0.42288959
   0.29960433  0.06375284  0.42288959
   0.70039567  0.93624716  0.57711041
   0.70039567  0.43624716  0.92288959
   0.29960433  0.56375284  0.07711041
   0.20039567  0.06375284  0.07711041
   0.79960433  0.93624716  0.92288959
   0.79960433  0.43624716  0.57711041
   0.20039567  0.56375284  0.42288959
   0.79960433  0.56375284  0.42288959
   0.20039567  0.43624716  0.57711041
   0.20039567  0.93624716  0.92288959
   0.79960433  0.06375284  0.07711041
   0.00000000  0.62613165  0.19079410
   0.00000000  0.37386835  0.80920587
   0.00000000  0.87386835  0.69079413
   0.00000000  0.12613165  0.30920590
   0.50000000  0.12613165  0.19079410
   0.50000000  0.87386835  0.80920587
   0.50000000  0.37386835  0.69079413
   0.50000000  0.62613165  0.30920590
   0.00000000  0.32815556  0.54270391
   0.00000000  0.67184444 -0.54270391
   0.00000000  0.17184444  0.04270391
   0.00000000 -0.17184444 -0.04270391
   0.50000000 -0.17184444  0.54270391
   0.50000000  0.17184444 -0.54270391
   0.50000000  0.67184444  0.04270391
   0.50000000  0.32815556 -0.04270391
   0.00000000  0.26426589 -0.57843018
   0.00000000  0.73573411  0.57843017
   0.00000000  0.23573411 -0.07843017
   0.00000000 -0.23573411  0.07843017
   0.50000000 -0.23573411 -0.57843018
   0.50000000  0.23573411  0.57843017
   0.50000000  0.73573411 -0.07843017
   0.50000000  0.26426589  0.07843017
   0.75045298  0.50000000 -0.00000000
   0.24954702  0.50000000 -0.00000000
   0.24954702  0.00000000  0.50000000
   0.75045298  0.00000000  0.50000000
   0.25045298  0.00000000 -0.00000000
   0.74954702  0.00000000 -0.00000000
   0.74954702  0.50000000  0.50000000
   0.25045298  0.50000000  0.50000000
Direct configuration=    10
   0.07801769  0.81124436  0.14722647
   0.92198233  0.18875564  0.85277356
   0.92198233  0.68875564  0.64722644
   0.07801769  0.31124436  0.35277353
   0.92198233  0.31124436  0.35277353
   0.07801769  0.68875564  0.64722644
   0.07801769  0.18875564  0.85277356
   0.92198233  0.81124436  0.14722647
   0.57801767  0.31124436  0.14722647
   0.42198230  0.68875564  0.85277356
   0.42198230  0.18875564  0.64722644
   0.57801767  0.81124436  0.35277353
   0.42198230  0.81124436  0.35277353
   0.57801767  0.18875564  0.64722644
   0.57801767  0.68875564  0.85277356
   0.42198230  0.31124436  0.14722647
   0.80094325  0.57787026  0.93515790
   0.19905675  0.42212974  0.06484210
   0.19905675  0.92212974  0.43515790
   0.80094325  0.07787026  0.56484210
   0.19905675  0.07787026  0.56484210
   0.80094325  0.92212974  0.43515790
   0.80094325  0.42212974  0.06484210
   0.19905675  0.57787026  0.93515790
   0.30094325  0.07787026  0.93515790
   0.69905675  0.92212974  0.06484210
   0.69905675  0.42212974  0.43515790
   0.30094325  0.57787026  0.56484210
   0.69905675  0.57787026  0.56484210
   0.30094325  0.42212974  0.43515790
   0.30094325  0.92212974  0.06484210
   0.69905675  0.07787026  0.93515790
   0.69989482  0.56442076  0.07785036
   0.30010518  0.43557924  0.92214964
   0.30010518  0.93557924  0.57785036
   0.69989482  0.06442076  0.42214964
   0.30010518  0.06442076  0.42214964
   0.69989482  0.93557924  0.57785036
   0.69989482  0.43557924  0.92214964
   0.30010518  0.56442076  0.07785036
   0.19989482  0.06442076  0.07785036
   0.80010518  0.93557924  0.92214964
   0.80010518  0.43557924  0.57785036
   0.19989482  0.56442076  0.42214964
   0.80010518  0.56442076  0.42214964
   0.19989482  0.43557924  0.57785036
   0.19989482  0.93557924  0.92214964
   0.80010518  0.06442076  0.07785036
   0.00000000  0.62317469  0.19223282
   0.00000000  0.37682531  0.80776715
   0.00000000  0.87682531  0.69223285
   0.00000000  0.12317469  0.30776718
   0.50000000  0.12317469  0.19223282
   0.50000000  0.87682531  0.80776715
   0.50000000  0.37682531  0.69223285
   0.50000000  0.62317469  0.30776718
   0.00000000  0.32910511  0.55035914