graphite                                
           1
     2.616295    0.000000    0.000000
     1.308148    2.265778    0.000000
     1.308148    0.755259    2.136196
   C 
   2
Direct configuration=     1
   0.00000000  0.00000000  0.00000000
   0.25000000  0.25000000  0.24999999
