diamond                                 
           1
     6.350000    0.000000    0.000000
     0.000000    6.350000    0.000000
     0.000000    0.000000    6.350000
   H    C 
  16   4
Direct configuration=     1
   0.60030001  0.52968001  0.15026000
   0.54931998  0.63409001  0.89600998
   0.56970000  0.35765001  0.93207002
   0.34876001  0.49586999  0.03313000
   0.96934003  0.10341001  0.13061000
   0.95473999  0.05858004  0.85507000
   0.16532004  0.94997001  0.00338000
   0.90644997  0.84893000  0.03353000
   0.07562006  0.53223002  0.66030997
   0.02463996  0.63664001  0.40605000
   0.04501998  0.36019999  0.44211999
   0.82406998  0.49842000  0.54316997
   0.57178003  0.02575004  0.62698001
   0.52079999  0.13015997  0.37272999
   0.54118002  0.85372001  0.40878999
   0.32023999  0.99194002  0.50984001
   0.51703000  0.50432998  0.00287000
   0.99896002  0.99023002  0.00565000
   0.99234003  0.50687998  0.51292002
   0.48850000  0.00039995  0.47959000
Direct configuration=     2
   0.61686364  0.53629133  0.18552292
   0.56030314  0.66244396  0.87000214
   0.58370836  0.32843488  0.91665405
   0.31411402  0.49671213  0.03978757
   0.95845689  0.12334531  0.15225840
   0.94336123  0.07729978  0.82578123
   0.19990689  0.93884377  0.00237695
   0.88692039  0.82133302  0.04733417
   0.09388440  0.53508592  0.69039709
   0.03319758  0.66203529  0.38095666
   0.05280457  0.33271785  0.42559963
   0.78846949  0.49378701  0.54750063
   0.58647664  0.02901523  0.65790792
   0.53232231  0.15490311  0.34886575
   0.55253695  0.82705491  0.39358962
   0.28352388  0.98778868  0.52037201
   0.51592082  0.50365077  0.00238271
   0.99934868  0.99105184  0.00577193
   0.99290142  0.50679037  0.51351113
   0.48908877  0.00049494  0.47850744
Direct configuration=     3
   0.61854215  0.53696130  0.18909635
   0.56141614  0.66531725  0.86736659
   0.58512793  0.32547431  0.91509185
   0.31060311  0.49679747  0.04046222
   0.95735403  0.12536549  0.15445217
   0.94220814  0.07919678  0.82281321
   0.20341181  0.93771628  0.00227530
   0.88494132  0.81853643  0.04873304
   0.09573525  0.53537533  0.69344602
   0.03406479  0.66460876  0.37841378
   0.05359344  0.32993290  0.42392551
   0.78486185  0.49331752  0.54793948
   0.58796595  0.02934612  0.66104206
   0.53348995  0.15741050  0.34644743
   0.55368783  0.82435275  0.39204926
   0.27980319  0.98736799  0.52143929
   0.51580842  0.50358194  0.00233333
   0.99938806  0.99113512  0.00578429
   0.99295831  0.50678128  0.51357103
   0.48914843  0.00050456  0.47839774
Direct configuration=     4
   0.62189916  0.53830124  0.19624321
   0.56364214  0.67106385  0.86209549
   0.58796705  0.31955318  0.91196744
   0.30358128  0.49696814  0.04181153
   0.95514831  0.12940585  0.15883973
   0.93990197  0.08299078  0.81687715
   0.21042165  0.93546128  0.00207201
   0.88098319  0.81294325  0.05153079
   0.09943695  0.53595414  0.69954388
   0.03579919  0.66975571  0.37332802
   0.05517117  0.32436299  0.42057727
   0.77764657  0.49237854  0.54881719
   0.59094457  0.03000788  0.66731033
   0.53582522  0.16242527  0.34161078
   0.55598958  0.81894844  0.38896855
   0.27236180  0.98652663  0.52357385
   0.51558362  0.50344428  0.00223457
   0.99946683  0.99130168  0.00580900
   0.99307209  0.50676312  0.51369083
   0.48926776  0.00052382  0.47817834
Direct configuration=     5
   0.62148669  0.53813660  0.19536509
   0.56336863  0.67035778  0.86274314
   0.58761821  0.32028070  0.91235133
   0.30444404  0.49694717  0.04164575
   0.95541932  0.12890942  0.15830064
   0.94018533  0.08252462  0.81760650
   0.20956037  0.93573835  0.00209698
   0.88146952  0.81363048  0.05118703
   0.09898213  0.53588302  0.69879465
   0.03558609  0.66912332  0.37395290
   0.05497731  0.32504736  0.42098866
   0.77853310  0.49249391  0.54870935
   0.59057859  0.02992657  0.66654016
   0.53553829  0.16180912  0.34220505
   0.55570676  0.81961246  0.38934707
   0.27327611  0.98663000  0.52331158
   0.51561124  0.50346119  0.00224670
   0.99945715  0.99128122  0.00580597
   0.99305811  0.50676535  0.51367611
   0.48925310  0.00052145  0.47820529
Direct configuration=     6
   0.62004008  0.54648486  0.20399128
   0.56827098  0.66761750  0.86354311
   0.58793127  0.32140192  0.90933936
   0.30904685  0.49994182  0.03693501
   0.95175985  0.12988070  0.15906812
   0.93789235  0.08591799  0.82032000
   0.20221121  0.93444776  0.00110398
   0.88127156  0.81141081  0.05939354
   0.09750322  0.53563219  0.69727578
   0.03761844  0.66760599  0.37270323
   0.05522258  0.31818034  0.41445723
   0.77757549  0.49175722  0.54721749
   0.59185819  0.03175517  0.67254684
   0.53949977  0.15502217  0.34362082
   0.55868452  0.81656773  0.38294466
   0.27264938  0.98587866  0.52432552
   0.51394258  0.50410785  0.00085839
   0.00347268  0.98991613  0.00138974
   0.99205250  0.51114722  0.51666703
   0.48560658  0.00440607  0.47737880
