diamond                                 
           1
     6.350000    0.000000    0.000000
     0.000000    6.350000    0.000000
     0.000000    0.000000    6.350000
   H    C 
  16   4
Direct configuration=     1
   0.60030001  0.52968001  0.15026000
   0.54931998  0.63409001  0.89600998
   0.56970000  0.35765001  0.93207002
   0.34876001  0.49586999  0.03313000
   0.07562006  0.53223002  0.66030997
   0.02463996  0.63664001  0.40605000
   0.04501998  0.36019999  0.44211999
   0.82406998  0.49842000  0.54316997
   0.57178003  0.02575004  0.62698001
   0.52079999  0.13015997  0.37272999
   0.54118002  0.85372001  0.40878999
   0.32023999  0.99194002  0.50984001
   0.08073998  0.02401000  0.14579999
   0.02977002  0.12842000  0.89155000
   0.05014002  0.85197997  0.92760998
   0.82920003  0.99019998  0.02867000
   0.51703000  0.50432998  0.00287000
   0.99234003  0.50687998  0.51292002
   0.48850000  0.00039995  0.47959000
   0.99747002  0.99865001  0.99842000
