diamond                                 
           1
     6.350000    0.000000    0.000000
     0.000000    6.350000    0.000000
     0.000000    0.000000    6.350000
   H    C 
  16   4
Direct configuration=     1
   0.60030001  0.52968001  0.15026000
   0.54931998  0.63409001  0.89600998
   0.56970000  0.35765001  0.93207002
   0.34876001  0.49586999  0.03313000
   0.07562006  0.53223002  0.66030997
   0.02463996  0.63664001  0.40605000
   0.04501998  0.36019999  0.44211999
   0.82406998  0.49842000  0.54316997
   0.57178003  0.02575004  0.62698001
   0.52079999  0.13015997  0.37272999
   0.54118002  0.85372001  0.40878999
   0.32023999  0.99194002  0.50984001
   0.08073998  0.02401000  0.14579999
   0.02977002  0.12842000  0.89155000
   0.05014002  0.85197997  0.92760998
   0.82920003  0.99019998  0.02867000
   0.51703000  0.50432998  0.00287000
   0.99234003  0.50687998  0.51292002
   0.48850000  0.00039995  0.47959000
   0.99747002  0.99865001  0.99842000
Direct configuration=     2
   0.61710519  0.53748960  0.18201841
   0.55856580  0.66361856  0.87411261
   0.58122551  0.32535537  0.91894113
   0.31515459  0.49333012  0.03608271
   0.08899224  0.54135522  0.69105590
   0.03422775  0.66496857  0.38504464
   0.05528684  0.32846754  0.42762305
   0.78977758  0.49561627  0.55109666
   0.58904746  0.02974584  0.65732605
   0.52977512  0.15772980  0.34924665
   0.55088901  0.82437323  0.39562358
   0.28311224  0.98676715  0.51275818
   0.09574060  0.02715951  0.17765061
   0.03825785  0.15408471  0.86727814
   0.05982272  0.82383385  0.91284854
   0.79489417  0.98656746  0.03630852
   0.51604618  0.50447159  0.00294812
   0.99212742  0.50745862  0.51304095
   0.48911133  0.00015928  0.47957361
   0.99746050  0.99866767  0.99831185
