   32   32    1    1
  0.9254429E+01  0.4932875E-09  0.4932875E-09  0.1405931E-08  0.5000000E-15
  1.000000000000000E-004
  CAR 
 graphite                                
    128     76     84
 
  0.0000000E+00  0.0000000E+00  0.0000000E+00  0.6944444E-02
    1      -15.315130
    2      -15.214433
    3      -15.213576
    4      -15.107893
    5      -10.017768
    6      -10.009199
    7      -10.006585
    8       -9.978252
    9       -9.978031
   10       -9.970425
   11       -9.966522
   12       -9.966489
   13       -9.965033
   14       -9.942855
   15       -9.932619
   16       -9.929704
   17       -8.955740
   18       -8.951847
   19       -8.949952
   20       -8.933084
   21       -8.929246
   22       -8.927499
   23       -8.926397
   24       -8.926369
   25       -8.923539
   26       -8.897971
   27       -8.893410
   28       -8.891351
   29       -4.043357
   30       -3.340919
   31       -3.339466
   32       -2.502522
   33       -2.130104
   34       -2.127243
   35       -2.114275
   36       -2.110274
   37       -2.109968
   38       -2.109963
   39       -2.107379
   40       -2.094427
   41       -2.092859
   42       -2.091186
   43       -2.088864
   44       -2.072684
   45        1.252484
   46        1.262432
   47        1.266199
   48        1.270335
   49        1.277836
   50        1.282523
   51        1.285125
   52        1.294275
   53        1.620995
   54        1.621542
   55        1.623466
   56        1.917602
   57        1.919157
   58        1.921378
   59        1.925433
   60        1.925546
   61        1.926716
   62        2.143413
   63        2.154852
   64        2.157429
   65        5.783141
   66        5.785212
   67        5.786990
   68        5.931381
   69        5.936778
   70        5.941285
   71        5.942375
   72        5.942608
   73        5.946949
   74        6.336829
   75        6.349406
   76        6.351772
   77        8.230027
   78       10.519184
   79       10.522599
   80       11.525161
   81       11.528808
   82       11.562992
   83       11.661085
   84       11.669524
 
  0.1666667E+00 -0.1387779E-16  0.0000000E+00  0.1388889E-01
    1      -15.149911
    2      -15.050226
    3      -15.049376
    4      -14.944844
    5      -11.305521
    6      -11.230505
    7      -11.229640
    8      -11.152023
    9      -10.437125
   10      -10.430182
   11      -10.371674
   12      -10.370643
   13      -10.363932
   14      -10.363574
   15      -10.303472
   16      -10.296099
   17       -8.322268
   18       -8.314108
   19       -8.271022
   20       -8.268060
   21       -8.261556
   22       -8.260889
   23       -8.214112
   24       -8.205851
   25       -7.473787
   26       -7.420475
   27       -7.419571
   28       -7.364688
   29       -3.843044
   30       -3.145134
   31       -3.143675
   32       -2.617668
   33       -2.599113
   34       -2.595757
   35       -2.595288
   36       -2.577343
   37       -2.576315
   38       -2.572911
   39       -2.554225
   40       -2.313013
   41       -1.966689
   42       -1.950885
   43       -1.947680
   44       -1.931878
   45        0.569692
   46        0.617453
   47        0.626847
   48        0.630100
   49        0.640756
   50        0.917992
   51        0.927267
   52        0.931666
   53        0.938700
   54        1.076298
   55        1.078654
   56        1.412785
   57        1.416064
   58        1.625628
   59        1.810310
   60        1.811473
   61        1.816213
   62        1.817790
   63        2.187103
   64        2.196519
   65        5.995155
   66        5.998937
   67        6.211553
   68        6.216745
   69        6.221587
   70        6.223018
   71        6.615389
   72        6.625205
   73        6.725749
   74        7.043088
   75        7.045639
   76        7.499817
   77        8.433868
   78       10.704508
   79       10.707847
   80       11.614847
   81       11.745488
   82       11.747518
   83       11.875254
   84       12.273186
 
  0.3333333E+00 -0.2775558E-16  0.0000000E+00  0.1388889E-01
    1      -14.656001
    2      -14.559410
    3      -14.558579
    4      -14.457459
    5      -12.712194
    6      -12.627625
    7      -12.626865
    8      -12.538958
    9      -10.857643
   10      -10.854044
   11      -10.786182
   12      -10.784613
   13      -10.781541
   14      -10.781310
   15      -10.710471
   16      -10.706777
   17       -7.150059
   18       -7.139320
   19       -7.102926
   20       -7.099943
   21       -7.091213
   22       -7.090197
   23       -7.051440
   24       -7.040926
   25       -5.361880
   26       -5.318514
   27       -5.317416
   28       -5.273127
   29       -3.770990
   30       -3.755060
   31       -3.741880
   32       -3.741495
   33       -3.726398
   34       -3.724766
   35       -3.711456
   36       -3.695291
   37       -3.246523
   38       -2.563012
   39       -2.561533
   40       -1.750739
   41       -1.493423
   42       -1.478321
   43       -1.474843
   44       -1.459847
   45       -1.032317
   46       -1.012522
   47       -1.010255
   48       -0.990520
   49       -0.954409
   50       -0.346268
   51       -0.344529
   52        0.122664
   53        0.134229
   54        0.138581
   55        0.149501
   56        0.359714
   57        1.125959
   58        1.128681
   59        1.621726
   60        1.622445
   61        1.625355
   62        1.627246
   63        2.161070
   64        2.165911
   65        6.531969
   66        6.537529
   67        6.786584
   68        6.791487
   69        6.794711
   70        6.796264
   71        7.109110
   72        7.114087
   73        8.883393
   74        9.046225
   75        9.181191
   76        9.183451
   77        9.568220
   78       11.250243
   79       11.253296
   80       11.427418
   81       11.900433
   82       11.968166
   83       11.970534
   84       12.186702
 
  0.5000000E+00  0.0000000E+00  0.0000000E+00  0.6944444E-02
    1      -13.840720
    2      -13.838020
    3      -13.750480
    4      -13.747041
    5      -13.747013
    6      -13.745069
    7      -13.652780
    8      -13.650048
    9      -11.005769
   10      -11.004099
   11      -10.933211
   12      -10.930685
   13      -10.930652
   14      -10.929828
   15      -10.855621
   16      -10.853933
   17       -6.248450
   18       -6.245953
   19       -6.224564
   20       -6.220702
   21       -6.219556
   22       -6.219550
   23       -6.196821
   24       -6.195222
   25       -4.659593
   26       -4.658635
   27       -4.642299
   28       -4.642288
   29       -4.641862
   30       -4.639253
   31       -4.621768
   32       -4.619976
   33       -3.146080
   34       -3.143593
   35       -3.114454
   36       -3.113193
   37       -3.113177
   38       -3.108623
   39       -3.080975
   40       -3.077396
   41       -2.271154
   42       -2.268989
   43       -1.615622
   44       -1.612226
   45       -1.612108
   46       -1.610402
   47       -0.840094
   48       -0.837626
   49       -0.764201
   50       -0.756180
   51       -0.748372
   52       -0.741469
   53       -0.741458
   54       -0.740846
   55       -0.728969
   56       -0.725927
   57        1.011862
   58        1.013691
   59        1.537327
   60        1.538887
   61        1.539293
   62        1.542075
   63        2.128533
   64        2.130830
   65        6.867854
   66        6.870384
   67        7.091142
   68        7.096192
   69        7.096956
   70        7.097464
   71        7.322193
   72        7.324857
   73       10.062209
   74       10.063050
   75       11.296153
   76       11.299303
   77       11.426942
   78       11.431797
   79       11.433653
   80       11.439632
   81       11.765585
   82       11.768424
   83       12.097816
   84       12.100207
 
  0.0000000E+00  0.1666667E+00  0.0000000E+00  0.1388889E-01
    1      -15.149914
    2      -15.050233
    3      -15.049377
    4      -14.944848
    5      -11.305530
    6      -11.230518
    7      -11.229639
    8      -11.152025
    9      -10.437216
   10      -10.430261
   11      -10.371927
   12      -10.370643
   13      -10.363949
   14      -10.363583
   15      -10.303494
   16      -10.296202
   17       -8.322444
   18       -8.313068
   19       -8.271403
   20       -8.268060
   21       -8.260892
   22       -8.259169
   23       -8.214184
   24       -8.204636
   25       -7.474601
   26       -7.421257
   27       -7.420465
   28       -7.365551
   29       -3.843034
   30       -3.145117
   31       -3.143669
   32       -2.618959
   33       -2.599290
   34       -2.597772
   35       -2.595294
   36       -2.577344
   37       -2.576223
   38       -2.574234
   39       -2.554368
   40       -2.312998
   41       -1.965175
   42       -1.948450
   43       -1.947676
   44       -1.930832
   45        0.570170
   46        0.615892
   47        0.625814
   48        0.626842
   49        0.636841
   50        0.922749
   51        0.931185
   52        0.931671
   53        0.940190
   54        1.077501
   55        1.078869
   56        1.412515
   57        1.415349
   58        1.626519
   59        1.810029
   60        1.811310
   61        1.815067
   62        1.817095
   63        2.187096
   64        2.195200
   65        5.995462
   66        6.000661
   67        6.211931
   68        6.216729
   69        6.222447
   70        6.225779
   71        6.615542
   72        6.627038
   73        6.724131
   74        7.042063
   75        7.043744
   76        7.498423
   77        8.433876
   78       10.704540
   79       10.707878
   80       11.615340
   81       11.746435
   82       11.747539
   83       11.875726
   84       12.259156
 
  0.1666667E+00  0.1666667E+00  0.0000000E+00  0.1388889E-01
    1      -14.820102
    2      -14.722487
    3      -14.721651
    4      -14.619383
    5      -11.925858
    6      -11.923000
    7      -11.847708
    8      -11.844061
    9      -11.844039
   10      -11.842001
   11      -11.762998
   12      -11.760122
   13       -9.593078
   14       -9.555435
   15       -9.554888
   16       -9.521666
   17       -8.553142
   18       -8.533594
   19       -8.529928
   20       -8.502474
   21       -6.367615
   22       -6.364400
   23       -6.321213
   24       -6.317836
   25       -6.317815
   26       -6.314632
   27       -6.270295
   28       -6.266853
   29       -3.941021
   30       -3.910784
   31       -3.909578
   32       -3.878538
   33       -3.444268
   34       -2.755825
   35       -2.754353
   36       -2.291377
   37       -2.288191
   38       -2.271995
   39       -2.267557
   40       -2.267552
   41       -2.266624
   42       -2.248237
   43       -2.245771
   44       -1.936714
   45       -0.416595
   46       -0.407282
   47       -0.404382
   48       -0.394319
   49       -0.062907
   50       -0.060579
   51        0.240616
   52        0.249058
   53        0.253057
   54        0.259074
   55        0.501977
   56        0.505144
   57        0.505294
   58        0.507047
   59        1.145655
   60        1.148050
   61        2.220882
   62        2.515316
   63        2.517480
   64        2.732612
   65        5.678330
   66        5.716950
   67        5.721556
   68        5.945758
   69        7.683258
   70        7.685707
   71        7.991925
   72        7.994345
   73        7.994748
   74        7.997342
   75        8.383808
   76        8.386098
   77        8.843650
   78       11.076520
   79       11.079697
   80       12.335571
   81       12.338634
   82       12.513530
   83       12.525593
   84       12.555060
 
  0.3333333E+00  0.1666667E+00  0.0000000E+00  0.1388889E-01
    1      -14.164573
    2      -14.071036
    3      -14.070225
    4      -13.972476
    5      -13.193974
    6      -13.106456
    7      -13.105659
    8      -13.014494
    9      -12.240650
   10      -12.159165
   11      -12.158256
   12      -12.073648
   13       -9.570740
   14       -9.510704
   15       -9.510312
   16       -9.449105
   17       -7.685730
   18       -7.646909
   19       -7.643704
   20       -7.603791
   21       -5.375251
   22       -5.345083
   23       -5.343757
   24       -5.311587
   25       -5.214269
   26       -5.181111
   27       -5.178899
   28       -5.145442
   29       -4.228850
   30       -4.193292
   31       -4.192224
   32       -4.156096
   33       -3.187271
   34       -3.164704
   35       -3.163894
   36       -3.140222
   37       -2.656642
   38       -2.141991
   39       -2.121661
   40       -2.118811
   41       -2.096911
   42       -1.987884
   43       -1.986170
   44       -1.653507
   45       -1.636083
   46       -1.632860
   47       -1.615304
   48       -1.507401
   49       -1.197831
   50       -0.875107
   51       -0.873523
   52       -0.760909
   53       -0.748128
   54       -0.743490
   55       -0.731190
   56       -0.393869
   57       -0.134894
   58        0.197706
   59        0.198942
   60        0.880565
   61        2.527896
   62        2.923759
   63        2.925591
   64        3.306482
   65        5.399933
   66        5.573257
   67        5.577341
   68        5.813152
   69        8.478488
   70        8.706318
   71        8.709110
   72        8.950858
   73        9.662279
   74        9.970055
   75       10.201159
   76       10.203230
   77       10.491086
   78       10.876915
   79       11.782914
   80       11.787048
   81       12.089398
   82       12.211906
   83       12.382510
   84       12.387168
 
  0.5000000E+00  0.1666667E+00  0.0000000E+00  0.1388889E-01
    1      -14.165803
    2      -14.072282
    3      -14.071434
    4      -13.973701
    5      -13.192238
    6      -13.104706
    7      -13.103962
    8      -13.012773
    9      -12.241889
   10      -12.160420
   11      -12.159481
   12      -12.074892
   13       -9.568199
   14       -9.508172
   15       -9.507446
   16       -9.446211
   17       -7.679248
   18       -7.639720
   19       -7.638096
   20       -7.597484
   21       -5.384906
   22       -5.354415
   23       -5.354300
   24       -5.321789
   25       -5.224934
   26       -5.192036
   27       -5.188627
   28       -5.155434
   29       -4.231867
   30       -4.196607
   31       -4.194898
   32       -4.159041
   33       -3.174647
   34       -3.152483
   35       -3.150235
   36       -3.126932
   37       -2.657827
   38       -2.141840
   39       -2.120831
   40       -2.119809
   41       -2.097352
   42       -1.989004
   43       -1.987356
   44       -1.650973
   45       -1.633702
   46       -1.629779
   47       -1.612499
   48       -1.505834
   49       -1.198944
   50       -0.873651
   51       -0.871949
   52       -0.760116
   53       -0.747499
   54       -0.744597
   55       -0.731744
   56       -0.394945
   57       -0.133463
   58        0.196544
   59        0.197770
   60        0.879245
   61        2.528374
   62        2.926312
   63        2.927537
   64        3.312040
   65        5.399847
   66        5.575576
   67        5.578067
   68        5.814155
   69        8.473803
   70        8.702197
   71        8.705656
   72        8.948756
   73        9.660662
   74        9.970875
   75       10.200803
   76       10.203056
   77       10.489956
   78       10.879142
   79       11.782088
   80       11.786190
   81       12.087942
   82       12.208951
   83       12.380861
   84       12.385361
 
 -0.3333333E+00  0.1666667E+00  0.0000000E+00  0.1388889E-01
    1      -14.820838
    2      -14.723232
    3      -14.722374
    4      -14.620115
    5      -11.928111
    6      -11.922143
    7      -11.848679
    8      -11.847749
    9      -11.842619
   10      -11.841861
   11      -11.765409
   12      -11.759430
   13       -9.583776
   14       -9.545503
   15       -9.544681
   16       -9.510764
   17       -8.550278
   18       -8.529038
   19       -8.528219
   20       -8.498937
   21       -6.378242
   22       -6.368820
   23       -6.331473
   24       -6.328813
   25       -6.321330
   26       -6.320267
   27       -6.280880
   28       -6.271624
   29       -3.956578
   30       -3.926218
   31       -3.925419
   32       -3.894250
   33       -3.445001
   34       -2.756525
   35       -2.755087
   36       -2.288178
   37       -2.269857
   38       -2.268582
   39       -2.265214
   40       -2.249565
   41       -2.247843
   42       -2.245523
   43       -2.227302
   44       -1.937409
   45       -0.426170
   46       -0.416150
   47       -0.415081
   48       -0.405371
   49       -0.064599
   50       -0.060174
   51        0.253222
   52        0.260017
   53        0.260747
   54        0.268045
   55        0.500979
   56        0.502299
   57        0.505376
   58        0.507355
   59        1.143205
   60        1.147994
   61        2.221691
   62        2.521219
   63        2.522701
   64        2.745044
   65        5.677066
   66        5.722579
   67        5.724241
   68        5.952374
   69        7.675804
   70        7.684717
   71        7.983777
   72        7.987581
   73        7.993038
   74        7.995232
   75        8.377201
   76        8.383847
   77        8.842652
   78       11.075637
   79       11.078812
   80       12.336249
   81       12.349413
   82       12.515211
   83       12.552442
   84       12.559699
 
 -0.1666667E+00  0.1666667E+00  0.0000000E+00  0.1388889E-01
    1      -15.150161
    2      -15.050481
    3      -15.049617
    4      -14.945093
    5      -11.311821
    6      -11.236838
    7      -11.235985
    8      -11.158422
    9      -10.428979
   10      -10.427038
   11      -10.364222
   12      -10.361275
   13      -10.361253
   14      -10.360257
   15      -10.295040
   16      -10.293024
   17       -8.317253
   18       -8.315584
   19       -8.265240
   20       -8.263721
   21       -8.263705
   22       -8.261789
   23       -8.209116
   24       -8.207333
   25       -7.483657
   26       -7.431085
   27       -7.428633
   28       -7.374488
   29       -3.843283
   30       -3.145354
   31       -3.143916
   32       -2.618871
   33       -2.616296
   34       -2.598579
   35       -2.594463
   36       -2.594455
   37       -2.594251
   38       -2.574149
   39       -2.572211
   40       -2.313235
   41       -1.945631
   42       -1.929178
   43       -1.927585
   44       -1.910961
   45        0.565386
   46        0.599512
   47        0.609599
   48        0.614085
   49        0.622931
   50        0.936886
   51        0.944556
   52        0.947601
   53        0.957074
   54        1.072167
   55        1.073671
   56        1.415718
   57        1.417722
   58        1.619842
   59        1.813587
   60        1.817878
   61        1.817991
   62        1.818726
   63        2.195059
   64        2.197510
   65        5.998027
   66        6.000775
   67        6.219836
   68        6.221352
   69        6.221569
   70        6.225688
   71        6.623417
   72        6.625897
   73        6.717636
   74        7.032396
   75        7.036428
   76        7.489491
   77        8.433532
   78       10.704218
   79       10.707555
   80       11.649372
   81       11.780924
   82       11.781339
   83       11.909574
   84       12.257279
 
 -0.2710505E-19  0.3333333E+00  0.0000000E+00  0.1388889E-01
    1      -14.656014
    2      -14.559436
    3      -14.558579
    4      -14.457472
    5      -12.712246
    6      -12.627727
    7      -12.626867
    8      -12.539010
    9      -10.857923
   10      -10.853800
   11      -10.786891
   12      -10.784614
   13      -10.781390
   14      -10.780686
   15      -10.710669
   16      -10.706485
   17       -7.150107
   18       -7.138304
   19       -7.103048
   20       -7.099941
   21       -7.090198
   22       -7.088719
   23       -7.051314
   24       -7.039643
   25       -5.362791
   26       -5.319331
   27       -5.318509
   28       -5.274130
   29       -3.772312
   30       -3.755313
   31       -3.744257
   32       -3.741503
   33       -3.726400
   34       -3.725272
   35       -3.712588
   36       -3.695589
   37       -3.246478
   38       -2.562934
   39       -2.561507
   40       -1.750673
   41       -1.491706
   42       -1.475677
   43       -1.474839
   44       -1.458737
   45       -1.033835
   46       -1.013719
   47       -1.012525
   48       -0.992524
   49       -0.954248
   50       -0.345780
   51       -0.344402
   52        0.125655
   53        0.137806
   54        0.138586
   55        0.150891
   56        0.360101
   57        1.125307
   58        1.128459
   59        1.620282
   60        1.622428
   61        1.625380
   62        1.626663
   63        2.160627
   64        2.165150
   65        6.532204
   66        6.539239
   67        6.787205
   68        6.791485
   69        6.795855
   70        6.798585
   71        7.109540
   72        7.115855
   73        8.882285
   74        9.046239
   75        9.180416
   76        9.182305
   77        9.567272
   78       11.250373
   79       11.253420
   80       11.427512
   81       11.901089
   82       11.969449
   83       11.970599
   84       12.187304
 
  0.1666667E+00  0.3333333E+00  0.0000000E+00  0.1388889E-01
    1      -14.164581
    2      -14.071050
    3      -14.070226
    4      -13.972482
    5      -13.194031
    6      -13.106567
    7      -13.105661
    8      -13.014550
    9      -12.240593
   10      -12.159054
   11      -12.158254
   12      -12.073592
   13       -9.570784
   14       -9.510795
   15       -9.510318
   16       -9.449158
   17       -7.685322
   18       -7.646148
   19       -7.643699
   20       -7.603422
   21       -5.375599
   22       -5.345087
   23       -5.344509
   24       -5.312000
   25       -5.212917
   26       -5.178899
   27       -5.178421
   28       -5.144101
   29       -4.230080
   30       -4.194780
   31       -4.193293
   32       -4.157427
   33       -3.188887
   34       -3.167063
   35       -3.164708
   36       -3.141790
   37       -2.656603
   38       -2.142747
   39       -2.121667
   40       -2.120719
   41       -2.098191
   42       -1.987815
   43       -1.986159
   44       -1.651621
   45       -1.632871
   46       -1.632802
   47       -1.613824
   48       -1.507203
   49       -1.197775
   50       -0.874758
   51       -0.873413
   52       -0.759043
   53       -0.746285
   54       -0.743488
   55       -0.730522
   56       -0.394167
   57       -0.134606
   58        0.197219
   59        0.198725
   60        0.880131
   61        2.527467
   62        2.923573
   63        2.924873
   64        3.306059
   65        5.400291
   66        5.574546
   67        5.577385
   68        5.814068
   69        8.479601
   70        8.708200
   71        8.709456
   72        8.952014
   73        9.662277
   74        9.969029
   75       10.199884
   76       10.202646
   77       10.490118
   78       10.876955
   79       11.783116
   80       11.787226
   81       12.089367
   82       12.211593
   83       12.382217
   84       12.387091
 
  0.3333333E+00  0.3333333E+00  0.0000000E+00  0.1388889E-01
    1      -13.358014
    2      -13.355393
    3      -13.352822
    4      -13.271206
    5      -13.267007
    6      -13.266988
    7      -13.266536
    8      -13.264094
    9      -13.262725
   10      -13.176296
   11      -13.173776
   12      -13.171125
   13       -8.353442
   14       -8.294240
   15       -8.294040
   16       -8.288678
   17       -8.287024
   18       -8.284437
   19       -8.282463
   20       -8.225800
   21       -6.245557
   22       -6.244782
   23       -6.243501
   24       -6.242426
   25       -3.478543
   26       -3.474271
   27       -3.471529
   28       -3.461630
   29       -3.456471
   30       -3.455890
   31       -3.455872
   32       -3.454854
   33       -3.451028
   34       -3.440513
   35       -3.438493
   36       -3.434391
   37       -2.122329
   38       -2.115598
   39       -2.113018
   40       -2.109443
   41       -2.104613
   42       -2.103557
   43       -2.101950
   44       -2.101942
   45       -2.097430
   46       -2.092862
   47       -2.089203
   48       -2.083312
   49       -1.695489
   50       -1.693411
   51       -1.691172
   52       -1.057219
   53       -1.053807
   54       -1.053509
   55       -1.052635
   56       -1.050937
   57       -1.049180
   58       -0.304929
   59       -0.302599
   60       -0.300434
   61        3.796871
   62        4.265084
   63        4.271442
   64        4.274771
   65        4.276925
   66        4.287934
   67        4.288911
   68        4.813624
   69       10.474709
   70       10.478024
   71       10.483355
   72       10.638727
   73       10.651778
   74       10.653042
   75       10.653169
   76       10.654452
   77       10.655008
   78       10.682125
   79       10.684451
   80       10.695583
   81       10.833047
   82       10.833816
   83       10.837162
   84       12.702262
 
  0.5000000E+00  0.3333333E+00  0.0000000E+00  0.1388889E-01
    1      -14.166545
    2      -14.073044
    3      -14.072154
    4      -13.974440
    5      -13.195970
    6      -13.108513
    7      -13.107589
    8      -13.016485
    9      -12.236683
   10      -12.155118
   11      -12.154377
   12      -12.069690
   13       -9.561098
   14       -9.501232
   15       -9.500290
   16       -9.439247
   17       -7.686092
   18       -7.646086
   19       -7.645966
   20       -7.604896
   21       -5.384800
   22       -5.355056
   23       -5.353496
   24       -5.321714
   25       -5.218008
   26       -5.184664
   27       -5.182818
   28       -5.149147
   29       -4.243856
   30       -4.209255
   31       -4.205905
   32       -4.170761
   33       -3.186804
   34       -3.165493
   35       -3.161618
   36       -3.139349
   37       -2.658509
   38       -2.154780
   39       -2.134216
   40       -2.131473
   41       -2.109661
   42       -1.989708
   43       -1.988166
   44       -1.633996
   45       -1.616123
   46       -1.613849
   47       -1.595633
   48       -1.509032
   49       -1.199599
   50       -0.876564
   51       -0.875302
   52       -0.745729
   53       -0.732291
   54       -0.730933
   55       -0.717088
   56       -0.390824
   57       -0.136522
   58        0.200271
   59        0.202090
   60        0.883146
   61        2.532017
   62        2.928920
   63        2.930978
   64        3.313626
   65        5.403602
   66        5.574780
   67        5.576126
   68        5.808163
   69        8.481946
   70        8.707586
   71        8.709328
   72        8.948752
   73        9.659723
   74        9.961165
   75       10.192474
   76       10.196046
   77       10.485247
   78       10.874644
   79       11.780414
   80       11.784603
   81       12.094512
   82       12.204085
   83       12.379198
   84       12.384291
 
 -0.3333333E+00  0.3333333E+00  0.0000000E+00  0.1388889E-01
    1      -14.656993
    2      -14.560429
    3      -14.559541
    4      -14.458447
    5      -12.716160
    6      -12.631676
    7      -12.630747
    8      -12.542925
    9      -10.850342
   10      -10.848634
   11      -10.779176
   12      -10.776660
   13      -10.776641
   14      -10.775711
   15      -10.703123
   16      -10.701381
   17       -7.145822
   18       -7.144120
   19       -7.098058
   20       -7.096628
   21       -7.096619
   22       -7.094457
   23       -7.047594
   24       -7.045683
   25       -5.374755
   26       -5.332117
   27       -5.329400
   28       -5.285845
   29       -3.770671
   30       -3.768565
   31       -3.743171
   32       -3.739515
   33       -3.739113
   34       -3.739108
   35       -3.710883
   36       -3.709227
   37       -3.247453
   38       -2.563871
   39       -2.562489
   40       -1.751611
   41       -1.472871
   42       -1.457166
   43       -1.455369
   44       -1.439514
   45       -1.049552
   46       -1.030417
   47       -1.025965
   48       -1.007114
   49       -0.957917
   50       -0.349313
   51       -0.348075
   52        0.141715
   53        0.153231
   54        0.156043
   55        0.168236
   56        0.356339
   57        1.130339
   58        1.132295
   59        1.624851
   60        1.628922
   61        1.629056
   62        1.629871
   63        2.166320
   64        2.168662
   65        6.537219
   66        6.539693
   67        6.791932
   68        6.793392
   69        6.793551
   70        6.797530
   71        7.109602
   72        7.112154
   73        8.873202
   74        9.044916
   75        9.171077
   76        9.174153
   77        9.559919
   78       11.249304
   79       11.252359
   80       11.426058
   81       11.932939
   82       12.000837
   83       12.001726
   84       12.216892
 
 -0.1666667E+00  0.3333333E+00  0.0000000E+00  0.1388889E-01
    1      -14.820849
    2      -14.723252
    3      -14.722374
    4      -14.620126
    5      -11.928471
    6      -11.921911
    7      -11.849748
    8      -11.847756
    9      -11.841904
   10      -11.841496
   11      -11.765648
   12      -11.759068
   13       -9.584481
   14       -9.546879
   15       -9.544692
   16       -9.511432
   17       -8.548954
   18       -8.528208
   19       -8.526006
   20       -8.497276
   21       -6.378567
   22       -6.369462
   23       -6.332186
   24       -6.328812
   25       -6.321340
   26       -6.320980
   27       -6.280920
   28       -6.272109
   29       -3.957705
   30       -3.928267
   31       -3.925425
   32       -3.895202
   33       -3.444970
   34       -2.756472
   35       -2.755068
   36       -2.286967
   37       -2.270531
   38       -2.266119
   39       -2.265210
   40       -2.249566
   41       -2.248435
   42       -2.243896
   43       -2.227237
   44       -1.937365
   45       -0.429956
   46       -0.419685
   47       -0.415088
   48       -0.406655
   49       -0.064881