 vasp.5.3.5 31Mar14 (build Nov 04 2014 22:34:45) complex                        
  
 executed on         atom-AMD-MKL date 2016.10.17  00:01:11
 running on    6 total cores
 distrk:  each k-point on    6 cores,    1 groups
 distr:  one band on NCORES_PER_BAND=   1 cores,    6 groups


--------------------------------------------------------------------------------------------------------


 INCAR:
 POTCAR:   PAW_PBE C 08Apr2002                    

 ----------------------------------------------------------------------------- 
|                                                                             |
|           W    W    AA    RRRRR   N    N  II  N    N   GGGG   !!!           |
|           W    W   A  A   R    R  NN   N  II  NN   N  G    G  !!!           |
|           W    W  A    A  R    R  N N  N  II  N N  N  G       !!!           |
|           W WW W  AAAAAA  RRRRR   N  N N  II  N  N N  G  GGG   !            |
|           WW  WW  A    A  R   R   N   NN  II  N   NN  G    G                |
|           W    W  A    A  R    R  N    N  II  N    N   GGGG   !!!           |
|                                                                             |
|      For optimal performance we recommend to set                            |
|        NCORE= 4 - approx SQRT( number of cores)                             |
|      NCORE specifies how many cores store one orbital (NPAR=cpu/NCORE).     |
|      This setting can  greatly improve the performance of VASP for DFT.     |
|      The default, NPAR=number of cores might be grossly inefficient         |
|      on modern multi-core architectures or massively parallel machines.     |
|      Do your own testing !!!!                                               |
|      Unfortunately you need to use the default for GW and RPA calculations. |
|      (for HF NCORE is supported but not extensively tested yet)             |
|                                                                             |
 ----------------------------------------------------------------------------- 

 POTCAR:   PAW_PBE C 08Apr2002                    
   VRHFIN =C: s2p2                                                              
   LEXCH  = PE                                                                  
   EATOM  =   147.1560 eV,   10.8157 Ry                                         
                                                                                
   TITEL  = PAW_PBE C 08Apr2002                                                 
   LULTRA =        F    use ultrasoft PP ?                                      
   IUNSCR =        0    unscreen: 0-lin 1-nonlin 2-no                           
   RPACOR =     .000    partial core radius                                     
   POMASS =   12.011; ZVAL   =    4.000    mass and valenz                      
   RCORE  =    1.500    outmost cutoff radius                                   
   RWIGS  =    1.630; RWIGS  =     .863    wigner-seitz radius (au A)           
   ENMAX  =  400.000; ENMIN  =  300.000 eV                                      
   ICORE  =        2    local potential                                         
   LCOR   =        T    correct aug charges                                     
   LPAW   =        T    paw PP                                                  
   EAUG   =  644.873                                                            
   DEXC   =     .000                                                            
   RMAX   =    2.266    core radius for proj-oper                               
   RAUG   =    1.300    factor for augmentation sphere                          
   RDEP   =    1.501    radius for radial grids                                 
   RDEPT  =    1.300    core radius for aug-charge                              
   QCUT   =   -5.516; QGAM   =   11.032    optimization parameters              
                                                                                
   Description                                                                  
     l     E      TYP  RCUT    TYP  RCUT                                        
     0   .000     23  1.200                                                     
     0   .000     23  1.200                                                     
     1   .000     23  1.500                                                     
     1  2.500     23  1.500                                                     
     2   .000      7  1.500                                                     
  local pseudopotential read in
  atomic valenz-charges read in
  non local Contribution for L=           0  read in
    real space projection operators read in
  non local Contribution for L=           0  read in
    real space projection operators read in
  non local Contribution for L=           1  read in
    real space projection operators read in
  non local Contribution for L=           1  read in
    real space projection operators read in
    PAW grid and wavefunctions read in
 
   number of l-projection  operators is LMAX  =           4
   number of lm-projection operators is LMMAX =           8
 

 ----------------------------------------------------------------------------- 
|                                                                             |
|  ADVICE TO THIS USER RUNNING 'VASP/VAMP'   (HEAR YOUR MASTER'S VOICE ...):  |
|                                                                             |
|      You have a (more or less) 'large supercell' and for larger cells       |
|      it might be more efficient to use real space projection operators      |
|      So try LREAL= Auto  in the INCAR   file.                               |
|      Mind: If you want to do a very accurate calculations keep the          |
|      reciprocal projection scheme          (i.e. LREAL=.FALSE.)             |
|                                                                             |
 ----------------------------------------------------------------------------- 

 PAW_PBE C 08Apr2002                    :
 energy of atom  1       EATOM= -147.1560
 kinetic energy error for atom=    0.0016 (will be added to EATOM!!)
 
 
 POSCAR: C                                       
  positions in direct lattice
  No initial velocities read in
 exchange correlation table for  LEXCH =        8
   RHO(1)=    0.500       N(1)  =     2000
   RHO(2)=  100.500       N(2)  =     4000
 


--------------------------------------------------------------------------------------------------------


 ion  position               nearest neighbor table
   1  0.500  0.000  0.126-  20 1.42  18 1.42  19 1.43
   2  1.000  0.000  0.125-  17 1.42  20 1.42  19 1.42
   3  0.500  0.500  0.125-  20 1.42  17 1.42  18 1.42
   4  1.000  0.500  0.125-  19 1.42  18 1.42  17 1.42
   5  0.500  0.000  0.625-  22 1.42  23 1.42  24 1.42
   6  1.000  0.000  0.625-  21 1.42  24 1.42  23 1.42
   7  0.500  0.500  0.625-  24 1.42  21 1.42  22 1.42
   8  1.000  0.500  0.625-  23 1.42  22 1.42  21 1.42
   9  0.000  0.500  0.375-  27 1.42  26 1.42  28 1.42
  10  0.500  0.500  0.375-  28 1.42  25 1.42  27 1.42
  11  0.000  1.000  0.375-  25 1.42  28 1.42  26 1.42
  12  0.500  1.000  0.375-  26 1.42  27 1.42  25 1.42
  13  0.000  0.500  0.875-  31 1.42  30 1.42  32 1.42
  14  0.500  0.500  0.875-  32 1.42  29 1.42  31 1.42
  15  0.000  1.000  0.875-  29 1.42  32 1.42  30 1.42
  16  0.500  1.000  0.875-  30 1.42  31 1.42  29 1.42
  17  0.166  0.334  0.125-   2 1.42   3 1.42   4 1.42
  18  0.666  0.334  0.125-   4 1.42   1 1.42   3 1.42
  19  0.166  0.834  0.125-   4 1.42   2 1.42   1 1.43
  20  0.666  0.834  0.125-   1 1.42   3 1.42   2 1.42
  21  0.166  0.334  0.625-   6 1.42   7 1.42   8 1.42
  22  0.666  0.334  0.625-   5 1.42   8 1.42   7 1.42
  23  0.166  0.834  0.625-   8 1.42   5 1.42   6 1.42
  24  0.666  0.834  0.625-   7 1.42   6 1.42   5 1.42
  25  0.334  0.166  0.375-  11 1.42  10 1.42  12 1.42
  26  0.834  0.166  0.375-  12 1.42   9 1.42  11 1.42
  27  0.334  0.666  0.375-   9 1.42  12 1.42  10 1.42
  28  0.834  0.666  0.375-  10 1.42  11 1.42   9 1.42
  29  0.334  0.166  0.875-  15 1.42  14 1.42  16 1.42
  30  0.834  0.166  0.875-  16 1.42  13 1.42  15 1.42
  31  0.334  0.666  0.875-  13 1.42  16 1.42  14 1.42
  32  0.834  0.666  0.875-  14 1.42  15 1.42  13 1.42
 
  LATTYP: Found a base centered orthorhombic cell.
 ALAT       =     4.9295501972
 B/A-ratio  =     1.7336081796
 C/A-ratio  =     2.8520475462
  
  Lattice vectors:
  
 A1 = (   4.9328744980,  -0.0019192860,   0.0000000000)
 A2 = (  -2.4680993993,   4.2710349859,   0.0000000000)
 A3 = (   0.0000000000,   0.0000000000,  14.0593115437)


Analysis of symmetry for initial positions (statically):
=====================================================================
 Subroutine PRICEL returns:
 Original cell was already a primitive cell.
 

 Routine SETGRP: Setting up the symmetry group for a 
 base centered orthorhombic supercell.


 Subroutine GETGRP returns: Found  1 space group operations
 (whereof  1 operations were pure point group operations)
 out of a pool of  8 trial point group operations.


The static configuration has the point symmetry C_1 .


Analysis of symmetry for dynamics (positions and initial velocities):
=====================================================================
 Subroutine PRICEL returns:
 Original cell was already a primitive cell.
 

 Routine SETGRP: Setting up the symmetry group for a 
 base centered orthorhombic supercell.


 Subroutine GETGRP returns: Found  1 space group operations
 (whereof  1 operations were pure point group operations)
 out of a pool of  8 trial point group operations.


The dynamic configuration has the point symmetry C_1 .
 
 
 KPOINTS: B4C B11C-CBC                            

Automatic generation of k-mesh.
Space group operators:
 irot       det(A)        alpha          n_x          n_y          n_z        tau_x        tau_y        tau_z
    1     1.000000     0.000000     1.000000     0.000000     0.000000     0.000000     0.000000     0.000000
 
 Subroutine IBZKPT returns following result:
 ===========================================
 
 Found     76 irreducible k-points:
 
 Following reciprocal coordinates:
            Coordinates               Weight
  0.000000  0.000000  0.000000      1.000000
  0.166667 -0.000000  0.000000      2.000000
  0.333333 -0.000000  0.000000      2.000000
  0.500000  0.000000  0.000000      1.000000
  0.000000  0.166667  0.000000      2.000000
  0.166667  0.166667  0.000000      2.000000
  0.333333  0.166667  0.000000      2.000000
  0.500000  0.166667  0.000000      2.000000
 -0.333333  0.166667  0.000000      2.000000
 -0.166667  0.166667  0.000000      2.000000
 -0.000000  0.333333  0.000000      2.000000
  0.166667  0.333333  0.000000      2.000000
  0.333333  0.333333  0.000000      2.000000
  0.500000  0.333333  0.000000      2.000000
 -0.333333  0.333333  0.000000      2.000000
 -0.166667  0.333333  0.000000      2.000000
  0.000000  0.500000  0.000000      1.000000
  0.166667  0.500000  0.000000      2.000000
  0.333333  0.500000  0.000000      2.000000
  0.500000  0.500000  0.000000      1.000000
  0.000000  0.000000  0.250000      2.000000
  0.166667 -0.000000  0.250000      2.000000
  0.333333 -0.000000  0.250000      2.000000
  0.500000  0.000000  0.250000      2.000000
 -0.333333  0.000000  0.250000      2.000000
 -0.166667  0.000000  0.250000      2.000000
  0.000000  0.166667  0.250000      2.000000
  0.166667  0.166667  0.250000      2.000000
  0.333333  0.166667  0.250000      2.000000
  0.500000  0.166667  0.250000      2.000000
 -0.333333  0.166667  0.250000      2.000000
 -0.166667  0.166667  0.250000      2.000000
 -0.000000  0.333333  0.250000      2.000000
  0.166667  0.333333  0.250000      2.000000
  0.333333  0.333333  0.250000      2.000000
  0.500000  0.333333  0.250000      2.000000
 -0.333333  0.333333  0.250000      2.000000
 -0.166667  0.333333  0.250000      2.000000
  0.000000  0.500000  0.250000      2.000000
  0.166667  0.500000  0.250000      2.000000
  0.333333  0.500000  0.250000      2.000000
  0.500000  0.500000  0.250000      2.000000
 -0.333333  0.500000  0.250000      2.000000
 -0.166667  0.500000  0.250000      2.000000
  0.000000 -0.333333  0.250000      2.000000
  0.166667 -0.333333  0.250000      2.000000
  0.333333 -0.333333  0.250000      2.000000
  0.500000 -0.333333  0.250000      2.000000
 -0.333333 -0.333333  0.250000      2.000000
 -0.166667 -0.333333  0.250000      2.000000
  0.000000 -0.166667  0.250000      2.000000
  0.166667 -0.166667  0.250000      2.000000
  0.333333 -0.166667  0.250000      2.000000
  0.500000 -0.166667  0.250000      2.000000
 -0.333333 -0.166667  0.250000      2.000000
 -0.166667 -0.166667  0.250000      2.000000
  0.000000  0.000000  0.500000      1.000000
  0.166667 -0.000000  0.500000      2.000000
  0.333333 -0.000000  0.500000      2.000000
  0.500000  0.000000  0.500000      1.000000
  0.000000  0.166667  0.500000      2.000000
  0.166667  0.166667  0.500000      2.000000
  0.333333  0.166667  0.500000      2.000000
  0.500000  0.166667  0.500000      2.000000
 -0.333333  0.166667  0.500000      2.000000
 -0.166667  0.166667  0.500000      2.000000
 -0.000000  0.333333  0.500000      2.000000
  0.166667  0.333333  0.500000      2.000000
  0.333333  0.333333  0.500000      2.000000
  0.500000  0.333333  0.500000      2.000000
 -0.333333  0.333333  0.500000      2.000000
 -0.166667  0.333333  0.500000      2.000000
  0.000000  0.500000  0.500000      1.000000
  0.166667  0.500000  0.500000      2.000000
  0.333333  0.500000  0.500000      2.000000
  0.500000  0.500000  0.500000      1.000000
 
 Following cartesian coordinates:
            Coordinates               Weight
  0.000000  0.000000  0.000000      1.000000
  0.033795  0.019529  0.000000      2.000000
  0.067589  0.039058  0.000000      2.000000
  0.101384  0.058586  0.000000      1.000000
  0.000015  0.039031  0.000000      2.000000
  0.033810  0.058560  0.000000      2.000000
  0.067604  0.078089  0.000000      2.000000
  0.101399  0.097618  0.000000      2.000000
 -0.067574 -0.000026  0.000000      2.000000
 -0.033779  0.019503  0.000000      2.000000
  0.000030  0.078063  0.000000      2.000000
  0.033825  0.097591  0.000000      2.000000
  0.067619  0.117120  0.000000      2.000000
  0.101414  0.136649  0.000000      2.000000
 -0.067559  0.039005  0.000000      2.000000
 -0.033764  0.058534  0.000000      2.000000
  0.000046  0.117094  0.000000      1.000000
  0.033840  0.136623  0.000000      2.000000
  0.067635  0.156152  0.000000      2.000000
  0.101429  0.175680  0.000000      1.000000
  0.000000  0.000000  0.017782      2.000000
  0.033795  0.019529  0.017782      2.000000
  0.067589  0.039058  0.017782      2.000000
  0.101384  0.058586  0.017782      2.000000
 -0.067589 -0.039058  0.017782      2.000000
 -0.033795 -0.019529  0.017782      2.000000
  0.000015  0.039031  0.017782      2.000000
  0.033810  0.058560  0.017782      2.000000
  0.067604  0.078089  0.017782      2.000000
  0.101399  0.097618  0.017782      2.000000
 -0.067574 -0.000026  0.017782      2.000000
 -0.033779  0.019503  0.017782      2.000000
  0.000030  0.078063  0.017782      2.000000
  0.033825  0.097591  0.017782      2.000000
  0.067619  0.117120  0.017782      2.000000
  0.101414  0.136649  0.017782      2.000000
 -0.067559  0.039005  0.017782      2.000000
 -0.033764  0.058534  0.017782      2.000000
  0.000046  0.117094  0.017782      2.000000
  0.033840  0.136623  0.017782      2.000000
  0.067635  0.156152  0.017782      2.000000
  0.101429  0.175680  0.017782      2.000000
 -0.067543  0.078036  0.017782      2.000000
 -0.033749  0.097565  0.017782      2.000000
 -0.000030 -0.078063  0.017782      2.000000
  0.033764 -0.058534  0.017782      2.000000
  0.067559 -0.039005  0.017782      2.000000
  0.101353 -0.019476  0.017782      2.000000
 -0.067619 -0.117120  0.017782      2.000000
 -0.033825 -0.097591  0.017782      2.000000
 -0.000015 -0.039031  0.017782      2.000000
  0.033779 -0.019503  0.017782      2.000000
  0.067574  0.000026  0.017782      2.000000
  0.101368  0.019555  0.017782      2.000000
 -0.067604 -0.078089  0.017782      2.000000
 -0.033810 -0.058560  0.017782      2.000000
  0.000000  0.000000  0.035564      1.000000
  0.033795  0.019529  0.035564      2.000000
  0.067589  0.039058  0.035564      2.000000
  0.101384  0.058586  0.035564      1.000000
  0.000015  0.039031  0.035564      2.000000
  0.033810  0.058560  0.035564      2.000000
  0.067604  0.078089  0.035564      2.000000
  0.101399  0.097618  0.035564      2.000000
 -0.067574 -0.000026  0.035564      2.000000
 -0.033779  0.019503  0.035564      2.000000
  0.000030  0.078063  0.035564      2.000000
  0.033825  0.097591  0.035564      2.000000
  0.067619  0.117120  0.035564      2.000000
  0.101414  0.136649  0.035564      2.000000
 -0.067559  0.039005  0.035564      2.000000
 -0.033764  0.058534  0.035564      2.000000
  0.000046  0.117094  0.035564      1.000000
  0.033840  0.136623  0.035564      2.000000
  0.067635  0.156152  0.035564      2.000000
  0.101429  0.175680  0.035564      1.000000
 
 TETIRR: Found    432 inequivalent tetrahedra from      864


--------------------------------------------------------------------------------------------------------




 Dimension of arrays:
   k-points           NKPTS =     76   k-points in BZ     NKDIM =     76   number of bands    NBANDS=     84
   number of dos      NEDOS =    301   number of ions     NIONS =     32
   non local maximal  LDIM  =      4   non local SUM 2l+1 LMDIM =      8
   total plane-waves  NPLWV = 322560
   max r-space proj   IRMAX =      1   max aug-charges    IRDMAX=  13052
   dimension x,y,z NGX =    48 NGY =   48 NGZ =  140
   dimension x,y,z NGXF=    96 NGYF=   96 NGZF=  280
   support grid    NGXF=    96 NGYF=   96 NGZF=  280
   ions per type =              32
 NGX,Y,Z   is equivalent  to a cutoff of  16.18, 16.18, 16.55 a.u.
 NGXF,Y,Z  is equivalent  to a cutoff of  32.35, 32.35, 33.11 a.u.


 I would recommend the setting:
   dimension x,y,z NGX =    46 NGY =   46 NGZ =  130
 SYSTEM =  graphite                                
 POSCAR =  C                                       

 Startparameter for this run:
   NWRITE =      2    write-flag & timer
   PREC   = accura    normal or accurate (medium, high low for compatibility)
   ISTART =      0    job   : 0-new  1-cont  2-samecut
   ICHARG =      2    charge: 1-file 2-atom 10-const
   ISPIN  =      1    spin polarized calculation?
   LNONCOLLINEAR =      F non collinear calculations
   LSORBIT =      F    spin-orbit coupling
   INIWAV =      1    electr: 0-lowe 1-rand  2-diag
   LASPH  =      F    aspherical Exc in radial PAW
   METAGGA=      F    non-selfconsistent MetaGGA calc.

 Electronic Relaxation 1
   ENCUT  =  800.0 eV  58.80 Ry    7.67 a.u.  11.38 11.38 32.42*2*pi/ulx,y,z
   ENINI  =  800.0     initial cutoff
   ENAUG  =  644.9 eV  augmentation charge cutoff
   NELM   =    200;   NELMIN=  2; NELMDL=  0     # of ELM steps 
   EDIFF  = 0.1E-07   stopping-criterion for ELM
   LREAL  =      F    real-space projection
   NLSPLINE    = F    spline interpolate recip. space projectors
   LCOMPAT=      F    compatible to vasp.4.4
   GGA_COMPAT  = T    GGA compatible to vasp.4.4-vasp.4.6
   LMAXPAW     = -100 max onsite density
   LMAXMIX     =    2 max onsite mixed and CHGCAR
   VOSKOWN=      0    Vosko Wilk Nusair interpolation
   ROPT   =    0.00000
 Ionic relaxation
   EDIFFG = 0.1E-02   stopping-criterion for IOM
   NSW    =      0    number of steps for IOM
   NBLOCK =      1;   KBLOCK =      1    inner block; outer block 
   IBRION =     -1    ionic relax: 0-MD 1-quasi-New 2-CG
   NFREE  =      0    steps in history (QN), initial steepest desc. (CG)
   ISIF   =      2    stress and relaxation
   IWAVPR =     10    prediction:  0-non 1-charg 2-wave 3-comb
   ISYM   =      2    0-nonsym 1-usesym 2-fastsym
   LCORR  =      T    Harris-Foulkes like correction to forces

   POTIM  = 0.5000    time-step for ionic-motion
   TEIN   =    0.0    initial temperature
   TEBEG  =    0.0;   TEEND  =   0.0 temperature during run
   SMASS  =  -3.00    Nose mass-parameter (am)
   estimated Nose-frequenzy (Omega)   =  0.10E-29 period in steps =****** mass=  -0.556E-27a.u.
   SCALEE = 1.0000    scale energy and forces
   NPACO  =    256;   APACO  = 16.0  distance and # of slots for P.C.
   PSTRESS=    0.0 pullay stress

  Mass of Ions in am
   POMASS =  12.01
  Ionic Valenz
   ZVAL   =   4.00
  Atomic Wigner-Seitz radii
   RWIGS  =  -1.00
  virtual crystal weights 
   VCA    =   1.00
   NELECT =     128.0000    total number of electrons
   NUPDOWN=      -1.0000    fix difference up-down

 DOS related values:
   EMIN   =  10.00;   EMAX   =-10.00  energy-range for DOS
   EFERMI =   0.00
   ISMEAR =    -5;   SIGMA  =   0.20  broadening in eV -4-tet -1-fermi 0-gaus

 Electronic relaxation 2 (details)
   IALGO  =     38    algorithm
   LDIAG  =      T    sub-space diagonalisation (order eigenvalues)
   LSUBROT=      F    optimize rotation matrix (better conditioning)
   TURBO    =      0    0=normal 1=particle mesh
   IRESTART =      0    0=no restart 2=restart with 2 vectors
   NREBOOT  =      0    no. of reboots
   NMIN     =      0    reboot dimension
   EREF     =   0.00    reference energy to select bands
   IMIX   =      4    mixing-type and parameters
     AMIX     =   0.40;   BMIX     =  1.00
     AMIX_MAG =   1.60;   BMIX_MAG =  1.00
     AMIN     =   0.10
     WC   =   100.;   INIMIX=   1;  MIXPRE=   1;  MAXMIX= -45

 Intra band minimization:
   WEIMIN = 0.0000     energy-eigenvalue tresh-hold
   EBREAK =  0.30E-10  absolut break condition
   DEPER  =   0.30     relativ break condition  

   TIME   =   0.40     timestep for ELM

  volume/ion in A,a.u.               =       9.25        62.45
  Fermi-wavevector in a.u.,A,eV,Ry     =   1.237784  2.339073 20.845620  1.532110
  Thomas-Fermi vector in A             =   2.372337
 
 Write flags
   LWAVE  =      F    write WAVECAR
   LCHARG =      F    write CHGCAR
   LVTOT  =      F    write LOCPOT, total local potential
   LVHAR  =      F    write LOCPOT, Hartree potential only
   LELF   =      F    write electronic localiz. function (ELF)
   LORBIT =      0    0 simple, 1 ext, 2 COOP (PROOUT)


 Dipole corrections
   LMONO  =      F    monopole corrections only (constant potential shift)
   LDIPOL =      F    correct potential (dipole corrections)
   IDIPOL =      0    1-x, 2-y, 3-z, 4-all directions 
   EPSILON=  1.0000000 bulk dielectric constant

 Exchange correlation treatment:
   GGA     =    PE    GGA type
   LEXCH   =     8    internal setting for exchange type
   VOSKOWN=      0    Vosko Wilk Nusair interpolation
   LHFCALC =     F    Hartree Fock is set to
   LHFONE  =     F    Hartree Fock one center treatment
   AEXX    =    0.0000 exact exchange contribution

 Linear response parameters
   LEPSILON=     F    determine dielectric tensor
   LRPA    =     F    only Hartree local field effects (RPA)
   LNABLA  =     F    use nabla operator in PAW spheres
   LVEL    =     F    velocity operator in full k-point grid
   LINTERFAST=   F  fast interpolation
   KINTER  =     0    interpolate to denser k-point grid
   CSHIFT  =0.1000    complex shift for real part using Kramers Kronig
   OMEGAMAX=  -1.0    maximum frequency
   DEG_THRESHOLD= 0.2000000E-02 threshold for treating states as degnerate
   RTIME   =    0.100 relaxation time in fs

 Orbital magnetization related:
   ORBITALMAG=     F  switch on orbital magnetization
   LCHIMAG   =     F  perturbation theory with respect to B field
   DQ        =  0.001000  dq finite difference perturbation B field



--------------------------------------------------------------------------------------------------------


 Static calculation
 charge density and potential will be updated during run
 non-spin polarized calculation
 Variant of blocked Davidson
 Davidson routine will perform the subspace rotation
 perform sub-space diagonalisation
    after iterative eigenvector-optimisation
 modified Broyden-mixing scheme, WC =      100.0
 initial mixing is a Kerker type mixing with AMIX =  0.4000 and BMIX =      1.0000
 Hartree-type preconditioning will be used
 using additional bands           20
 reciprocal scheme for non local part
 calculate Harris-corrections to forces 
   (improved forces if not selfconsistent)
 use gradient corrections 
 use of overlap-Matrix (Vanderbilt PP)
 Fermi weights with tetrahedron method with Bloechl corrections


--------------------------------------------------------------------------------------------------------


  energy-cutoff  :      800.00
  volume of cell :      296.14
      direct lattice vectors                 reciprocal lattice vectors
     4.932874498 -0.001919286  0.000000000     0.202767147  0.117172881  0.000000000
    -2.468099399  4.271034986  0.000000000     0.000091118  0.234187941  0.000000000
     0.000000000  0.000000000 14.059311544     0.000000000  0.000000000  0.071127238

  length of vectors
     4.932874871  4.932874871 14.059311544     0.234187958  0.234187958  0.071127238


 
 k-points in units of 2pi/SCALE and weight: B4C B11C-CBC                            
   0.00000000  0.00000000  0.00000000       0.007
   0.03379452  0.01952881  0.00000000       0.014
   0.06758905  0.03905763  0.00000000       0.014
   0.10138357  0.05858644  0.00000000       0.007
   0.00001519  0.03903132  0.00000000       0.014
   0.03380971  0.05856014  0.00000000       0.014
   0.06760424  0.07808895  0.00000000       0.014
   0.10139876  0.09761776  0.00000000       0.014
  -0.06757386 -0.00002630  0.00000000       0.014
  -0.03377934  0.01950251  0.00000000       0.014
   0.00003037  0.07806265  0.00000000       0.014
   0.03382490  0.09759146  0.00000000       0.014
   0.06761942  0.11712027  0.00000000       0.014
   0.10141395  0.13664909  0.00000000       0.014
  -0.06755868  0.03900502  0.00000000       0.014
  -0.03376415  0.05853383  0.00000000       0.014
   0.00004556  0.11709397  0.00000000       0.007
   0.03384008  0.13662278  0.00000000       0.014
   0.06763461  0.15615160  0.00000000       0.014
   0.10142913  0.17568041  0.00000000       0.007
   0.00000000  0.00000000  0.01778181       0.014
   0.03379452  0.01952881  0.01778181       0.014
   0.06758905  0.03905763  0.01778181       0.014
   0.10138357  0.05858644  0.01778181       0.014
  -0.06758905 -0.03905763  0.01778181       0.014
  -0.03379452 -0.01952881  0.01778181       0.014
   0.00001519  0.03903132  0.01778181       0.014
   0.03380971  0.05856014  0.01778181       0.014
   0.06760424  0.07808895  0.01778181       0.014
   0.10139876  0.09761776  0.01778181       0.014
  -0.06757386 -0.00002630  0.01778181       0.014
  -0.03377934  0.01950251  0.01778181       0.014
   0.00003037  0.07806265  0.01778181       0.014
   0.03382490  0.09759146  0.01778181       0.014
   0.06761942  0.11712027  0.01778181       0.014
   0.10141395  0.13664909  0.01778181       0.014
  -0.06755868  0.03900502  0.01778181       0.014
  -0.03376415  0.05853383  0.01778181       0.014
   0.00004556  0.11709397  0.01778181       0.014
   0.03384008  0.13662278  0.01778181       0.014
   0.06763461  0.15615160  0.01778181       0.014
   0.10142913  0.17568041  0.01778181       0.014
  -0.06754349  0.07803634  0.01778181       0.014
  -0.03374897  0.09756516  0.01778181       0.014
  -0.00003037 -0.07806265  0.01778181       0.014
   0.03376415 -0.05853383  0.01778181       0.014
   0.06755868 -0.03900502  0.01778181       0.014
   0.10135320 -0.01947621  0.01778181       0.014
  -0.06761942 -0.11712027  0.01778181       0.014
  -0.03382490 -0.09759146  0.01778181       0.014
  -0.00001519 -0.03903132  0.01778181       0.014
   0.03377934 -0.01950251  0.01778181       0.014
   0.06757386  0.00002630  0.01778181       0.014
   0.10136839  0.01955512  0.01778181       0.014
  -0.06760424 -0.07808895  0.01778181       0.014
  -0.03380971 -0.05856014  0.01778181       0.014
   0.00000000  0.00000000  0.03556362       0.007
   0.03379452  0.01952881  0.03556362       0.014
   0.06758905  0.03905763  0.03556362       0.014
   0.10138357  0.05858644  0.03556362       0.007
   0.00001519  0.03903132  0.03556362       0.014
   0.03380971  0.05856014  0.03556362       0.014
   0.06760424  0.07808895  0.03556362       0.014
   0.10139876  0.09761776  0.03556362       0.014
  -0.06757386 -0.00002630  0.03556362       0.014
  -0.03377934  0.01950251  0.03556362       0.014
   0.00003037  0.07806265  0.03556362       0.014
   0.03382490  0.09759146  0.03556362       0.014
   0.06761942  0.11712027  0.03556362       0.014
   0.10141395  0.13664909  0.03556362       0.014
  -0.06755868  0.03900502  0.03556362       0.014
  -0.03376415  0.05853383  0.03556362       0.014
   0.00004556  0.11709397  0.03556362       0.007
   0.03384008  0.13662278  0.03556362       0.014
   0.06763461  0.15615160  0.03556362       0.014
   0.10142913  0.17568041  0.03556362       0.007
 
 k-points in reciprocal lattice and weights: B4C B11C-CBC                            
   0.00000000  0.00000000  0.00000000       0.007
   0.16666667 -0.00000000  0.00000000       0.014
   0.33333333 -0.00000000  0.00000000       0.014
   0.50000000  0.00000000  0.00000000       0.007
   0.00000000  0.16666667  0.00000000       0.014
   0.16666667  0.16666667  0.00000000       0.014
   0.33333333  0.16666667  0.00000000       0.014
   0.50000000  0.16666667  0.00000000       0.014
  -0.33333333  0.16666667  0.00000000       0.014
  -0.16666667  0.16666667  0.00000000       0.014
  -0.00000000  0.33333333  0.00000000       0.014
   0.16666667  0.33333333  0.00000000       0.014
   0.33333333  0.33333333  0.00000000       0.014
   0.50000000  0.33333333  0.00000000       0.014
  -0.33333333  0.33333333  0.00000000       0.014
  -0.16666667  0.33333333  0.00000000       0.014
   0.00000000  0.50000000  0.00000000       0.007
   0.16666667  0.50000000  0.00000000       0.014
   0.33333333  0.50000000  0.00000000       0.014
   0.50000000  0.50000000  0.00000000       0.007
   0.00000000  0.00000000  0.25000000       0.014
   0.16666667 -0.00000000  0.25000000       0.014
   0.33333333 -0.00000000  0.25000000       0.014
   0.50000000  0.00000000  0.25000000       0.014
  -0.33333333  0.00000000  0.25000000       0.014
  -0.16666667  0.00000000  0.25000000       0.014
   0.00000000  0.16666667  0.25000000       0.014
   0.16666667  0.16666667  0.25000000       0.014
   0.33333333  0.16666667  0.25000000       0.014
   0.50000000  0.16666667  0.25000000       0.014
  -0.33333333  0.16666667  0.25000000       0.014
  -0.16666667  0.16666667  0.25000000       0.014
  -0.00000000  0.33333333  0.25000000       0.014
   0.16666667  0.33333333  0.25000000       0.014
   0.33333333  0.33333333  0.25000000       0.014
   0.50000000  0.33333333  0.25000000       0.014
  -0.33333333  0.33333333  0.25000000       0.014
  -0.16666667  0.33333333  0.25000000       0.014
   0.00000000  0.50000000  0.25000000       0.014
   0.16666667  0.50000000  0.25000000       0.014
   0.33333333  0.50000000  0.25000000       0.014
   0.50000000  0.50000000  0.25000000       0.014
  -0.33333333  0.50000000  0.25000000       0.014
  -0.16666667  0.50000000  0.25000000       0.014
   0.00000000 -0.33333333  0.25000000       0.014
   0.16666667 -0.33333333  0.25000000       0.014
   0.33333333 -0.33333333  0.25000000       0.014
   0.50000000 -0.33333333  0.25000000       0.014
  -0.33333333 -0.33333333  0.25000000       0.014
  -0.16666667 -0.33333333  0.25000000       0.014
   0.00000000 -0.16666667  0.25000000       0.014
   0.16666667 -0.16666667  0.25000000       0.014
   0.33333333 -0.16666667  0.25000000       0.014
   0.50000000 -0.16666667  0.25000000       0.014
  -0.33333333 -0.16666667  0.25000000       0.014
  -0.16666667 -0.16666667  0.25000000       0.014
   0.00000000  0.00000000  0.50000000       0.007
   0.16666667 -0.00000000  0.50000000       0.014
   0.33333333 -0.00000000  0.50000000       0.014
   0.50000000  0.00000000  0.50000000       0.007
   0.00000000  0.16666667  0.50000000       0.014
   0.16666667  0.16666667  0.50000000       0.014
   0.33333333  0.16666667  0.50000000       0.014
   0.50000000  0.16666667  0.50000000       0.014
  -0.33333333  0.16666667  0.50000000       0.014
  -0.16666667  0.16666667  0.50000000       0.014
  -0.00000000  0.33333333  0.50000000       0.014
   0.16666667  0.33333333  0.50000000       0.014
   0.33333333  0.33333333  0.50000000       0.014
   0.50000000  0.33333333  0.50000000       0.014
  -0.33333333  0.33333333  0.50000000       0.014
  -0.16666667  0.33333333  0.50000000       0.014
   0.00000000  0.50000000  0.50000000       0.007
   0.16666667  0.50000000  0.50000000       0.014
   0.33333333  0.50000000  0.50000000       0.014
   0.50000000  0.50000000  0.50000000       0.007
 
 position of ions in fractional coordinates (direct lattice) 
   0.50034446  0.00032672  0.12567116
   0.99967330  0.00032672  0.12500000
   0.49967330  0.50032672  0.12500000
   0.99967330  0.50032672  0.12500000
   0.49967330  0.00032672  0.62500000
   0.99967330  0.00032672  0.62500000
   0.49967330  0.50032672  0.62500000
   0.99967330  0.50032672  0.62500000
   0.00032672  0.49967330  0.37500000
   0.50032672  0.49967330  0.37500000
   0.00032672  0.99967330  0.37500000
   0.50032672  0.99967330  0.37500000
   0.00032672  0.49967330  0.87500000
   0.50032672  0.49967330  0.87500000
   0.00032672  0.99967330  0.87500000
   0.50032672  0.99967330  0.87500000
   0.16629246  0.33370753  0.12500000
   0.66629246  0.33370753  0.12500000
   0.16629246  0.83370753  0.12500000
   0.66629246  0.83370753  0.12500000
   0.16629246  0.33370753  0.62500000
   0.66629246  0.33370753  0.62500000
   0.16629246  0.83370753  0.62500000
   0.66629246  0.83370753  0.62500000
   0.33370753  0.16629246  0.37500000
   0.83370753  0.16629246  0.37500000
   0.33370753  0.66629246  0.37500000
   0.83370753  0.66629246  0.37500000
   0.33370753  0.16629246  0.87500000
   0.83370753  0.16629246  0.87500000
   0.33370753  0.66629246  0.87500000
   0.83370753  0.66629246  0.87500000
 
 position of ions in cartesian coordinates  (Angst):
   2.46733007  0.00043512  1.76684999
   4.93045658 -0.00052323  1.75741394
   1.22996963  2.13595390  1.75741394
   3.69640688  2.13499426  1.75741394
   2.46401933  0.00043641  8.78706971
   4.93045658 -0.00052323  8.78706971
   1.22996963  2.13595390  8.78706971
   3.69640688  2.13499426  8.78706971
  -1.23163172  2.13412154  5.27224183
   1.23480553  2.13316189  5.27224183
  -2.46568142  4.26963903  5.27224183
   0.00075583  4.26867939  5.27224183
  -1.23163172  2.13412154 12.30189760
   1.23480553  2.13316189 12.30189760
  -2.46568142  4.26963903 12.30189760
   0.00075583  4.26867939 12.30189760
  -0.00332350  1.42495737  1.75741394
   2.46311374  1.42399773  1.75741394
  -1.23737320  3.56047486  1.75741394
   1.22906405  3.55951522  1.75741394
  -0.00332350  1.42495737  8.78706971
   2.46311374  1.42399773  8.78706971
  -1.23737320  3.56047486  8.78706971
   1.22906405  3.55951522  8.78706971
   1.23571103  0.70960044  5.27224183
   3.70214828  0.70864080  5.27224183
   0.00166133  2.84511794  5.27224183
   2.46809858  2.84415829  5.27224183
   1.23571103  0.70960044 12.30189760
   3.70214828  0.70864080 12.30189760
   0.00166133  2.84511794 12.30189760
   2.46809858  2.84415829 12.30189760
 


--------------------------------------------------------------------------------------------------------


 k-point  1 :   0.0000 0.0000 0.0000  plane waves:   15273
 k-point  2 :   0.1667-0.0000 0.0000  plane waves:   15258
 k-point  3 :   0.3333-0.0000 0.0000  plane waves:   15206
 k-point  4 :   0.5000 0.0000 0.0000  plane waves:   15224
 k-point  5 :   0.0000 0.1667 0.0000  plane waves:   15258
 k-point  6 :   0.1667 0.1667 0.0000  plane waves:   15217
 k-point  7 :   0.3333 0.1667 0.0000  plane waves:   15203
 k-point  8 :   0.5000 0.1667 0.0000  plane waves:   15207
 k-point  9 :  -0.3333 0.1667 0.0000  plane waves:   15217
 k-point 10 :  -0.1667 0.1667 0.0000  plane waves:   15264
 k-point 11 :  -0.0000 0.3333 0.0000  plane waves:   15206
 k-point 12 :   0.1667 0.3333 0.0000  plane waves:   15203
 k-point 13 :   0.3333 0.3333 0.0000  plane waves:   15178
 k-point 14 :   0.5000 0.3333 0.0000  plane waves:   15203
 k-point 15 :  -0.3333 0.3333 0.0000  plane waves:   15212
 k-point 16 :  -0.1667 0.3333 0.0000  plane waves:   15217
 k-point 17 :   0.0000 0.5000 0.0000  plane waves:   15224
 k-point 18 :   0.1667 0.5000 0.0000  plane waves:   15207
 k-point 19 :   0.3333 0.5000 0.0000  plane waves:   15203
 k-point 20 :   0.5000 0.5000 0.0000  plane waves:   15224
 k-point 21 :   0.0000 0.0000 0.2500  plane waves:   15203
 k-point 22 :   0.1667-0.0000 0.2500  plane waves:   15252
 k-point 23 :   0.3333-0.0000 0.2500  plane waves:   15217
 k-point 24 :   0.5000 0.0000 0.2500  plane waves:   15222
 k-point 25 :  -0.3333 0.0000 0.2500  plane waves:   15217
 k-point 26 :  -0.1667 0.0000 0.2500  plane waves:   15252
 k-point 27 :   0.0000 0.1667 0.2500  plane waves:   15252
 k-point 28 :   0.1667 0.1667 0.2500  plane waves:   15226
 k-point 29 :   0.3333 0.1667 0.2500  plane waves:   15195
 k-point 30 :   0.5000 0.1667 0.2500  plane waves:   15195
 k-point 31 :  -0.3333 0.1667 0.2500  plane waves:   15233
 k-point 32 :  -0.1667 0.1667 0.2500  plane waves:   15252
 k-point 33 :  -0.0000 0.3333 0.2500  plane waves:   15217
 k-point 34 :   0.1667 0.3333 0.2500  plane waves:   15195
 k-point 35 :   0.3333 0.3333 0.2500  plane waves:   15207
 k-point 36 :   0.5000 0.3333 0.2500  plane waves:   15197
 k-point 37 :  -0.3333 0.3333 0.2500  plane waves:   15217
 k-point 38 :  -0.1667 0.3333 0.2500  plane waves:   15233
 k-point 39 :   0.0000 0.5000 0.2500  plane waves:   15222
 k-point 40 :   0.1667 0.5000 0.2500  plane waves:   15195
 k-point 41 :   0.3333 0.5000 0.2500  plane waves:   15197
 k-point 42 :   0.5000 0.5000 0.2500  plane waves:   15226
 k-point 43 :  -0.3333 0.5000 0.2500  plane waves:   15197
 k-point 44 :  -0.1667 0.5000 0.2500  plane waves:   15195
 k-point 45 :   0.0000-0.3333 0.2500  plane waves:   15217
 k-point 46 :   0.1667-0.3333 0.2500  plane waves:   15233
 k-point 47 :   0.3333-0.3333 0.2500  plane waves:   15217
 k-point 48 :   0.5000-0.3333 0.2500  plane waves:   15197
 k-point 49 :  -0.3333-0.3333 0.2500  plane waves:   15207
 k-point 50 :  -0.1667-0.3333 0.2500  plane waves:   15195
 k-point 51 :   0.0000-0.1667 0.2500  plane waves:   15252
 k-point 52 :   0.1667-0.1667 0.2500  plane waves:   15252
 k-point 53 :   0.3333-0.1667 0.2500  plane waves:   15233
 k-point 54 :   0.5000-0.1667 0.2500  plane waves:   15195
 k-point 55 :  -0.3333-0.1667 0.2500  plane waves:   15195
 k-point 56 :  -0.1667-0.1667 0.2500  plane waves:   15226
 k-point 57 :   0.0000 0.0000 0.5000  plane waves:   15232
 k-point 58 :   0.1667-0.0000 0.5000  plane waves:   15242
 k-point 59 :   0.3333-0.0000 0.5000  plane waves:   15210
 k-point 60 :   0.5000 0.0000 0.5000  plane waves:   15220
 k-point 61 :   0.0000 0.1667 0.5000  plane waves:   15242
 k-point 62 :   0.1667 0.1667 0.5000  plane waves:   15238
 k-point 63 :   0.3333 0.1667 0.5000  plane waves:   15184
 k-point 64 :   0.5000 0.1667 0.5000  plane waves:   15176
 k-point 65 :  -0.3333 0.1667 0.5000  plane waves:   15234
 k-point 66 :  -0.1667 0.1667 0.5000  plane waves:   15250
 k-point 67 :  -0.0000 0.3333 0.5000  plane waves:   15210
 k-point 68 :   0.1667 0.3333 0.5000  plane waves:   15184
 k-point 69 :   0.3333 0.3333 0.5000  plane waves:   15202
 k-point 70 :   0.5000 0.3333 0.5000  plane waves:   15188
 k-point 71 :  -0.3333 0.3333 0.5000  plane waves:   15218
 k-point 72 :  -0.1667 0.3333 0.5000  plane waves:   15234
 k-point 73 :   0.0000 0.5000 0.5000  plane waves:   15220
 k-point 74 :   0.1667 0.5000 0.5000  plane waves:   15176
 k-point 75 :   0.3333 0.5000 0.5000  plane waves:   15188
 k-point 76 :   0.5000 0.5000 0.5000  plane waves:   15212

 maximum and minimum number of plane-waves per node :     15273    15176

 maximum number of plane-waves:     15273
 maximum index in each direction: 
   IXMAX=   11   IYMAX=   11   IZMAX=   32
   IXMIN=  -11   IYMIN=  -11   IZMIN=  -32

 NGX is ok and might be reduce to  46
 NGY is ok and might be reduce to  46
 NGZ is ok and might be reduce to 130

 serial   3D FFT for wavefunctions
 parallel 3D FFT for charge:
    minimum data exchange during FFTs selected (reduces bandwidth)


 total amount of memory used by VASP on root node   426170. kBytes
========================================================================

   base      :      30000. kBytes
   nonl-proj :      82123. kBytes
   fftplans  :      15818. kBytes
   grid      :      33681. kBytes
   one-center:         98. kBytes
   wavefun   :     264450. kBytes
 
     INWAV:  cpu time    0.00: real time    0.00
 Broyden mixing: mesh for mixing (old mesh)
   NGX = 23   NGY = 23   NGZ = 65
  (NGX  = 96   NGY  = 96   NGZ  =280)
  gives a total of  34385 points

 initial charge density was supplied:
 charge density of overlapping atoms calculated
 number of electron     128.0000000 magnetization 
 keeping initial charge density in first step


--------------------------------------------------------------------------------------------------------


 Maximum index for augmentation-charges         2110 (set IRDMAX)


--------------------------------------------------------------------------------------------------------


 First call to EWALD:  gamma=   0.266
 Maximum number of real-space cells 4x 4x 2
 Maximum number of reciprocal cells 2x 2x 5

 FEWALD executed in parallel
    FEWALD:  cpu time    0.04: real time    0.10


----------------------------------------- Iteration    1(   1)  ---------------------------------------


    POTLOK:  cpu time    1.39: real time    3.50
    SETDIJ:  cpu time    0.07: real time    0.17
     EDDAV:  cpu time  440.76: real time 1095.26
 BZINTS: Fermi energy: 16.835450;128.000000 electrons
         Band energy: 129.423271;  BLOECHL correction: -0.131451
       DOS:  cpu time    0.09: real time    0.23
    --------------------------------------------
      LOOP:  cpu time  442.30: real time 1099.18

 eigenvalue-minimisations  : 12768
 total energy-change (2. order) : 0.7308633E+03  (-0.8333260E+04)
 number of electron     128.0000000 magnetization 
 augmentation part      128.0000000 magnetization 

 Free energy of the ion-electron system (eV)
  ---------------------------------------------------
  alpha Z        PSCENC =       281.74243124
  Ewald energy   TEWEN  =     -3451.21658878
  -Hartree energ DENC   =     -1343.73849095
  -exchange      EXHF   =         0.00000000
  -V(xc)+E(xc)   XCENC  =       442.52644615
  PAW double counting   =      1210.60617908    -1247.42152856
  entropy T*S    EENTRO =         0.00000000
  eigenvalues    EBANDS =       129.42327131
  atomic energy  EATOM  =      4708.94155045
  ---------------------------------------------------
  free energy    TOTEN  =       730.86326994 eV

  energy without entropy =      730.86326994  energy(sigma->0) =      730.86326994


--------------------------------------------------------------------------------------------------------




----------------------------------------- Iteration    1(   2)  ---------------------------------------


     EDDAV:  cpu time  498.96: real time 1249.67
 BZINTS: Fermi energy:  3.488834;128.000000 electrons
         Band energy:-852.786551;  BLOECHL correction: -0.002734
       DOS:  cpu time    0.08: real time    0.22
    --------------------------------------------
      LOOP:  cpu time  499.06: real time 1249.95

 eigenvalue-minimisations  : 15936
 total energy-change (2. order) :-0.9822098E+03  (-0.9458851E+03)
 number of electron     128.0000000 magnetization 
 augmentation part      128.0000000 magnetization 

 Free energy of the ion-electron system (eV)
  ---------------------------------------------------
  alpha Z        PSCENC =       281.74243124
  Ewald energy   TEWEN  =     -3451.21658878
  -Hartree energ DENC   =     -1343.73849095
  -exchange      EXHF   =         0.00000000
  -V(xc)+E(xc)   XCENC  =       442.52644615
  PAW double counting   =      1210.60617908    -1247.42152856
  entropy T*S    EENTRO =         0.00000000
  eigenvalues    EBANDS =      -852.78655066
  atomic energy  EATOM  =      4708.94155045
  ---------------------------------------------------
  free energy    TOTEN  =      -251.34655203 eV

  energy without entropy =     -251.34655203  energy(sigma->0) =     -251.34655203


--------------------------------------------------------------------------------------------------------




----------------------------------------- Iteration    1(   3)  ---------------------------------------


     EDDAV:  cpu time  490.03: real time 1232.35
 BZINTS: Fermi energy:  2.692759;128.000000 electrons
         Band energy:-914.449062;  BLOECHL correction: -0.000029
       DOS:  cpu time    0.07: real time    0.19
    --------------------------------------------
      LOOP:  cpu time  490.11: real time 1232.58

 eigenvalue-minimisations  : 15492
 total energy-change (2. order) :-0.6166251E+02  (-0.6104359E+02)
 number of electron     128.0000000 magnetization 
 augmentation part      128.0000000 magnetization 

 Free energy of the ion-electron system (eV)
  ---------------------------------------------------
  alpha Z        PSCENC =       281.74243124
  Ewald energy   TEWEN  =     -3451.21658878
  -Hartree energ DENC   =     -1343.73849095
  -exchange      EXHF   =         0.00000000
  -V(xc)+E(xc)   XCENC  =       442.52644615
  PAW double counting   =      1210.60617908    -1247.42152856
  entropy T*S    EENTRO =         0.00000000
  eigenvalues    EBANDS =      -914.44906196
  atomic energy  EATOM  =      4708.94155045
  ---------------------------------------------------
  free energy    TOTEN  =      -313.00906333 eV

  energy without entropy =     -313.00906333  energy(sigma->0) =     -313.00906333


--------------------------------------------------------------------------------------------------------




----------------------------------------- Iteration    1(   4)  ---------------------------------------


     EDDAV:  cpu time  498.29: real time 1249.46
 BZINTS: Fermi energy:  2.687735;128.000000 electrons
         Band energy:-915.700869;  BLOECHL correction:  0.000000
       DOS:  cpu time    0.04: real time    0.11
    --------------------------------------------
      LOOP:  cpu time  498.35: real time 1249.63

 eigenvalue-minimisations  : 16116
 total energy-change (2. order) :-0.1251807E+01  (-0.1249252E+01)
 number of electron     128.0000000 magnetization 
 augmentation part      128.0000000 magnetization 

 Free energy of the ion-electron system (eV)
  ---------------------------------------------------
  alpha Z        PSCENC =       281.74243124
  Ewald energy   TEWEN  =     -3451.21658878
  -Hartree energ DENC   =     -1343.73849095
  -exchange      EXHF   =         0.00000000
  -V(xc)+E(xc)   XCENC  =       442.52644615
  PAW double counting   =      1210.60617908    -1247.42152856
  entropy T*S    EENTRO =         0.00000000
  eigenvalues    EBANDS =      -915.70086879
  atomic energy  EATOM  =      4708.94155045
  ---------------------------------------------------
  free energy    TOTEN  =      -314.26087016 eV

  energy without entropy =     -314.26087016  energy(sigma->0) =     -314.26087016


--------------------------------------------------------------------------------------------------------




----------------------------------------- Iteration    1(   5)  ---------------------------------------


     EDDAV:  cpu time  504.01: real time 1265.09
 BZINTS: Fermi energy:  2.687112;128.000000 electrons
         Band energy:-915.737370;  BLOECHL correction:  0.000000
       DOS:  cpu time    0.05: real time    0.17
    CHARGE:  cpu time    6.57: real time   16.38
    MIXING:  cpu time    0.10: real time    0.26
    --------------------------------------------
      LOOP:  cpu time  510.74: real time 1281.94

 eigenvalue-minimisations  : 16488
 total energy-change (2. order) :-0.3650104E-01  (-0.3648825E-01)
 number of electron     127.9999989 magnetization 
 augmentation part        3.3955122 magnetization 

 Broyden mixing:
  rms(total) = 0.22093E+01    rms(broyden)= 0.22093E+01
  rms(prec ) = 0.25814E+01
  weight for this iteration     100.00

 Free energy of the ion-electron system (eV)
  ---------------------------------------------------
  alpha Z        PSCENC =       281.74243124
  Ewald energy   TEWEN  =     -3451.21658878
  -Hartree energ DENC   =     -1343.73849095
  -exchange      EXHF   =         0.00000000
  -V(xc)+E(xc)   XCENC  =       442.52644615
  PAW double counting   =      1210.60617908    -1247.42152856
  entropy T*S    EENTRO =         0.00000000
  eigenvalues    EBANDS =      -915.73736982
  atomic energy  EATOM  =      4708.94155045
  ---------------------------------------------------
  free energy    TOTEN  =      -314.29737119 eV

  energy without entropy =     -314.29737119  energy(sigma->0) =     -314.29737119


--------------------------------------------------------------------------------------------------------




----------------------------------------- Iteration    1(   6)  ---------------------------------------


    POTLOK:  cpu time    1.28: real time    3.30
    SETDIJ:  cpu time    0.07: real time    0.20
     EDDAV:  cpu time  474.43: real time 1183.53
 BZINTS: Fermi energy:  3.488266;128.000000 electrons
         Band energy:-770.406187;  BLOECHL correction:  0.000000
       DOS:  cpu time    0.05: real time    0.14
    CHARGE:  cpu time    6.44: real time   16.78
    MIXING:  cpu time    0.11: real time    0.28
    --------------------------------------------
      LOOP:  cpu time  482.39: real time 1204.24

 eigenvalue-minimisations  : 14592
 total energy-change (2. order) : 0.1461375E+02  (-0.1500494E+01)
 number of electron     127.9999990 magnetization 
 augmentation part        3.2391262 magnetization 

 Broyden mixing:
  rms(total) = 0.11599E+01    rms(broyden)= 0.11599E+01
  rms(prec ) = 0.13478E+01
  weight for this iteration     100.00

 eigenvalues of (default mixing * dielectric matrix)
  average eigenvalue GAMMA=   2.0338
  2.0338

 Free energy of the ion-electron system (eV)
  ---------------------------------------------------
  alpha Z        PSCENC =       281.74243124
  Ewald energy   TEWEN  =     -3451.21658878
  -Hartree energ DENC   =     -1480.00072740
  -exchange      EXHF   =         0.00000000
  -V(xc)+E(xc)   XCENC  =       450.96093978
  PAW double counting   =      1642.53092368    -1682.23596629
  entropy T*S    EENTRO =         0.00000000
  eigenvalues    EBANDS =      -770.40618683
  atomic energy  EATOM  =      4708.94155045
  ---------------------------------------------------
  free energy    TOTEN  =      -299.68362415 eV

  energy without entropy =     -299.68362415  energy(sigma->0) =     -299.68362415


--------------------------------------------------------------------------------------------------------




----------------------------------------- Iteration    1(   7)  ---------------------------------------


    POTLOK:  cpu time    1.42: real time    3.58
    SETDIJ:  cpu time    0.06: real time    0.19
     EDDAV:  cpu time  474.14: real time 1187.59
 BZINTS: Fermi energy:  4.274694;128.000000 electrons
         Band energy:-620.856568;  BLOECHL correction:  0.000000
       DOS:  cpu time    0.03: real time    0.10
    CHARGE:  cpu time    7.02: real time   16.39
    MIXING:  cpu time    0.10: real time    0.31
    --------------------------------------------
      LOOP:  cpu time  482.80: real time 1208.21

 eigenvalue-minimisations  : 14448
 total energy-change (2. order) : 0.4686295E+01  (-0.1623321E+01)
 number of electron     127.9999990 magnetization 
 augmentation part        3.0719215 magnetization 

 Broyden mixing:
  rms(total) = 0.20088E+00    rms(broyden)= 0.20087E+00
  rms(prec ) = 0.22038E+00
  weight for this iteration     100.00

 eigenvalues of (default mixing * dielectric matrix)
  average eigenvalue GAMMA=   1.9761
  1.9761  1.9761

 Free energy of the ion-electron system (eV)
  ---------------------------------------------------
  alpha Z        PSCENC =       281.74243124
  Ewald energy   TEWEN  =     -3451.21658878
  -Hartree energ DENC   =     -1632.17909414
  -exchange      EXHF   =         0.00000000
  -V(xc)+E(xc)   XCENC  =       460.62021501
  PAW double counting   =      2182.07368344    -2224.12295900
  entropy T*S    EENTRO =         0.00000000
  eigenvalues    EBANDS =      -620.85656759
  atomic energy  EATOM  =      4708.94155045
  ---------------------------------------------------
  free energy    TOTEN  =      -294.99732936 eV

  energy without entropy =     -294.99732936  energy(sigma->0) =     -294.99732936


--------------------------------------------------------------------------------------------------------




----------------------------------------- Iteration    1(   8)  ---------------------------------------


    POTLOK:  cpu time    1.35: real time    3.56
    SETDIJ:  cpu time    0.04: real time    0.12
     EDDAV:  cpu time  481.92: real time 1197.30
 BZINTS: Fermi energy:  4.257999;128.000000 electrons
         Band energy:-622.216103;  BLOECHL correction:  0.000000
       DOS:  cpu time    0.03: real time    0.09
    CHARGE:  cpu time    6.53: real time   16.22
    MIXING:  cpu time    0.10: real time    0.24
    --------------------------------------------
      LOOP:  cpu time  490.00: real time 1217.59

 eigenvalue-minimisations  : 15036
 total energy-change (2. order) :-0.6008980E-01  (-0.6747542E-01)
 number of electron     127.9999990 magnetization 
 augmentation part        3.0628445 magnetization 

 Broyden mixing:
  rms(total) = 0.94114E-01    rms(broyden)= 0.94113E-01
  rms(prec ) = 0.11329E+00
  weight for this iteration     100.00

 eigenvalues of (default mixing * dielectric matrix)
  average eigenvalue GAMMA=   1.6693
  2.3527  2.0573  0.5978

 Free energy of the ion-electron system (eV)
  ---------------------------------------------------
  alpha Z        PSCENC =       281.74243124
  Ewald energy   TEWEN  =     -3451.21658878
  -Hartree energ DENC   =     -1631.36462937
  -exchange      EXHF   =         0.00000000
  -V(xc)+E(xc)   XCENC  =       460.57140180
  PAW double counting   =      2202.36027365    -2243.87575519
  entropy T*S    EENTRO =         0.00000000
  eigenvalues    EBANDS =      -622.21610296
  atomic energy  EATOM  =      4708.94155045
  ---------------------------------------------------
  free energy    TOTEN  =      -295.05741915 eV

  energy without entropy =     -295.05741915  energy(sigma->0) =     -295.05741915


--------------------------------------------------------------------------------------------------------




----------------------------------------- Iteration    1(   9)  ---------------------------------------


    POTLOK:  cpu time    1.43: real time    3.62
    SETDIJ:  cpu time    0.07: real time    0.19
     EDDAV:  cpu time  475.42: real time 1196.60
 BZINTS: Fermi energy:  4.265869;128.000000 electrons
         Band energy:-621.492815;  BLOECHL correction:  0.000000
       DOS:  cpu time    0.03: real time    0.07
    CHARGE:  cpu time    6.92: real time   17.31
    MIXING:  cpu time    0.05: real time    0.16
    --------------------------------------------
      LOOP:  cpu time  483.93: real time 1217.98

 eigenvalue-minimisations  : 14784
 total energy-change (2. order) :-0.3928688E-02  (-0.5235055E-02)
 number of electron     127.9999990 magnetization 
 augmentation part        3.0618482 magnetization 

 Broyden mixing:
  rms(total) = 0.40956E-01    rms(broyden)= 0.40955E-01
  rms(prec ) = 0.62288E-01
  weight for this iteration     100.00

 eigenvalues of (default mixing * dielectric matrix)
  average eigenvalue GAMMA=   1.5098
  2.4333  2.0199  0.7930  0.7930

 Free energy of the ion-electron system (eV)
  ---------------------------------------------------
  alpha Z        PSCENC =       281.74243124
  Ewald energy   TEWEN  =     -3451.21658878
  -Hartree energ DENC   =     -1632.46544593
  -exchange      EXHF   =         0.00000000
  -V(xc)+E(xc)   XCENC  =       460.65635744
  PAW double counting   =      2218.13732550    -2259.36416307
  entropy T*S    EENTRO =         0.00000000
  eigenvalues    EBANDS =      -621.49281470
  atomic energy  EATOM  =      4708.94155045
  ---------------------------------------------------
  free energy    TOTEN  =      -295.06134784 eV

  energy without entropy =     -295.06134784  energy(sigma->0) =     -295.06134784


--------------------------------------------------------------------------------------------------------




----------------------------------------- Iteration    1(  10)  ---------------------------------------


    POTLOK:  cpu time    1.38: real time    3.62
    SETDIJ:  cpu time    0.03: real time    0.06
     EDDAV:  cpu time  596.76: real time 1501.01
 BZINTS: Fermi energy:  4.265095;128.000000 electrons
         Band energy:-620.353791;  BLOECHL correction:  0.000000
       DOS:  cpu time    0.06: real time    0.15
    CHARGE:  cpu time    7.48: real time   17.30
    MIXING:  cpu time    0.10: real time    0.24
    --------------------------------------------
      LOOP:  cpu time  605.82: real time 1522.42

 eigenvalue-minimisations  : 20688
 total energy-change (2. order) :-0.1385127E-02  (-0.1265979E-01)
 number of electron     127.9999990 magnetization 
 augmentation part        3.0611687 magnetization 

 Broyden mixing:
  rms(total) = 0.38526E-01    rms(broyden)= 0.38524E-01
  rms(prec ) = 0.59200E-01
  weight for this iteration     100.00

 eigenvalues of (default mixing * dielectric matrix)
  average eigenvalue GAMMA=   1.3689
  2.5053  1.9801  1.0622  0.6485  0.6485

 Free energy of the ion-electron system (eV)
  ---------------------------------------------------
  alpha Z        PSCENC =       281.74243124
  Ewald energy   TEWEN  =     -3451.21658878
  -Hartree energ DENC   =     -1633.69750617
  -exchange      EXHF   =         0.00000000
  -V(xc)+E(xc)   XCENC  =       460.74109548
  PAW double counting   =      2221.52169393    -2262.74161845
  entropy T*S    EENTRO =         0.00000000
  eigenvalues    EBANDS =      -620.35379068
  atomic energy  EATOM  =      4708.94155045
  ---------------------------------------------------
  free energy    TOTEN  =      -295.06273297 eV

  energy without entropy =     -295.06273297  energy(sigma->0) =     -295.06273297


--------------------------------------------------------------------------------------------------------




----------------------------------------- Iteration    1(  11)  ---------------------------------------


    POTLOK:  cpu time    1.43: real time    3.61
    SETDIJ:  cpu time    0.07: real time    0.23
     EDDAV:  cpu time  498.43: real time 1249.86
 BZINTS: Fermi energy:  4.273286;128.000000 electrons
         Band energy:-619.801296;  BLOECHL correction:  0.000000
       DOS:  cpu time    0.04: real time    0.11
    CHARGE:  cpu time    6.71: real time   16.67
    MIXING:  cpu time    0.12: real time    0.31
    --------------------------------------------
      LOOP:  cpu time  506.81: real time 1270.81

 eigenvalue-minimisations  : 15828
 total energy-change (2. order) : 0.3938316E-02  (-0.3186486E-02)
 number of electron     127.9999990 magnetization 
 augmentation part        3.0606399 magnetization 

 Broyden mixing:
  rms(total) = 0.12214E-01    rms(broyden)= 0.12213E-01
  rms(prec ) = 0.21543E-01
  weight for this iteration     100.00

 eigenvalues of (default mixing * dielectric matrix)
  average eigenvalue GAMMA=   1.3742
  2.6362  1.8939  1.8939  0.6952  0.6952  0.4308

 Free energy of the ion-electron system (eV)
  ---------------------------------------------------
  alpha Z        PSCENC =       281.74243124
  Ewald energy   TEWEN  =     -3451.21658878
  -Hartree energ DENC   =     -1634.28837606
  -exchange      EXHF   =         0.00000000
  -V(xc)+E(xc)   XCENC  =       460.78127678
  PAW double counting   =      2223.01683708    -2264.23462916
  entropy T*S    EENTRO =         0.00000000
  eigenvalues    EBANDS =      -619.80129620
  atomic energy  EATOM  =      4708.94155045
  ---------------------------------------------------
  free energy    TOTEN  =      -295.05879465 eV

  energy without entropy =     -295.05879465  energy(sigma->0) =     -295.05879465


--------------------------------------------------------------------------------------------------------




----------------------------------------- Iteration    1(  12)  ---------------------------------------


    POTLOK:  cpu time    1.44: real time    3.58
    SETDIJ:  cpu time    0.09: real time    0.26
     EDDAV:  cpu time  485.28: real time 1218.32
 BZINTS: Fermi energy:  4.276103;128.000000 electrons
         Band energy:-619.182274;  BLOECHL correction:  0.000000
       DOS:  cpu time    0.04: real time    0.12
    CHARGE:  cpu time    7.09: real time   18.21
    MIXING:  cpu time    0.14: real time    0.38
    --------------------------------------------
      LOOP:  cpu time  494.08: real time 1240.90

 eigenvalue-minimisations  : 15228
 total energy-change (2. order) :-0.1724823E-02  (-0.1766635E-02)
 number of electron     127.9999990 magnetization 
 augmentation part        3.0602038 magnetization 

 Broyden mixing:
  rms(total) = 0.27645E-01    rms(broyden)= 0.27644E-01
  rms(prec ) = 0.56609E-01
  weight for this iteration     100.00

 eigenvalues of (default mixing * dielectric matrix)
  average eigenvalue GAMMA=   1.2369
  2.5331  2.0489  1.7693  0.9393  0.6193  0.6193  0.1290

 Free energy of the ion-electron system (eV)
  ---------------------------------------------------
  alpha Z        PSCENC =       281.74243124
  Ewald energy   TEWEN  =     -3451.21658878
  -Hartree energ DENC   =     -1634.95369443
  -exchange      EXHF   =         0.00000000
  -V(xc)+E(xc)   XCENC  =       460.82695968
  PAW double counting   =      2223.87004410    -2265.08894734
  entropy T*S    EENTRO =         0.00000000
  eigenvalues    EBANDS =      -619.18227440
  atomic energy  EATOM  =      4708.94155045
  ---------------------------------------------------
  free energy    TOTEN  =      -295.06051948 eV

  energy without entropy =     -295.06051948  energy(sigma->0) =     -295.06051948


--------------------------------------------------------------------------------------------------------




----------------------------------------- Iteration    1(  13)  ---------------------------------------


    POTLOK:  cpu time    1.60: real time    3.92
    SETDIJ:  cpu time    0.06: real time    0.18
     EDDAV:  cpu time  480.06: real time 1197.53
 BZINTS: Fermi energy:  4.274136;128.000000 electrons
         Band energy:-619.320970;  BLOECHL correction:  0.000000
       DOS:  cpu time    0.05: real time    0.11
    CHARGE:  cpu time    6.85: real time   16.61
    MIXING:  cpu time    0.16: real time    0.41
    --------------------------------------------
      LOOP:  cpu time  488.81: real time 1218.82

 eigenvalue-minimisations  : 14688
 total energy-change (2. order) : 0.1168959E-02  (-0.6855608E-03)
 number of electron     127.9999990 magnetization 
 augmentation part        3.0601223 magnetization 

 Broyden mixing:
  rms(total) = 0.13389E-01    rms(broyden)= 0.13388E-01
  rms(prec ) = 0.22501E-01
  weight for this iteration     100.00

 eigenvalues of (default mixing * dielectric matrix)
  average eigenvalue GAMMA=   1.1404
  2.5400  2.1545  1.8589  0.9619  0.6203  0.6203  0.2277  0.1396

 Free energy of the ion-electron system (eV)
  ---------------------------------------------------
  alpha Z        PSCENC =       281.74243124
  Ewald energy   TEWEN  =     -3451.21658878
  -Hartree energ DENC   =     -1634.80689077
  -exchange      EXHF   =         0.00000000
  -V(xc)+E(xc)   XCENC  =       460.81755052
  PAW double counting   =      2222.74718276    -2263.96361633
  entropy T*S    EENTRO =         0.00000000
  eigenvalues    EBANDS =      -619.32096962
  atomic energy  EATOM  =      4708.94155045
  ---------------------------------------------------
  free energy    TOTEN  =      -295.05935052 eV

  energy without entropy =     -295.05935052  energy(sigma->0) =     -295.05935052


--------------------------------------------------------------------------------------------------------




----------------------------------------- Iteration    1(  14)  ---------------------------------------


    POTLOK:  cpu time    1.60: real time    4.33
    SETDIJ:  cpu time    0.10: real time    0.25
     EDDAV:  cpu time  499.25: real time 1248.56
 BZINTS: Fermi energy:  4.276321;128.000000 electrons
         Band energy:-619.289551;  BLOECHL correction:  0.000000
       DOS:  cpu time    0.05: real time    0.14
    CHARGE:  cpu time    6.83: real time   17.15
    MIXING:  cpu time    0.17: real time    0.49
    --------------------------------------------
      LOOP:  cpu time  508.02: real time 1270.97

 eigenvalue-minimisations  : 15900
 total energy-change (2. order) : 0.7615141E-04  (-0.2541577E-03)
 number of electron     127.9999990 magnetization 
 augmentation part        3.0601035 magnetization 

 Broyden mixing:
  rms(total) = 0.99312E-02    rms(broyden)= 0.99305E-02
  rms(prec ) = 0.17064E-01
  weight for this iteration     100.00

 eigenvalues of (default mixing * dielectric matrix)
  average eigenvalue GAMMA=   1.0986
  2.7455  2.2813  1.9736  0.8210  0.6914  0.6914  0.4420  0.1473  0.0940

 Free energy of the ion-electron system (eV)
  ---------------------------------------------------
  alpha Z        PSCENC =       281.74243124
  Ewald energy   TEWEN  =     -3451.21658878
  -Hartree energ DENC   =     -1634.84123024
  -exchange      EXHF   =         0.00000000
  -V(xc)+E(xc)   XCENC  =       460.82008431
  PAW double counting   =      2222.58846480    -2263.80443552
  entropy T*S    EENTRO =         0.00000000
  eigenvalues    EBANDS =      -619.28955063
  atomic energy  EATOM  =      4708.94155045
  ---------------------------------------------------
  free energy    TOTEN  =      -295.05927437 eV

  energy without entropy =     -295.05927437  energy(sigma->0) =     -295.05927437


--------------------------------------------------------------------------------------------------------




----------------------------------------- Iteration    1(  15)  ---------------------------------------


    POTLOK:  cpu time    1.32: real time    3.44
    SETDIJ:  cpu time    0.11: real time    0.22
     EDDAV:  cpu time  547.49: real time 1378.83
 BZINTS: Fermi energy:  4.277223;128.000000 electrons
         Band energy:-619.099124;  BLOECHL correction: -0.000000
       DOS:  cpu time    0.04: real time    0.11
    CHARGE:  cpu time    6.45: real time   17.16
    MIXING:  cpu time    0.13: real time    0.39
    --------------------------------------------
      LOOP:  cpu time  555.55: real time 1400.21

 eigenvalue-minimisations  : 18684
 total energy-change (2. order) :-0.6224563E-03  (-0.6130365E-03)
 number of electron     127.9999990 magnetization 
 augmentation part        3.0601197 magnetization 

 Broyden mixing:
  rms(total) = 0.23761E-01    rms(broyden)= 0.23761E-01
  rms(prec ) = 0.38124E-01
  weight for this iteration     100.00

 eigenvalues of (default mixing * dielectric matrix)
  average eigenvalue GAMMA=   1.1176
  2.8590  2.4478  1.9233  0.9617  0.9617  0.7296  0.5309  0.5309  0.1368  0.0936

 Free energy of the ion-electron system (eV)
  ---------------------------------------------------
  alpha Z        PSCENC =       281.74243124
  Ewald energy   TEWEN  =     -3451.21658878
  -Hartree energ DENC   =     -1635.04695619
  -exchange      EXHF   =         0.00000000
  -V(xc)+E(xc)   XCENC  =       460.83445460
  PAW double counting   =      2222.61720195    -2263.83286637
  entropy T*S    EENTRO =         0.00000000
  eigenvalues    EBANDS =      -619.09912373
  atomic energy  EATOM  =      4708.94155045
  ---------------------------------------------------
  free energy    TOTEN  =      -295.05989682 eV

  energy without entropy =     -295.05989682  energy(sigma->0) =     -295.05989682


--------------------------------------------------------------------------------------------------------




----------------------------------------- Iteration    1(  16)  ---------------------------------------


    POTLOK:  cpu time    1.51: real time    3.51
    SETDIJ:  cpu time    0.09: real time    0.25
     EDDAV:  cpu time  594.12: real time 1478.82
 BZINTS: Fermi energy:  4.278328;128.000000 electrons
         Band energy:-619.069024;  BLOECHL correction:  0.000000
       DOS:  cpu time    0.04: real time    0.11
    CHARGE:  cpu time    6.70: real time   15.81
    MIXING:  cpu time    0.19: real time    0.41
    --------------------------------------------
      LOOP:  cpu time  602.66: real time 1498.93

 eigenvalue-minimisations  : 20652
 total energy-change (2. order) :-0.1666271E-03  (-0.2983965E-02)
 number of electron     127.9999990 magnetization 
 augmentation part        3.0600959 magnetization 

 Broyden mixing:
  rms(total) = 0.25140E-01    rms(broyden)= 0.25138E-01
  rms(prec ) = 0.40086E-01
  weight for this iteration     100.00

 eigenvalues of (default mixing * dielectric matrix)
  average eigenvalue GAMMA=   1.1009
  2.9115  2.4853  1.9194  1.2537  0.9782  0.7519  0.7519  0.4136  0.4136  0.1371
  0.0934

 Free energy of the ion-electron system (eV)
  ---------------------------------------------------
  alpha Z        PSCENC =       281.74243124
  Ewald energy   TEWEN  =     -3451.21658878
  -Hartree energ DENC   =     -1635.08129585
  -exchange      EXHF   =         0.00000000
  -V(xc)+E(xc)   XCENC  =       460.83673318
  PAW double counting   =      2222.33063110    -2263.54450049
  entropy T*S    EENTRO =         0.00000000
  eigenvalues    EBANDS =      -619.06902431
  atomic energy  EATOM  =      4708.94155045
  ---------------------------------------------------
  free energy    TOTEN  =      -295.06006345 eV

  energy without entropy =     -295.06006345  energy(sigma->0) =     -295.06006345


--------------------------------------------------------------------------------------------------------




----------------------------------------- Iteration    1(  17)  ---------------------------------------


    POTLOK:  cpu time    1.44: real time    3.40
    SETDIJ:  cpu time    0.06: real time    0.19
     EDDAV:  cpu time  568.81: real time 1423.46
 BZINTS: Fermi energy:  4.276647;128.000000 electrons
         Band energy:-619.037921;  BLOECHL correction:  0.000000
       DOS:  cpu time    0.04: real time    0.12
    CHARGE:  cpu time    6.41: real time   17.46
    MIXING:  cpu time    0.08: real time    0.17
    --------------------------------------------
      LOOP:  cpu time  576.84: real time 1444.84

 eigenvalue-minimisations  : 19356
 total energy-change (2. order) : 0.7680025E-03  (-0.6589505E-03)
 number of electron     127.9999990 magnetization 
 augmentation part        3.0600422 magnetization 

 Broyden mixing:
  rms(total) = 0.58264E-02    rms(broyden)= 0.58259E-02
  rms(prec ) = 0.11113E-01
  weight for this iteration     100.00

 eigenvalues of (default mixing * dielectric matrix)
  average eigenvalue GAMMA=   1.0787
  2.9216  2.4919  1.8876  1.4068  0.9331  0.7745  0.7745  0.6737  0.4252  0.4252
  0.1369  0.0934

 Free energy of the ion-electron system (eV)
  ---------------------------------------------------
  alpha Z        PSCENC =       281.74243124
  Ewald energy   TEWEN  =     -3451.21658878
  -Hartree energ DENC   =     -1635.11312719
  -exchange      EXHF   =         0.00000000
  -V(xc)+E(xc)   XCENC  =       460.83870221
  PAW double counting   =      2222.28182871    -2263.49617098
  entropy T*S    EENTRO =         0.00000000
  eigenvalues    EBANDS =      -619.03792110
  atomic energy  EATOM  =      4708.94155045
  ---------------------------------------------------
  free energy    TOTEN  =      -295.05929545 eV

  energy without entropy =     -295.05929545  energy(sigma->0) =     -295.05929545


--------------------------------------------------------------------------------------------------------




----------------------------------------- Iteration    1(  18)  ---------------------------------------


    POTLOK:  cpu time    1.41: real time    3.32
    SETDIJ:  cpu time    0.05: real time    0.10
     EDDAV:  cpu time  410.61: real time 1024.88
 BZINTS: Fermi energy:  4.276707;128.000000 electrons
         Band energy:-619.041981;  BLOECHL correction:  0.000000
       DOS:  cpu time    0.04: real time    0.11
    CHARGE:  cpu time    7.37: real time   17.38
    MIXING:  cpu time    0.23: real time    0.58
    --------------------------------------------
      LOOP:  cpu time  419.73: real time 1046.47

 eigenvalue-minimisations  : 14700
 total energy-change (2. order) : 0.1973900E-04  (-0.4371099E-04)
 number of electron     127.9999990 magnetization 
 augmentation part        3.0600577 magnetization 

 Broyden mixing:
  rms(total) = 0.22520E-02    rms(broyden)= 0.22514E-02
  rms(prec ) = 0.41522E-02
  weight for this iteration     100.00

 eigenvalues of (default mixing * dielectric matrix)
  average eigenvalue GAMMA=   1.0251
  2.9340  2.4953  1.8954  1.3973  0.8592  0.7711  0.7711  0.4434  0.4434  0.5939
  0.4922  0.1369  0.0934

 Free energy of the ion-electron system (eV)
  ---------------------------------------------------
  alpha Z        PSCENC =       281.74243124
  Ewald energy   TEWEN  =     -3451.21658878
  -Hartree energ DENC   =     -1635.10903288
  -exchange      EXHF   =         0.00000000
  -V(xc)+E(xc)   XCENC  =       460.83832285
  PAW double counting   =      2222.24023689    -2263.45421489
  entropy T*S    EENTRO =         0.00000000
  eigenvalues    EBANDS =      -619.04198060
  atomic energy  EATOM  =      4708.94155045
  ---------------------------------------------------
  free energy    TOTEN  =      -295.05927571 eV

  energy without entropy =     -295.05927571  energy(sigma->0) =     -295.05927571


--------------------------------------------------------------------------------------------------------




----------------------------------------- Iteration    1(  19)  ---------------------------------------


    POTLOK:  cpu time    1.31: real time    3.38
    SETDIJ:  cpu time    0.05: real time    0.13
     EDDAV:  cpu time  417.17: real time 1041.24
 BZINTS: Fermi energy:  4.276000;128.000000 electrons
         Band energy:-619.035502;  BLOECHL correction:  0.000000
       DOS:  cpu time    0.04: real time    0.11
    CHARGE:  cpu time    6.89: real time   17.34
    MIXING:  cpu time    0.17: real time    0.42
    --------------------------------------------
      LOOP:  cpu time  425.64: real time 1062.67

 eigenvalue-minimisations  : 14508
 total energy-change (2. order) :-0.4228588E-05  (-0.1057231E-04)
 number of electron     127.9999990 magnetization 
 augmentation part        3.0600534 magnetization 

 Broyden mixing:
  rms(total) = 0.27546E-02    rms(broyden)= 0.27546E-02
  rms(prec ) = 0.45179E-02
  weight for this iteration     100.00

 eigenvalues of (default mixing * dielectric matrix)
  average eigenvalue GAMMA=   1.0305
  2.9559  2.4871  1.8981  1.2566  0.9537  0.9537  0.9732  0.6889  0.6889  0.4961
  0.4225  0.4225  0.1369  0.0934

 Free energy of the ion-electron system (eV)
  ---------------------------------------------------
  alpha Z        PSCENC =       281.74243124
  Ewald energy   TEWEN  =     -3451.21658878
  -Hartree energ DENC   =     -1635.11580332
  -exchange      EXHF   =         0.00000000
  -V(xc)+E(xc)   XCENC  =       460.83874251
  PAW double counting   =      2222.24170032    -2263.45581010
  entropy T*S    EENTRO =         0.00000000
  eigenvalues    EBANDS =      -619.03550226
  atomic energy  EATOM  =      4708.94155045
  ---------------------------------------------------
  free energy    TOTEN  =      -295.05927994 eV

  energy without entropy =     -295.05927994  energy(sigma->0) =     -295.05927994


--------------------------------------------------------------------------------------------------------




----------------------------------------- Iteration    1(  20)  ---------------------------------------


    POTLOK:  cpu time    1.44: real time    3.42
    SETDIJ:  cpu time    0.06: real time    0.11
     EDDAV:  cpu time  445.49: real time 1117.70
 BZINTS: Fermi energy:  4.276032;128.000000 electrons
         Band energy:-619.035248;  BLOECHL correction:  0.000000
       DOS:  cpu time    0.04: real time    0.13
    CHARGE:  cpu time    7.25: real time   18.38
    MIXING:  cpu time    0.21: real time    0.53
    --------------------------------------------
      LOOP:  cpu time  454.52: real time 1140.33

 eigenvalue-minimisations  : 16332
 total energy-change (2. order) : 0.5416819E-05  (-0.3665892E-05)
 number of electron     127.9999990 magnetization 
 augmentation part        3.0600549 magnetization 

 Broyden mixing:
  rms(total) = 0.13930E-02    rms(broyden)= 0.13929E-02
  rms(prec ) = 0.19250E-02
  weight for this iteration     100.00

 eigenvalues of (default mixing * dielectric matrix)
  average eigenvalue GAMMA=   1.0544
  2.9525  2.4859  1.8552  1.6041  1.1608  1.1608  0.9805  0.7294  0.7294  0.7207
  0.4212  0.4212  0.3646  0.1369  0.0934

 Free energy of the ion-electron system (eV)
  ---------------------------------------------------
  alpha Z        PSCENC =       281.74243124
  Ewald energy   TEWEN  =     -3451.21658878
  -Hartree energ DENC   =     -1635.11614077
  -exchange      EXHF   =         0.00000000
  -V(xc)+E(xc)   XCENC  =       460.83874839
  PAW double counting   =      2222.23077414    -2263.44480098
  entropy T*S    EENTRO =         0.00000000
  eigenvalues    EBANDS =      -619.03524821
  atomic energy  EATOM  =      4708.94155045
  ---------------------------------------------------
  free energy    TOTEN  =      -295.05927452 eV

  energy without entropy =     -295.05927452  energy(sigma->0) =     -295.05927452


--------------------------------------------------------------------------------------------------------




----------------------------------------- Iteration    1(  21)  ---------------------------------------


    POTLOK:  cpu time    1.27: real time    3.27
    SETDIJ:  cpu time    0.08: real time    0.23
     EDDAV:  cpu time  445.95: real time 1118.22
 BZINTS: Fermi energy:  4.276016;128.000000 electrons
         Band energy:-619.033793;  BLOECHL correction:  0.000000
       DOS:  cpu time    0.03: real time    0.07
    CHARGE:  cpu time    7.31: real time   17.00
    MIXING:  cpu time    0.08: real time    0.22
    --------------------------------------------
      LOOP:  cpu time  454.73: real time 1139.04

 eigenvalue-minimisations  : 16536
 total energy-change (2. order) :-0.7410708E-06  (-0.2348217E-05)
 number of electron     127.9999990 magnetization 
 augmentation part        3.0600529 magnetization 

 Broyden mixing:
  rms(total) = 0.16173E-02    rms(broyden)= 0.16173E-02
  rms(prec ) = 0.28225E-02
  weight for this iteration     100.00

 eigenvalues of (default mixing * dielectric matrix)
  average eigenvalue GAMMA=   1.0920
  3.0490  2.5376  2.0250  2.0250  1.2824  1.2824  0.9070  0.7847  0.7847  0.6842
  0.6842  0.4212  0.4212  0.3533  0.1369  0.0934

 Free energy of the ion-electron system (eV)
  ---------------------------------------------------
  alpha Z        PSCENC =       281.74243124
  Ewald energy   TEWEN  =     -3451.21658878
  -Hartree energ DENC   =     -1635.11764690
  -exchange      EXHF   =         0.00000000
  -V(xc)+E(xc)   XCENC  =       460.83878860
[...]
     79      11.4579      0.00000
     80      11.4617      0.00000
     81      12.2515      0.00000
     82      12.2532      0.00000
     83      12.4681      0.00000
     84      12.4710      0.00000

 k-point    75 :       0.3333    0.5000    0.5000
  band No.  band energies     occupation 
      1     -14.1395      2.00000
      2     -14.1394      2.00000
      3     -14.0038      2.00000
      4     -14.0035      2.00000
      5     -13.1706      2.00000
      6     -13.1705      2.00000
      7     -13.0438      2.00000
      8     -13.0436      2.00000
      9     -12.2131      2.00000
     10     -12.2129      2.00000
     11     -12.0951      2.00000
     12     -12.0948      2.00000
     13      -9.5439      2.00000
     14      -9.5435      2.00000
     15      -9.4578      2.00000
     16      -9.4574      2.00000
     17      -7.6748      2.00000
     18      -7.6725      2.00000
     19      -7.6174      2.00000
     20      -7.6150      2.00000
     21      -5.3779      2.00000
     22      -5.3757      2.00000
     23      -5.3331      2.00000
     24      -5.3312      2.00000
     25      -5.2092      2.00000
     26      -5.2080      2.00000
     27      -5.1607      2.00000
     28      -5.1593      2.00000
     29      -4.2339      2.00000
     30      -4.2320      2.00000
     31      -4.1822      2.00000
     32      -4.1804      2.00000
     33      -3.1800      2.00000
     34      -3.1783      2.00000
     35      -3.1465      2.00000
     36      -3.1452      2.00000
     37      -2.4725      2.00000
     38      -2.4717      2.00000
     39      -2.1514      2.00000
     40      -2.1472      2.00000
     41      -2.1185      2.00000
     42      -2.1153      2.00000
     43      -1.6299      2.00000
     44      -1.6276      2.00000
     45      -1.6031      2.00000
     46      -1.6006      2.00000
     47      -1.4482      2.00000
     48      -1.4470      2.00000
     49      -1.3325      2.00000
     50      -1.3316      2.00000
     51      -0.7426      2.00000
     52      -0.7391      2.00000
     53      -0.7226      2.00000
     54      -0.7177      2.00000
     55      -0.3681      2.00000
     56      -0.3670      2.00000
     57      -0.2250      2.00000
     58      -0.2242      2.00000
     59       0.6711      2.00000
     60       0.6723      2.00000
     61       2.6469      2.00000
     62       2.6490      2.00000
     63       3.2030      2.00000
     64       3.2055      2.00000
     65       5.4464      0.00000
     66       5.4494      0.00000
     67       5.7327      0.00000
     68       5.7359      0.00000
     69       8.5451      0.00000
     70       8.5465      0.00000
     71       8.8760      0.00000
     72       8.8778      0.00000
     73      10.0144      0.00000
     74      10.0177      0.00000
     75      10.2583      0.00000
     76      10.2598      0.00000
     77      10.3966      0.00000
     78      10.3978      0.00000
     79      11.4543      0.00000
     80      11.4581      0.00000
     81      12.2474      0.00000
     82      12.2496      0.00000
     83      12.4653      0.00000
     84      12.4683      0.00000

 k-point    76 :       0.5000    0.5000    0.5000
  band No.  band energies     occupation 
      1     -13.8178      2.00000
      2     -13.8150      2.00000
      3     -13.8150      2.00000
      4     -13.8124      2.00000
      5     -13.6849      2.00000
      6     -13.6822      2.00000
      7     -13.6822      2.00000
      8     -13.6795      2.00000
      9     -10.9786      2.00000
     10     -10.9770      2.00000
     11     -10.9770      2.00000
     12     -10.9752      2.00000
     13     -10.8724      2.00000
     14     -10.8709      2.00000
     15     -10.8708      2.00000
     16     -10.8691      2.00000
     17      -6.2422      2.00000
     18      -6.2422      2.00000
     19      -6.2419      2.00000
     20      -6.2384      2.00000
     21      -6.2071      2.00000
     22      -6.2071      2.00000
     23      -6.2068      2.00000
     24      -6.2025      2.00000
     25      -4.6615      2.00000
     26      -4.6583      2.00000
     27      -4.6571      2.00000
     28      -4.6571      2.00000
     29      -4.6340      2.00000
     30      -4.6320      2.00000
     31      -4.6309      2.00000
     32      -4.6309      2.00000
     33      -3.1553      2.00000
     34      -3.1492      2.00000
     35      -3.1492      2.00000
     36      -3.1488      2.00000
     37      -3.1078      2.00000
     38      -3.1032      2.00000
     39      -3.1032      2.00000
     40      -3.1027      2.00000
     41      -2.0907      2.00000
     42      -2.0887      2.00000
     43      -2.0887      2.00000
     44      -2.0860      2.00000
     45      -1.0858      2.00000
     46      -1.0836      2.00000
     47      -1.0835      2.00000
     48      -1.0805      2.00000
     49      -0.7378      2.00000
     50      -0.7361      2.00000
     51      -0.7361      2.00000
     52      -0.7306      2.00000
     53      -0.7162      2.00000
     54      -0.7148      2.00000
     55      -0.7148      2.00000
     56      -0.7046      2.00000
     57       1.1635      2.00000
     58       1.1665      2.00000
     59       1.1666      2.00000
     60       1.1677      2.00000
     61       1.9499      2.00000
     62       1.9534      2.00000
     63       1.9536      2.00000
     64       1.9548      2.00000
     65       6.9379      0.00000
     66       6.9387      0.00000
     67       6.9388      0.00000
     68       6.9429      0.00000
     69       7.2512      0.00000
     70       7.2519      0.00000
     71       7.2521      0.00000
     72       7.2568      0.00000
     73      10.6112      0.00000
     74      10.6157      0.00000
     75      10.6160      0.00000
     76      10.6192      0.00000
     77      11.3793      0.00000
     78      11.3860      0.00000
     79      11.3865      0.00000
     80      11.3908      0.00000
     81      11.6649      0.00000
     82      11.6696      0.00000
     83      11.6702      0.00000
     84      11.6722      0.00000


--------------------------------------------------------------------------------------------------------


 soft charge-density along one line, spin component           1
         0         1         2         3         4         5         6         7         8         9
 total charge-density along one line
 
 pseudopotential strength for first ion, spin component:           1
  9.797   0.006  -0.000  -0.000   0.000   0.000   0.000  -0.000
  0.006  -0.002   0.000   0.000   0.000   0.000   0.000  -0.000
 -0.000   0.000  -3.967   0.000   0.000  -0.015   0.000   0.000
 -0.000   0.000   0.000  -3.961   0.000   0.000  -0.012   0.000
  0.000   0.000   0.000   0.000  -3.967   0.000   0.000  -0.015
  0.000   0.000  -0.015   0.000   0.000  -0.764   0.000   0.000
  0.000   0.000   0.000  -0.012   0.000   0.000  -0.764  -0.000
 -0.000  -0.000   0.000   0.000  -0.015   0.000  -0.000  -0.764
 total augmentation occupancy for first ion, spin component:           1
  1.468  -1.122   0.000   0.001   0.003   0.000  -0.001   0.001
 -1.122   1.059  -0.000   0.007  -0.002  -0.000   0.002  -0.001
  0.000  -0.000   1.222   0.000  -0.002   0.228  -0.000  -0.001
  0.001   0.007   0.000   0.928  -0.000  -0.000   0.105  -0.000
  0.003  -0.002  -0.002  -0.000   1.221  -0.001  -0.000   0.228
  0.000  -0.000   0.228  -0.000  -0.001   0.048  -0.000  -0.000
 -0.001   0.002  -0.000   0.105  -0.000  -0.000   0.013  -0.000
  0.001  -0.001  -0.001  -0.000   0.228  -0.000  -0.000   0.048


------------------------ aborting loop because EDIFF is reached ----------------------------------------


    CHARGE:  cpu time    6.96: real time   17.06
    FORLOC:  cpu time    0.09: real time    0.26
    FORNL :  cpu time   36.94: real time   93.34
    STRESS:  cpu time   66.19: real time  163.70
    FORHAR:  cpu time    0.38: real time    0.90
    MIXING:  cpu time    0.29: real time    0.66
    OFIELD:  cpu time    0.00: real time    0.00

 ---------------------------------------------------------------------------------------------

         DFTD3 V3.0 Rev 1        
 IVDW         = 12
 DF pbe       
 parameters
 VDW_S6       =    1.0000
 VDW_S8       =    0.7875
 VDW_A1       =    0.4289
 VDW_A2       =    4.4407
 k1-k3        =   16.0000    1.3333   -4.0000
 VDW_RADIUS   =   50.2022 A
 VDW_CNRADIUS =   21.1671 A
 Edisp (eV)   -4.73048

 E6    (eV) :    -3.3982
 E8    (eV) :    -1.3322
 % E8        : 28.16
    FORVDW:  cpu time    0.25: real time    0.62

  FORCE on cell =-STRESS in cart. coord.  units (eV):
  Direction    XX          YY          ZZ          XY          YZ          ZX
  --------------------------------------------------------------------------------------
  Alpha Z   281.74243   281.74243   281.74243
  Ewald     851.98758   851.51544 -5154.73822    -1.13429    -0.00058    -0.00683
  Hartree  1454.51660  1454.53431 -1273.92656    -0.08820    -0.00022    -0.00134
  E(xc)    -467.36284  -467.36935  -485.01013    -0.00855    -0.00004     0.00003
  Local   -3918.32721 -3917.98601  4547.19712     0.99212     0.00002     0.00724
  n-local  -111.76659  -111.88084  -102.32909    -0.10348    -0.00069     0.00081
  augment   -12.36237   -12.36141   -11.33393     0.00195     0.00001    -0.00000
  Kinetic  1922.04091  1922.79414  2201.60177     0.78480     0.00943    -0.00981
  Fock        0.00000     0.00000     0.00000     0.00000     0.00000     0.00000
  vdW        -0.80037    -0.79115    -5.69364     0.00833     0.00000    -0.00001
  -------------------------------------------------------------------------------------
  Total      -0.33186     0.19755    -2.49026     0.45268     0.00793    -0.00991
  in kB      -1.79540     1.06880   -13.47271     2.44909     0.04292    -0.05360
  external pressure =       -4.73 kB  Pullay stress =        0.00 kB


 VOLUME and BASIS-vectors are now :
 -----------------------------------------------------------------------------
  energy-cutoff  :      800.00
  volume of cell :      296.14
      direct lattice vectors                 reciprocal lattice vectors
     4.932874498 -0.001919286  0.000000000     0.202767147  0.117172881  0.000000000
    -2.468099399  4.271034986  0.000000000     0.000091118  0.234187941  0.000000000
     0.000000000  0.000000000 14.059311544     0.000000000  0.000000000  0.071127238

  length of vectors
     4.932874871  4.932874871 14.059311544     0.234187958  0.234187958  0.071127238


 FORCES acting on ions
    electron-ion (+dipol)            ewald-force                    non-local-force                 convergence-correction
 -----------------------------------------------------------------------------------------------
   0.614E+00 0.647E-01 -.186E+01   -.727E+00 -.583E-01 0.190E+01   -.940E-01 0.333E-02 -.174E+00   -.356E-04 0.102E-04 -.184E-03
   -.300E+00 0.679E-01 0.392E+00   0.317E+00 -.623E-01 -.374E+00   0.148E-01 0.326E-02 -.217E-01   -.323E-04 0.979E-05 -.164E-03
   -.132E+00 0.165E+00 0.392E+00   0.126E+00 -.173E+00 -.374E+00   0.452E-02 -.278E-02 -.218E-01   -.345E-04 0.857E-05 -.164E-03
   -.132E+00 -.289E-01 0.392E+00   0.126E+00 0.484E-01 -.375E+00   0.460E-02 0.911E-02 -.217E-01   -.347E-04 0.113E-04 -.164E-03
   -.121E+00 0.672E-01 -.923E-01   0.108E+00 -.622E-01 0.926E-01   -.666E-02 0.296E-02 0.269E-02   0.347E-04 0.111E-04 0.195E-03
   -.121E+00 0.672E-01 -.919E-01   0.108E+00 -.622E-01 0.921E-01   -.667E-02 0.296E-02 0.270E-02   0.351E-04 0.110E-04 0.195E-03
   -.121E+00 0.673E-01 -.919E-01   0.108E+00 -.622E-01 0.921E-01   -.666E-02 0.297E-02 0.270E-02   0.350E-04 0.110E-04 0.195E-03
   -.121E+00 0.672E-01 -.919E-01   0.108E+00 -.621E-01 0.921E-01   -.666E-02 0.296E-02 0.270E-02   0.348E-04 0.112E-04 0.195E-03
   0.118E+00 -.733E-01 -.818E-01   -.108E+00 0.653E-01 0.813E-01   0.581E-02 -.400E-02 -.269E-02   -.189E-04 0.640E-05 -.433E-04
   0.118E+00 -.672E-01 -.815E-01   -.108E+00 0.590E-01 0.812E-01   0.571E-02 -.388E-02 -.288E-02   -.185E-04 0.609E-05 -.432E-04
   0.113E+00 -.701E-01 -.816E-01   -.102E+00 0.621E-01 0.812E-01   0.566E-02 -.385E-02 -.278E-02   -.184E-04 0.609E-05 -.433E-04
   0.124E+00 -.701E-01 -.127E+00   -.114E+00 0.621E-01 0.127E+00   0.584E-02 -.391E-02 -.265E-02   -.190E-04 0.634E-05 -.437E-04
   0.118E+00 -.689E-01 -.818E-01   -.108E+00 0.653E-01 0.814E-01   0.549E-02 -.256E-02 -.291E-02   -.221E-04 0.166E-04 0.927E-05
   0.118E+00 -.627E-01 -.819E-01   -.108E+00 0.589E-01 0.814E-01   0.558E-02 -.244E-02 -.271E-02   -.221E-04 0.165E-04 0.925E-05
   0.112E+00 -.658E-01 -.819E-01   -.102E+00 0.622E-01 0.814E-01   0.543E-02 -.258E-02 -.281E-02   -.220E-04 0.165E-04 0.923E-05
   0.124E+00 -.659E-01 -.127E+00   -.114E+00 0.622E-01 0.126E+00   0.561E-02 -.252E-02 -.253E-02   -.222E-04 0.164E-04 0.898E-05
   0.322E-01 -.672E-01 0.330E+00   -.338E-01 0.623E-01 -.327E+00   0.265E-02 -.279E-02 0.985E-02   0.361E-04 -.103E-04 -.166E-03
   0.332E+00 -.589E-01 0.855E+00   -.331E+00 0.531E-01 -.887E+00   0.265E-01 -.256E-02 0.798E-01   0.347E-04 -.106E-04 -.164E-03
   -.215E+00 -.382E+00 0.851E+00   0.268E+00 0.406E+00 -.882E+00   0.188E-01 -.713E-02 0.795E-01   0.347E-04 -.108E-04 -.164E-03
   -.205E+00 0.243E+00 0.858E+00   0.256E+00 -.278E+00 -.891E+00   0.198E-01 0.111E-02 0.801E-01   0.347E-04 -.107E-04 -.164E-03
   0.120E+00 -.665E-01 -.919E-01   -.107E+00 0.620E-01 0.921E-01   0.610E-02 -.269E-02 -.761E-03   -.346E-04 -.110E-04 0.195E-03
   0.120E+00 -.665E-01 -.922E-01   -.107E+00 0.620E-01 0.923E-01   0.610E-02 -.269E-02 -.758E-03   -.349E-04 -.107E-04 0.195E-03
   0.120E+00 -.665E-01 -.922E-01   -.107E+00 0.620E-01 0.923E-01   0.610E-02 -.269E-02 -.760E-03   -.350E-04 -.107E-04 0.195E-03
   0.120E+00 -.665E-01 -.922E-01   -.107E+00 0.620E-01 0.923E-01   0.610E-02 -.269E-02 -.753E-03   -.345E-04 -.109E-04 0.195E-03
   -.101E+00 0.618E-01 -.918E-01   0.912E-01 -.543E-01 0.914E-01   -.537E-02 0.366E-02 0.111E-02   0.184E-04 -.631E-05 -.431E-04
   -.134E+00 0.585E-01 -.103E+00   0.124E+00 -.508E-01 0.103E+00   -.535E-02 0.357E-02 0.834E-03   0.184E-04 -.611E-05 -.430E-04
   -.115E+00 0.881E-01 -.972E-01   0.105E+00 -.809E-01 0.970E-01   -.528E-02 0.360E-02 0.986E-03   0.183E-04 -.617E-05 -.431E-04
   -.120E+00 0.694E-01 -.773E-01   0.110E+00 -.619E-01 0.770E-01   -.545E-02 0.361E-02 0.656E-03   0.185E-04 -.612E-05 -.429E-04
   -.132E+00 0.759E-01 -.103E+00   0.124E+00 -.731E-01 0.103E+00   -.474E-02 0.219E-02 0.852E-03   0.203E-04 -.154E-04 0.958E-05
   -.100E+00 0.724E-01 -.917E-01   0.914E-01 -.695E-01 0.913E-01   -.478E-02 0.211E-02 0.112E-02   0.209E-04 -.154E-04 0.949E-05
   -.113E+00 0.465E-01 -.972E-01   0.104E+00 -.434E-01 0.969E-01   -.469E-02 0.219E-02 0.978E-03   0.205E-04 -.159E-04 0.958E-05
   -.118E+00 0.650E-01 -.776E-01   0.110E+00 -.620E-01 0.772E-01   -.486E-02 0.216E-02 0.680E-03   0.206E-04 -.156E-04 0.958E-05
 -----------------------------------------------------------------------------------------------
   0.906E-04 -.112E-04 -.323E-02   0.115E-13 0.175E-13 0.171E-12   -.690E-04 0.968E-05 0.330E-02   -.372E-05 0.266E-05 -.467E-04
 
 
 POSITION                                       TOTAL-FORCE (eV/Angst)
 -----------------------------------------------------------------------------------
      2.46733      0.00044      1.76685        -0.208149      0.009763     -0.132892
      4.93046     -0.00052      1.75741         0.033165      0.008905     -0.004120
      1.22997      2.13595      1.75741        -0.001801     -0.011322     -0.004047
      3.69641      2.13499      1.75741        -0.001906      0.029214     -0.004280
      2.46402      0.00044      8.78707        -0.020238      0.008059      0.003154
      4.93046     -0.00052      8.78707        -0.020217      0.008060      0.003167
      1.22997      2.13595      8.78707        -0.020225      0.008054      0.003167
      3.69641      2.13499      8.78707        -0.020224      0.008063      0.003167
     -1.23163      2.13412      5.27224         0.016718     -0.011967     -0.003207
      1.23481      2.13316      5.27224         0.016594     -0.012043     -0.003247
     -2.46568      4.26964      5.27224         0.016721     -0.011897     -0.003225
      0.00076      4.26868      5.27224         0.016593     -0.011983     -0.002965
     -1.23163      2.13412     12.30190         0.015498     -0.006143     -0.003284
      1.23481      2.13316     12.30190         0.015599     -0.006209     -0.003247
     -2.46568      4.26964     12.30190         0.015602     -0.006268     -0.003266
      0.00076      4.26868     12.30190         0.015476     -0.006210     -0.002866
     -0.00332      1.42496      1.75741         0.001260     -0.007785      0.011894
      2.46311      1.42400      1.75741         0.027463     -0.008470      0.047697
     -1.23737      3.56047      1.75741         0.071302      0.017429      0.048065
      1.22906      3.55952      1.75741         0.071341     -0.033135      0.047253
     -0.00332      1.42496      8.78707         0.018574     -0.007259     -0.000441
      2.46311      1.42400      8.78707         0.018574     -0.007259     -0.000433
     -1.23737      3.56047      8.78707         0.018576     -0.007257     -0.000435
      1.22906      3.55952      8.78707         0.018575     -0.007260     -0.000428
      1.23571      0.70960      5.27224        -0.015656      0.011162      0.000711
      3.70215      0.70864      5.27224        -0.015288      0.011230      0.000723
      0.00166      2.84512      5.27224        -0.015531      0.010890      0.000729
      2.46810      2.84416      5.27224        -0.015404      0.011091      0.000253
      1.23571      0.70960     12.30190        -0.013113      0.005024      0.000727
      3.70215      0.70864     12.30190        -0.013375      0.005097      0.000705
      0.00166      2.84512     12.30190        -0.013311      0.005289      0.000708
      2.46810      2.84416     12.30190        -0.013191      0.005139      0.000264
 -----------------------------------------------------------------------------------
    total drift:                                0.000018      0.000001      0.000021


--------------------------------------------------------------------------------------------------------



  FREE ENERGIE OF THE ION-ELECTRON SYSTEM (eV)
  ---------------------------------------------------
  free  energy   TOTEN  =      -299.78975017 eV

  energy  without entropy=     -299.78975017  energy(sigma->0) =     -299.78975017
 


--------------------------------------------------------------------------------------------------------


    POTLOK:  cpu time    1.46: real time    3.69


--------------------------------------------------------------------------------------------------------


     LOOP+:  cpu time15139.72: real time37904.19
    4ORBIT:  cpu time    0.00: real time    0.00
 BZINTS: Fermi energy:  4.276494;128.000000 electrons
         Band energy:-619.027154;  BLOECHL correction:  0.000000

 total amount of memory used by VASP on root node   426170. kBytes
========================================================================

   base      :      30000. kBytes
   nonl-proj :      82123. kBytes
   fftplans  :      15818. kBytes
   grid      :      33681. kBytes
   one-center:         98. kBytes
   wavefun   :     264450. kBytes
 
  
  
 General timing and accounting informations for this job:
 ========================================================
  
                  Total CPU time used (sec):    15297.147
                            User time (sec):     7246.193
                          System time (sec):     8050.954
                         Elapsed time (sec):    38294.172
  
                   Maximum memory used (kb):      518600.
                   Average memory used (kb):           0.
  
                          Minor page faults:     55267643
                          Major page faults:            0
                 Voluntary context switches:         1137
