  32  32   0   0
  0.8468675E+01  0.4932875E-09  0.4932875E-09  0.1286560E-08  0.5000000E-15
  1.000000000000000E-004
  CAR 
 graphite                                
     16.54459021    -16.62673385  301      5.04087868      1.00000000
    -16.627  0.0000E+00  0.0000E+00
    -16.516  0.0000E+00  0.0000E+00
    -16.406  0.0000E+00  0.0000E+00
    -16.295  0.0000E+00  0.0000E+00
    -16.184  0.0000E+00  0.0000E+00
    -16.074  0.0000E+00  0.0000E+00
    -15.963  0.0000E+00  0.0000E+00
    -15.853  0.0000E+00  0.0000E+00
    -15.742  0.0000E+00  0.0000E+00
    -15.632  0.0000E+00  0.0000E+00
    -15.521  0.0000E+00  0.0000E+00
    -15.410  0.0000E+00  0.0000E+00
    -15.300  0.0000E+00  0.0000E+00
    -15.189  0.0000E+00  0.0000E+00
    -15.079  0.0000E+00  0.0000E+00
    -14.968  0.0000E+00  0.0000E+00
    -14.858  0.0000E+00  0.0000E+00
    -14.747  0.0000E+00  0.0000E+00
    -14.636  0.0000E+00  0.0000E+00
    -14.526  0.1060E+01  0.4148E-01
    -14.415  0.2234E+01  0.2486E+00
    -14.305  0.3008E+01  0.5350E+00
    -14.194  0.4313E+01  0.9300E+00
    -14.084  0.5264E+01  0.1477E+01
    -13.973  0.4860E+01  0.2021E+01
    -13.862  0.4933E+01  0.2562E+01
    -13.752  0.4989E+01  0.3111E+01
    -13.641  0.4937E+01  0.3659E+01
    -13.531  0.5129E+01  0.4212E+01
    -13.420  0.6536E+01  0.4834E+01
    -13.310  0.7148E+01  0.5597E+01
    -13.199  0.6653E+01  0.6365E+01
    -13.088  0.7170E+01  0.7099E+01
    -12.978  0.2431E+01  0.7552E+01
    -12.867  0.1846E+01  0.7782E+01
    -12.757  0.1919E+01  0.7983E+01
    -12.646  0.2393E+01  0.8221E+01
    -12.536  0.5095E+01  0.8570E+01
    -12.425  0.6415E+01  0.9471E+01
    -12.314  0.7184E+01  0.1021E+02
    -12.204  0.6771E+01  0.1101E+02
    -12.093  0.4083E+01  0.1158E+02
    -11.983  0.4215E+01  0.1204E+02
    -11.872  0.4393E+01  0.1251E+02
    -11.762  0.4579E+01  0.1301E+02
    -11.651  0.4749E+01  0.1352E+02
    -11.540  0.4887E+01  0.1406E+02
    -11.430  0.5192E+01  0.1462E+02
    -11.319  0.5421E+01  0.1521E+02
    -11.209  0.5925E+01  0.1583E+02
    -11.098  0.5955E+01  0.1650E+02
    -10.988  0.5698E+01  0.1715E+02
    -10.877  0.5633E+01  0.1777E+02
    -10.766  0.5808E+01  0.1840E+02
    -10.656  0.5983E+01  0.1905E+02
    -10.545  0.5850E+01  0.1971E+02
    -10.435  0.5768E+01  0.2036E+02
    -10.324  0.5716E+01  0.2099E+02
    -10.214  0.5237E+01  0.2160E+02
    -10.103  0.3975E+01  0.2211E+02
     -9.992  0.3833E+01  0.2253E+02
     -9.882  0.4653E+01  0.2300E+02
     -9.771  0.4955E+01  0.2354E+02
     -9.661  0.6070E+01  0.2413E+02
     -9.550  0.7493E+01  0.2487E+02
     -9.440  0.1089E+02  0.2584E+02
     -9.329  0.9066E+01  0.2698E+02
     -9.218  0.6673E+01  0.2785E+02
     -9.108  0.4947E+01  0.2848E+02
     -8.997  0.4420E+01  0.2899E+02
     -8.887  0.3893E+01  0.2945E+02
     -8.776  0.5149E+01  0.3008E+02
     -8.666  0.4854E+01  0.3060E+02
     -8.555  0.1976E+01  0.3099E+02
     -8.444  0.1761E+01  0.3120E+02
     -8.334  0.1546E+01  0.3138E+02
     -8.223  0.1331E+01  0.3154E+02
     -8.113  0.1379E+01  0.3168E+02
     -8.002  0.1856E+01  0.3186E+02
     -7.892  0.2361E+01  0.3210E+02
     -7.781  0.2866E+01  0.3238E+02
     -7.670  0.6402E+01  0.3285E+02
     -7.560  0.8612E+01  0.3386E+02
     -7.449  0.5048E+01  0.3457E+02
     -7.339  0.5292E+01  0.3514E+02
     -7.228  0.6525E+01  0.3579E+02
     -7.118  0.7757E+01  0.3658E+02
     -7.007  0.8990E+01  0.3751E+02
     -6.896  0.8442E+01  0.3852E+02
     -6.786  0.6744E+01  0.3937E+02
     -6.675  0.5593E+01  0.4001E+02
     -6.565  0.5534E+01  0.4062E+02
     -6.454  0.5481E+01  0.4123E+02
     -6.344  0.5311E+01  0.4183E+02
     -6.233  0.5121E+01  0.4241E+02
     -6.122  0.4992E+01  0.4296E+02
     -6.012  0.4873E+01  0.4351E+02
     -5.901  0.4755E+01  0.4404E+02
     -5.791  0.4636E+01  0.4456E+02
     -5.680  0.4517E+01  0.4507E+02
     -5.570  0.4396E+01  0.4556E+02
     -5.459  0.4341E+01  0.4604E+02
     -5.348  0.5003E+01  0.4656E+02
     -5.238  0.5618E+01  0.4714E+02
     -5.127  0.6232E+01  0.4780E+02
     -5.017  0.6847E+01  0.4852E+02
     -4.906  0.7462E+01  0.4931E+02
     -4.796  0.8077E+01  0.5017E+02
     -4.685  0.8692E+01  0.5110E+02
     -4.574  0.6715E+01  0.5201E+02
     -4.464  0.4317E+01  0.5261E+02
     -4.353  0.6501E+01  0.5323E+02
     -4.243  0.6305E+01  0.5398E+02
     -4.132  0.4753E+01  0.5459E+02
     -4.022  0.3201E+01  0.5503E+02
     -3.911  0.1648E+01  0.5530E+02
     -3.800  0.1386E+01  0.5544E+02
     -3.690  0.3015E+01  0.5568E+02
     -3.579  0.4733E+01  0.5611E+02
     -3.469  0.7660E+01  0.5675E+02
     -3.358  0.1117E+02  0.5781E+02
     -3.248  0.1292E+02  0.5920E+02
     -3.137  0.1248E+02  0.6063E+02
     -3.026  0.7604E+01  0.6179E+02
     -2.916  0.5099E+01  0.6241E+02
     -2.805  0.5841E+01  0.6300E+02
     -2.695  0.6867E+01  0.6370E+02
     -2.584  0.1023E+02  0.6459E+02
     -2.474  0.1626E+02  0.6605E+02
     -2.363  0.1429E+02  0.6825E+02
     -2.252  0.7769E+01  0.6952E+02
     -2.142  0.7354E+01  0.7036E+02
     -2.031  0.7397E+01  0.7117E+02
     -1.921  0.7811E+01  0.7201E+02
     -1.810  0.9552E+01  0.7294E+02
     -1.700  0.1521E+02  0.7442E+02
     -1.589  0.1191E+02  0.7591E+02
     -1.478  0.8867E+01  0.7704E+02
     -1.368  0.2422E+02  0.7855E+02
     -1.257  0.1662E+02  0.8140E+02
     -1.147  0.1835E+02  0.8364E+02
     -1.036  0.1515E+02  0.8543E+02
     -0.926  0.1524E+02  0.8712E+02
     -0.815  0.1302E+02  0.8875E+02
     -0.704  0.8714E+01  0.8989E+02
     -0.594  0.6906E+01  0.9073E+02
     -0.483  0.7346E+01  0.9150E+02
     -0.373  0.8241E+01  0.9236E+02
     -0.262  0.9532E+01  0.9334E+02
     -0.152  0.1077E+02  0.9447E+02
     -0.041  0.1214E+02  0.9571E+02
      0.069  0.2039E+02  0.9737E+02
      0.180  0.1201E+02  0.9896E+02
      0.291  0.1276E+02  0.1003E+03
      0.401  0.1001E+02  0.1016E+03
      0.512  0.8947E+01  0.1026E+03
      0.622  0.9251E+01  0.1036E+03
      0.733  0.8827E+01  0.1046E+03
      0.843  0.8764E+01  0.1056E+03
      0.954  0.1070E+02  0.1066E+03
      1.065  0.9771E+01  0.1078E+03
      1.175  0.9716E+01  0.1089E+03
      1.286  0.9658E+01  0.1099E+03
      1.396  0.9727E+01  0.1110E+03
      1.507  0.1026E+02  0.1121E+03
      1.617  0.9253E+01  0.1132E+03
      1.728  0.9516E+01  0.1142E+03
      1.839  0.1008E+02  0.1153E+03
      1.949  0.8966E+01  0.1164E+03
      2.060  0.8001E+01  0.1173E+03
      2.170  0.6460E+01  0.1181E+03
      2.281  0.4925E+01  0.1187E+03
      2.391  0.3701E+01  0.1192E+03
      2.502  0.2950E+01  0.1196E+03
      2.613  0.3449E+01  0.1199E+03
      2.723  0.4122E+01  0.1204E+03
      2.834  0.6387E+01  0.1209E+03
      2.944  0.8522E+01  0.1218E+03
      3.055  0.7854E+01  0.1227E+03
      3.165  0.6842E+01  0.1235E+03
      3.276  0.7129E+01  0.1243E+03
      3.387  0.5333E+01  0.1250E+03
      3.497  0.4184E+01  0.1255E+03
      3.608  0.3457E+01  0.1259E+03
      3.718  0.3041E+01  0.1263E+03
      3.829  0.2614E+01  0.1266E+03
      3.939  0.2235E+01  0.1269E+03
      4.050  0.1934E+01  0.1271E+03
      4.161  0.1659E+01  0.1273E+03
      4.271  0.1428E+01  0.1275E+03
      4.382  0.1192E+01  0.1276E+03
      4.492  0.9654E+00  0.1277E+03
      4.603  0.7499E+00  0.1278E+03
      4.713  0.5442E+00  0.1279E+03
      4.824  0.3474E+00  0.1280E+03
      4.935  0.1587E+00  0.1280E+03
      5.045  0.2357E-04  0.1280E+03
      5.156  0.1108E+00  0.1280E+03
      5.266  0.2429E+00  0.1280E+03
      5.377  0.3840E+00  0.1281E+03
      5.487  0.5358E+00  0.1281E+03
      5.598  0.7002E+00  0.1282E+03
      5.709  0.8773E+00  0.1283E+03
      5.819  0.1075E+01  0.1284E+03
      5.930  0.1300E+01  0.1285E+03
      6.040  0.1577E+01  0.1287E+03
      6.151  0.2372E+01  0.1289E+03
      6.261  0.2933E+01  0.1292E+03
      6.372  0.3440E+01  0.1295E+03
      6.483  0.3923E+01  0.1299E+03
      6.593  0.6502E+01  0.1305E+03
      6.704  0.1435E+02  0.1316E+03
      6.814  0.1013E+02  0.1330E+03
      6.925  0.8115E+01  0.1339E+03
      7.035  0.6354E+01  0.1347E+03
      7.146  0.5478E+01  0.1354E+03
      7.257  0.4940E+01  0.1359E+03
      7.367  0.4663E+01  0.1365E+03
      7.478  0.4172E+01  0.1370E+03
      7.588  0.3638E+01  0.1374E+03
      7.699  0.3568E+01  0.1378E+03
      7.809  0.3802E+01  0.1382E+03
      7.920  0.4231E+01  0.1386E+03
      8.031  0.4580E+01  0.1391E+03
      8.141  0.4844E+01  0.1397E+03
      8.252  0.4874E+01  0.1402E+03
      8.362  0.4634E+01  0.1407E+03
      8.473  0.4476E+01  0.1412E+03
      8.583  0.4390E+01  0.1417E+03
      8.694  0.4274E+01  0.1422E+03
      8.805  0.4182E+01  0.1427E+03
      8.915  0.4096E+01  0.1431E+03
      9.026  0.4016E+01  0.1436E+03
      9.136  0.3718E+01  0.1440E+03
      9.247  0.3470E+01  0.1444E+03
      9.357  0.3339E+01  0.1448E+03
      9.468  0.3285E+01  0.1451E+03
      9.579  0.3194E+01  0.1455E+03
      9.689  0.3118E+01  0.1458E+03
      9.800  0.3086E+01  0.1462E+03
      9.910  0.3242E+01  0.1465E+03
     10.021  0.3436E+01  0.1469E+03
     10.131  0.3451E+01  0.1473E+03
     10.242  0.3451E+01  0.1477E+03
     10.353  0.3500E+01  0.1481E+03
     10.463  0.3523E+01  0.1484E+03
     10.574  0.3585E+01  0.1488E+03
     10.684  0.4458E+01  0.1493E+03
     10.795  0.4728E+01  0.1498E+03
     10.905  0.4827E+01  0.1503E+03
     11.016  0.4754E+01  0.1509E+03
     11.127  0.4531E+01  0.1514E+03
     11.237  0.4939E+01  0.1519E+03
     11.348  0.6019E+01  0.1525E+03
     11.458  0.6156E+01  0.1532E+03
     11.569  0.3088E+01  0.1536E+03
     11.679  0.2622E+01  0.1539E+03
     11.790  0.2558E+01  0.1542E+03
     11.901  0.2282E+01  0.1545E+03
     12.011  0.2404E+01  0.1547E+03
     12.122  0.2626E+01  0.1550E+03
     12.232  0.3987E+01  0.1554E+03
     12.343  0.6000E+01  0.1560E+03
     12.453  0.5623E+01  0.1566E+03
     12.564  0.7390E+01  0.1573E+03
     12.675  0.9734E+01  0.1582E+03
     12.785  0.1290E+02  0.1595E+03
     12.896  0.1521E+02  0.1611E+03
     13.006  0.1543E+02  0.1628E+03
     13.117  0.1170E+02  0.1643E+03
     13.227  0.9098E+01  0.1654E+03
     13.338  0.1039E+02  0.1664E+03
     13.449  0.6306E+01  0.1675E+03
     13.559  0.1421E+01  0.1678E+03
     13.670  0.2808E+00  0.1679E+03
     13.780  0.2143E+00  0.1679E+03
     13.891  0.1568E+00  0.1680E+03
     14.001  0.1082E+00  0.1680E+03
     14.112  0.6865E-01  0.1680E+03
     14.223  0.3804E-01  0.1680E+03
     14.333  0.1640E-01  0.1680E+03
     14.444  0.3732E-02  0.1680E+03
     14.554  0.0000E+00  0.1680E+03
     14.665  0.0000E+00  0.1680E+03
     14.775  0.0000E+00  0.1680E+03
     14.886  0.0000E+00  0.1680E+03
     14.997  0.0000E+00  0.1680E+03
     15.107  0.0000E+00  0.1680E+03
     15.218  0.0000E+00  0.1680E+03
     15.328  0.0000E+00  0.1680E+03
     15.439  0.0000E+00  0.1680E+03
     15.549  0.0000E+00  0.1680E+03
     15.660  0.0000E+00  0.1680E+03
     15.771  0.0000E+00  0.1680E+03
     15.881  0.0000E+00  0.1680E+03
     15.992  0.0000E+00  0.1680E+03
     16.102  0.0000E+00  0.1680E+03
     16.213  0.0000E+00  0.1680E+03
     16.323  0.0000E+00  0.1680E+03
     16.434  0.0000E+00  0.1680E+03
     16.545  0.0000E+00  0.1680E+03
