   32   32    1    1
  0.8468675E+01  0.4932875E-09  0.4932875E-09  0.1286560E-08  0.5000000E-15
  1.000000000000000E-004
  CAR 
 graphite                                
    128     76     84
 
  0.0000000E+00  0.0000000E+00  0.0000000E+00  0.6944444E-02
    1      -14.626734
    2      -14.429765
    3      -14.429188
    4      -14.214006
    5       -9.275634
    6       -9.267647
    7       -9.265154
    8       -9.188555
    9       -9.188138
   10       -9.180470
   11       -9.176828
   12       -9.176757
   13       -9.174576
   14       -9.121621
   15       -9.110508
   16       -9.107084
   17       -8.180788
   18       -8.177544
   19       -8.175367
   20       -8.143415
   21       -8.139708
   22       -8.137690
   23       -8.137140
   24       -8.137047
   25       -8.133257
   26       -8.065345
   27       -8.060255
   28       -8.058263
   29       -3.637615
   30       -2.556579
   31       -2.554664
   32       -1.356973
   33       -1.354236
   34       -1.334898
   35       -1.317695
   36       -1.313585
   37       -1.313576
   38       -1.312698
   39       -1.294898
   40       -1.292415
   41       -1.273915
   42       -1.271477
   43       -1.252045
   44       -1.216621
   45        2.043650
   46        2.057954
   47        2.063783
   48        2.067759
   49        2.076156
   50        2.079874
   51        2.084953
   52        2.098872
   53        2.169405
   54        2.171095
   55        2.172342
   56        2.694817
   57        2.697327
   58        2.699023
   59        2.703058
   60        2.703515
   61        2.705383
   62        3.007579
   63        3.023918
   64        3.026790
   65        6.598772
   66        6.602053
   67        6.604661
   68        6.695601
   69        6.701217
   70        6.705717
   71        6.706677
   72        6.707062
   73        6.712607
   74        7.360136
   75        7.373949
   76        7.376342
   77        9.750434
   78       12.186644
   79       12.190624
   80       12.223896
   81       12.446754
   82       12.449350
   83       12.451453
   84       12.480550
 
  0.1666667E+00  0.0000000E+00  0.0000000E+00  0.1388889E-01
    1      -14.460583
    2      -14.265404
    3      -14.264834
    4      -14.051785
    5      -10.593821
    6      -10.441895
    7      -10.441383
    8      -10.279569
    9       -9.716751
   10       -9.709910
   11       -9.582217
   12       -9.581639
   13       -9.574665
   14       -9.574129
   15       -9.441353
   16       -9.433607
   17       -7.586549
   18       -7.578614
   19       -7.480439
   20       -7.477736
   21       -7.470902
   22       -7.470617
   23       -7.361013
   24       -7.352653
   25       -6.740340
   26       -6.629637
   27       -6.627960
   28       -6.510654
   29       -3.435875
   30       -2.361189
   31       -2.359276
   32       -1.849804
   33       -1.830679
   34       -1.800002
   35       -1.799623
   36       -1.781780
   37       -1.779329
   38       -1.748572
   39       -1.729358
   40       -1.193373
   41       -1.154158
   42       -1.151234
   43       -1.111660
   44       -1.030484
   45        1.045822
   46        1.400421
   47        1.423864
   48        1.428303
   49        1.452037
   50        1.703919
   51        1.723851
   52        1.729036
   53        1.748544
   54        1.853898
   55        1.856472
   56        1.928445
   57        1.930643
   58        2.587308
   59        2.589266
   60        2.593290
   61        2.595977
   62        2.723718
   63        3.153005
   64        3.166016
   65        6.726753
   66        6.729157
   67        6.977028
   68        6.982487
   69        6.987251
   70        6.989202
   71        7.347735
   72        7.639668
   73        7.649292
   74        7.808025
   75        7.811640
   76        8.558141
   77        9.945946
   78       12.281879
   79       12.532704
   80       12.534461
   81       12.789741
   82       12.873967
   83       12.879055
   84       12.923660
 
  0.3333333E+00  0.0000000E+00  0.0000000E+00  0.1388889E-01
    1      -13.963950
    2      -13.774083
    3      -13.773531
    4      -13.566877
    5      -12.009283
    6      -11.840390
    7      -11.839908
    8      -11.658201
    9      -10.143038
   10      -10.139417
   11       -9.997178
   12       -9.996044
   13       -9.992867
   14       -9.992168
   15       -9.840728
   16       -9.836877
   17       -6.411399
   18       -6.400647
   19       -6.311147
   20       -6.308424
   21       -6.299277
   22       -6.298745
   23       -6.202911
   24       -6.192436
   25       -4.618409
   26       -4.526017
   27       -4.524141
   28       -4.427782
   29       -3.011247
   30       -2.995264
   31       -2.947486
   32       -2.947236
   33       -2.932437
   34       -2.929888
   35       -2.880117
   36       -2.863893
   37       -2.834842
   38       -1.780423
   39       -1.778530
   40       -0.719038
   41       -0.681526
   42       -0.678278
   43       -0.640456
   44       -0.517894
   45       -0.479036
   46       -0.262052
   47       -0.216731
   48       -0.213133
   49       -0.167364
   50        0.432728
   51        0.434783
   52        0.902653
   53        0.931137
   54        0.935604
   55        0.964251
   56        1.569234
   57        1.605721
   58        1.608161
   59        2.398275
   60        2.399451
   61        2.401959
   62        2.405021
   63        3.257181
   64        3.263557
   65        7.163224
   66        7.168052
   67        7.554714
   68        7.559861
   69        7.563231
   70        7.565027
   71        8.086785
   72        8.090942
   73        9.462602
   74        9.947212
   75        9.950067
   76       10.533749
   77       10.590565
   78       12.503504
   79       12.770998
   80       12.773201
   81       12.786897
   82       13.154902
   83       13.157551
   84       13.217965
 
  0.5000000E+00  0.5551115E-16  0.0000000E+00  0.6944444E-02
    1      -13.144236
    2      -13.141331
    3      -12.964440
    4      -12.961314
    5      -12.961276
    6      -12.958546
    7      -12.766426
    8      -12.763439
    9      -10.292472
   10      -10.290701
   11      -10.144363
   12      -10.142277
   13      -10.142210
   14      -10.140681
   15       -9.984465
   16       -9.982614
   17       -5.486814
   18       -5.484440
   19       -5.431877
   20       -5.427599
   21       -5.426889
   22       -5.426872
   23       -5.376429
   24       -5.374491
   25       -3.883306
   26       -3.882126
   27       -3.849797
   28       -3.849775
   29       -3.848596
   30       -3.845685
   31       -3.802453
   32       -3.800759
   33       -2.389920
   34       -2.387036
   35       -2.319966
   36       -2.319280
   37       -2.319244
   38       -2.313571
   39       -2.246703
   40       -2.243159
   41       -1.850741
   42       -1.848403
   43       -0.834552
   44       -0.830928
   45       -0.830789
   46       -0.828338
   47        0.013615
   48        0.020113
   49        0.046958
   50        0.055276
   51        0.055296
   52        0.056564
   53        0.088078
   54        0.092137
   55        0.410516
   56        0.413268
   57        1.480327
   58        1.482223
   59        2.313829
   60        2.315321
   61        2.315817
   62        2.319699
   63        3.268581
   64        3.271208
   65        7.474924
   66        7.477570
   67        7.860729
   68        7.866149
   69        7.866807
   70        7.868019
   71        8.253430
   72        8.256453
   73       11.503614
   74       11.504924
   75       11.911909
   76       11.915492
   77       12.227099
   78       12.229683
   79       12.231138
   80       12.236027
   81       12.726160
   82       12.729310
   83       12.954155
   84       12.957335
 
  0.1355253E-19  0.1666667E+00  0.0000000E+00  0.1388889E-01
    1      -14.460586
    2      -14.265409
    3      -14.264836
    4      -14.051789
    5      -10.593832
    6      -10.441899
    7      -10.441383
    8      -10.279562
    9       -9.716860
   10       -9.709954
   11       -9.582510
   12       -9.581647
   13       -9.574659
   14       -9.574159
   15       -9.441377
   16       -9.433781
   17       -7.586710
   18       -7.577389
   19       -7.480876
   20       -7.477737
   21       -7.470736
   22       -7.468125
   23       -7.361140
   24       -7.351356
   25       -6.741252
   26       -6.629910
   27       -6.629536
   28       -6.511594
   29       -3.435865
   30       -2.361174
   31       -2.359264
   32       -1.851112
   33       -1.830710
   34       -1.802424
   35       -1.799637
   36       -1.781780
   37       -1.779533
   38       -1.749798
   39       -1.729481
   40       -1.191895
   41       -1.151455
   42       -1.151214
   43       -1.110390
   44       -1.030466
   45        1.046391
   46        1.398228
   47        1.423064
   48        1.423866
   49        1.448659
   50        1.707642
   51        1.729017
   52        1.729140
   53        1.750673
   54        1.854965
   55        1.856925
   56        1.927899
   57        1.930241
   58        2.586920
   59        2.589039
   60        2.592589
   61        2.594811
   62        2.724836
   63        3.153037
   64        3.164470
   65        6.727789
   66        6.730322
   67        6.977470
   68        6.982451
   69        6.987941
   70        6.992413
   71        7.345817
   72        7.639863
   73        7.651258
   74        7.807152
   75        7.809362
   76        8.556673
   77        9.945960
   78       12.282427
   79       12.533687
   80       12.534553
   81       12.790259
   82       12.874178
   83       12.880095
   84       12.922131
 
  0.1666667E+00  0.1666667E+00  0.0000000E+00  0.1388889E-01
    1      -14.128965
    2      -13.937315
    3      -13.936758
    4      -13.727997
    5      -11.218373
    6      -11.215307
    7      -11.059861
    8      -11.056524
    9      -11.056494
   10      -11.053651
   11      -10.886634
   12      -10.883487
   13       -8.848850
   14       -8.765571
   15       -8.764234
   16       -8.700676
   17       -7.775258
   18       -7.743359
   19       -7.739846
   20       -7.673984
   21       -5.628572
   22       -5.625072
   23       -5.529032
   24       -5.526010
   25       -5.525980
   26       -5.521859
   27       -5.421694
   28       -5.417991
   29       -3.183118
   30       -3.116871
   31       -3.114875
   32       -3.045651
   33       -3.034163
   34       -1.972734
   35       -1.970830
   36       -1.522283
   37       -1.519124
   38       -1.476150
   39       -1.471844
   40       -1.471836
   41       -1.470198
   42       -1.424637
   43       -1.421787
   44       -0.661320
   45        0.365531
   46        0.387942
   47        0.388987
   48        0.390639
   49        0.397219
   50        0.415482
   51        1.029559
   52        1.045150
   53        1.050031
   54        1.067308
   55        1.279742
   56        1.283091
   57        1.283220
   58        1.285852
   59        2.314068
   60        2.316736
   61        2.768967
   62        3.291766
   63        3.295015
   64        3.586396
   65        6.484589
   66        6.489718
   67        6.554333
   68        6.855799
   69        8.271728
   70        8.274482
   71        8.758211
   72        8.760498
   73        8.760972
   74        8.764668
   75        9.404431
   76        9.406923
   77       10.340074
   78       13.093780
   79       13.098060
   80       13.169817
   81       13.173183
   82       13.345654
   83       13.350019
   84       13.353413
 
  0.3333333E+00  0.1666667E+00  0.0000000E+00  0.1388889E-01
    1      -13.469820
    2      -13.285211
    3      -13.284678
    4      -13.084343
    5      -12.493798
    6      -12.319662
    7      -12.319155
    8      -12.131289
    9      -11.534989
   10      -11.371435
   11      -11.370884
   12      -11.195367
   13       -8.844623
   14       -8.720623
   15       -8.720169
   16       -8.591850
   17       -6.937731
   18       -6.855263
   19       -6.852293
   20       -6.765301
   21       -4.615855
   22       -4.553074
   23       -4.550934
   24       -4.479421
   25       -4.460667
   26       -4.387641
   27       -4.385820
   28       -4.311971
   29       -3.476821
   30       -3.399886
   31       -3.398056
   32       -3.318598
   33       -2.419282
   34       -2.370455
   35       -2.368902
   36       -2.315247
   37       -2.239991
   38       -1.373967
   39       -1.329798
   40       -1.326046
   41       -1.274183
   42       -1.203236
   43       -1.200808
   44       -1.078403
   45       -0.881615
   46       -0.839895
   47       -0.836966
   48       -0.793981
   49       -0.095302
   50       -0.093324
   51        0.017837
   52        0.045583
   53        0.052411
   54        0.052907
   55        0.062079
   56        0.084690
   57        0.975786
   58        0.977700
   59        1.096201
   60        2.077930
   61        3.042253
   62        3.698996
   63        3.701857
   64        4.278213
   65        6.082771
   66        6.344785
   67        6.348957
   68        6.773885
   69        9.086765
   70        9.473396
   71        9.476246
   72        9.886467
   73       10.572808
   74       10.967743
   75       10.970223
   76       11.128801
   77       11.454932
   78       12.287441
   79       12.859412
   80       13.065884
   81       13.071972
   82       13.441420
   83       13.460566
   84       13.611325
 
  0.5000000E+00  0.1666667E+00  0.0000000E+00  0.1388889E-01
    1      -13.471048
    2      -13.286450
    3      -13.285899
    4      -13.085569
    5      -12.492068
    6      -12.317923
    7      -12.317438
    8      -12.129563
    9      -11.536229
   10      -11.372689
   11      -11.372120
   12      -11.196620
   13       -8.842221
   14       -8.717858
   15       -8.717487
   16       -8.588678
   17       -6.931408
   18       -6.847987
   19       -6.846805
   20       -6.759069
   21       -4.625259
   22       -4.562244
   23       -4.561651
   24       -4.489817
   25       -4.471504
   26       -4.398644
   27       -4.395490
   28       -4.321687
   29       -3.479819
   30       -3.403257
   31       -3.400701
   32       -3.321578
   33       -2.406830
   34       -2.358292
   35       -2.355126
   36       -2.301843
   37       -2.241166
   38       -1.373886
   39       -1.328887
   40       -1.327174
   41       -1.274501
   42       -1.204359
   43       -1.201979
   44       -1.076842
   45       -0.878967
   46       -0.837581
   47       -0.833818
   48       -0.791213
   49       -0.093821
   50       -0.091772
   51        0.018356
   52        0.045511
   53        0.051670
   54        0.052280
   55        0.061107
   56        0.084237
   57        0.974606
   58        0.976598
   59        1.097570
   60        2.076414
   61        3.041850
   62        3.701588
   63        3.703698
   64        4.287125
   65        6.080298
   66        6.347152
   67        6.349823
   68        6.774122
   69        9.081728
   70        9.469267
   71        9.472744
   72        9.885436
   73       10.574514
   74       10.967284
   75       10.970016
   76       11.127165
   77       11.452748
   78       12.289588
   79       12.855224
   80       13.066225
   81       13.072145
   82       13.443275
   83       13.455508
   84       13.609578
 
 -0.3333333E+00  0.1666667E+00  0.0000000E+00  0.1388889E-01
    1      -14.129703
    2      -13.938056
    3      -13.937488
    4      -13.728730
    5      -11.220546
    6      -11.214574
    7      -11.060685
    8      -11.060132
    9      -11.054644
   10      -11.054178
   11      -10.888919
   12      -10.882901
   13       -8.840233
   14       -8.754919
   15       -8.754565
   16       -8.688734
   17       -7.773247
   18       -7.738685
   19       -7.738419
   20       -7.669998
   21       -5.639188
   22       -5.629628
   23       -5.539198
   24       -5.536871
   25       -5.529538
   26       -5.527688
   27       -5.432091
   28       -5.422829
   29       -3.198698
   30       -3.131672
   31       -3.131362
   32       -3.061342
   33       -3.034900
   34       -1.973444
   35       -1.971551
   36       -1.519158
   37       -1.500759
   38       -1.472568
   39       -1.469465
   40       -1.453937
   41       -1.451361
   42       -1.421781
   43       -1.403418
   44       -0.662016
   45        0.355279
   46        0.378829
   47        0.381374
   48        0.389863
   49        0.393798
   50        0.405289
   51        1.040819
   52        1.057376
   53        1.057532
   54        1.076696
   55        1.278583
   56        1.280770
   57        1.283458
   58        1.285683
   59        2.311125
   60        2.316339
   61        2.767437
   62        3.297812
   63        3.299932
   64        3.603810
   65        6.490469
   66        6.492783
   67        6.548880
   68        6.862353
   69        8.264355
   70        8.274173
   71        8.750057
   72        8.753917
   73        8.759113
   74        8.762339
   75        9.399266
   76        9.403871
   77       10.339043
   78       13.092414
   79       13.127666
   80       13.170296
   81       13.173315
   82       13.345220
   83       13.349244
   84       13.382758
 
 -0.1666667E+00  0.1666667E+00  0.0000000E+00  0.1388889E-01
    1      -14.460833
    2      -14.265656
    3      -14.265078
    4      -14.052031
    5      -10.600097
    6      -10.448245
    7      -10.447758
    8      -10.286030
    9       -9.708736
   10       -9.706719
   11       -9.574836
   12       -9.572241
   13       -9.572187
   14       -9.570533
   15       -9.432756
   16       -9.430492
   17       -7.581720
   18       -7.579857
   19       -7.474580
   20       -7.473583
   21       -7.473537
   22       -7.470786
   23       -7.356012
   24       -7.354101
   25       -6.750281
   26       -6.639750
   27       -6.637643
   28       -6.520511
   29       -3.436107
   30       -2.361411
   31       -2.359504
   32       -1.850920
   33       -1.848376
   34       -1.802734
   35       -1.798800
   36       -1.798788
   37       -1.797953
   38       -1.749506
   39       -1.747237
   40       -1.172222
   41       -1.132818
   42       -1.130383
   43       -1.090612
   44       -1.030704
   45        1.042484
   46        1.382267
   47        1.406002
   48        1.411249
   49        1.434514
   50        1.722308
   51        1.741759
   52        1.746383
   53        1.766539
   54        1.849514
   55        1.851952
   56        1.930217
   57        1.932332
   58        2.590566
   59        2.595122
   60        2.595538
   61        2.596691
   62        2.716549
   63        3.163881
   64        3.166665
   65        6.728204
   66        6.731292
   67        6.985328
   68        6.986951
   69        6.987313
   70        6.992501
   71        7.340333
   72        7.646865
   73        7.649483
   74        7.797602
   75        7.801725
   76        8.548703
   77        9.945600
   78       12.316433
   79       12.567603
   80       12.568674
   81       12.824212
   82       12.874322
   83       12.883686
   84       12.921675
 
  0.2710505E-19  0.3333333E+00  0.0000000E+00  0.1388889E-01
    1      -13.963963
    2      -13.774103
    3      -13.773539
    4      -13.566892
    5      -12.009338
    6      -11.840469
    7      -11.839939
    8      -11.658257
    9      -10.143345
   10      -10.139113
   11       -9.997969
   12       -9.996051
   13       -9.992821
   14       -9.991359
   15       -9.840969
   16       -9.836584
   17       -6.411426
   18       -6.399447
   19       -6.311313
   20       -6.308424
   21       -6.298788
   22       -6.296437
   23       -6.202826
   24       -6.191055
   25       -4.619421
   26       -4.526308
   27       -4.525947
   28       -4.428871
   29       -3.012636
   30       -2.995550
   31       -2.949932
   32       -2.947449
   33       -2.932438
   34       -2.930461
   35       -2.881406
   36       -2.864183
   37       -2.834799
   38       -1.780359
   39       -1.778482
   40       -0.717394
   41       -0.678568
   42       -0.678263
   43       -0.639091
   44       -0.517602
   45       -0.478997
   46       -0.263785
   47       -0.217009
   48       -0.216700
   49       -0.169525
   50        0.433135
   51        0.435037
   52        0.905245
   53        0.935383
   54        0.935619
   55        0.966095
   56        1.569688
   57        1.604945
   58        1.608091
   59        2.396852
   60        2.399276
   61        2.402095
   62        2.404306
   63        3.256792
   64        3.262508
   65        7.163381
   66        7.169944
   67        7.555420
   68        7.559851
   69        7.564061
   70        7.567914
   71        8.087323
   72        8.092903
   73        9.461331
   74        9.946384
   75        9.948791
   76       10.533776
   77       10.589544
   78       12.504188
   79       12.772383
   80       12.773383
   81       12.787275
   82       13.157171
   83       13.157676
   84       13.218286
 
  0.1666667E+00  0.3333333E+00  0.0000000E+00  0.1388889E-01
    1      -13.469828
    2      -13.285221
    3      -13.284682
    4      -13.084349
    5      -12.493861
    6      -12.319754
    7      -12.319186
    8      -12.131350
    9      -11.534929
   10      -11.371344
   11      -11.370856
   12      -11.195308
   13       -8.844670
   14       -8.720648
   15       -8.720258
   16       -8.591919
   17       -6.937331
   18       -6.854407
   19       -6.852289
   20       -6.764832
   21       -4.616276
   22       -4.553077
   23       -4.551771
   24       -4.479862
   25       -4.459191
   26       -4.385834
   27       -4.384655
   28       -4.310462
   29       -3.478171
   30       -3.400881
   31       -3.399868
   32       -3.320057
   33       -2.421038
   34       -2.372404
   35       -2.370452
   36       -2.316980
   37       -2.239953
   38       -1.374927
   39       -1.329801
   40       -1.328133
   41       -1.275382
   42       -1.203184
   43       -1.200827
   44       -1.078225
   45       -0.879692
   46       -0.836972
   47       -0.836257
   48       -0.792254
   49       -0.094996
   50       -0.093107
   51        0.019345
   52        0.046469
   53        0.052901
   54        0.053372
   55        0.062237
   56        0.085699
   57        0.975398
   58        0.977332
   59        1.096551
   60        2.077402
   61        3.041812
   62        3.698815
   63        3.701063
   64        4.277849
   65        6.082892
   66        6.346101
   67        6.349081
   68        6.775021
   69        9.087949
   70        9.475036
   71        9.477012
   72        9.887778
   73       10.571680
   74       10.966434
   75       10.969500
   76       11.128800
   77       11.453842
   78       12.287553
   79       12.859041
   80       13.065856
   81       13.071856
   82       13.441817
   83       13.461948
   84       13.613182
 
  0.3333333E+00  0.3333333E+00  0.0000000E+00  0.1388889E-01
    1      -12.658840
    2      -12.656071
    3      -12.653432
    4      -12.484789
    5      -12.480816
    6      -12.480791
    7      -12.479755
    8      -12.477902
    9      -12.475663
   10      -12.292447
   11      -12.289690
   12      -12.286982
   13       -7.633761
   14       -7.505102
   15       -7.504629
   16       -7.497421
   17       -7.495064
   18       -7.490747
   19       -7.489386
   20       -7.363923
   21       -5.454191
   22       -5.453976
   23       -5.445425
   24       -5.443881
   25       -2.706596
   26       -2.702729
   27       -2.699316
   28       -2.667696
   29       -2.661804
   30       -2.661622
   31       -2.661541
   32       -2.660803
   33       -2.655594
   34       -2.625381
   35       -2.622998
   36       -2.619481
   37       -1.339414
   38       -1.333740
   39       -1.330746
   40       -1.315571
   41       -1.309512
   42       -1.308144
   43       -1.307079
   44       -1.307073
   45       -1.300994
   46       -1.280199
   47       -1.275696
   48       -1.272411
   49       -1.268333
   50       -1.266429
   51       -1.263021
   52       -0.277402
   53       -0.273643
   54       -0.273377
   55       -0.272023
   56       -0.270791
   57       -0.267931
   58        0.932519
   59        0.935087
   60        0.937307
   61        4.250545
   62        5.010833
   63        5.021786
   64        5.039662
   65        5.043604
   66        5.070510
   67        5.070904
   68        5.968501
   69       11.107460
   70       11.110672
   71       11.118263
   72       11.408793
   73       11.414344
   74       11.414828
   75       11.415494
   76       11.416311
   77       11.420053
   78       11.734452
   79       11.737758
   80       11.740593
   81       12.112842
   82       12.114236
   83       12.117961
   84       14.544590
 
  0.5000000E+00  0.3333333E+00  0.0000000E+00  0.1388889E-01
    1      -13.471793
    2      -13.287205
    3      -13.286630
    4      -13.086311
    5      -12.495800
    6      -12.321693
    7      -12.321116
    8      -12.133288
    9      -11.531014
   10      -11.367420
   11      -11.366955
   12      -11.191396
   13       -8.835061
   14       -8.710869
   15       -8.710337
   16       -8.581802
   17       -6.937901
   18       -6.854860
   19       -6.854168
   20       -6.766783
   21       -4.625148
   22       -4.562429
   23       -4.561309
   24       -4.489771
   25       -4.464193
   26       -4.391724
   27       -4.388987
   28       -4.315670
   29       -3.492027
   30       -3.415478
   31       -3.412399
   32       -3.333289
   33       -2.418806
   34       -2.370940
   35       -2.367231
   36       -2.314594
   37       -2.241841
   38       -1.387193
   39       -1.341545
   40       -1.339160
   41       -1.286580
   42       -1.205384
   43       -1.203124
   44       -1.079980
   45       -0.861955
   46       -0.820310
   47       -0.817099
   48       -0.774166
   49       -0.096856
   50       -0.094934
   51        0.032512
   52        0.051789
   53        0.060470
   54        0.063910
   55        0.067000
   56        0.099263
   57        0.978528
   58        0.980625
   59        1.094483
   60        2.080344
   61        3.045474
   62        3.704441
   63        3.706771
   64        4.287270
   65        6.087961
   66        6.346023
   67        6.348345
   68        6.765333
   69        9.092339
   70        9.474231
   71        9.477027
   72        9.881977
   73       10.562970
   74       10.959158
   75       10.963065
   76       11.126218
   77       11.450636
   78       12.285533
   79       12.849523
   80       13.063027
   81       13.069029
   82       13.442644
   83       13.491307
   84       13.634103
 
 -0.3333333E+00  0.3333333E+00  0.0000000E+00  0.1388889E-01
    1      -13.964945
    2      -13.775091
    3      -13.774509
    4      -13.567867
    5      -12.013256
    6      -11.844413
    7      -11.843841
    8      -11.662187
    9      -10.135762
   10      -10.133953
   11       -9.990198
   12       -9.988078
   13       -9.988025
   14       -9.986431
   15       -9.833348
   16       -9.831436
   17       -6.407115
   18       -6.405245
   19       -6.306164
   20       -6.305276
   21       -6.305244
   22       -6.302224
   23       -6.199205
   24       -6.197160
   25       -4.631425
   26       -4.539158
   27       -4.536779
   28       -4.440537
   29       -3.010924
   30       -3.008814
   31       -2.948870
   32       -2.945058
   33       -2.945006
   34       -2.944801
   35       -2.879707
   36       -2.877770
   37       -2.835766
   38       -1.781304
   39       -1.779435
   40       -0.698412
   41       -0.660706
   42       -0.658037
   43       -0.619959
   44       -0.521028
   45       -0.479902
   46       -0.279377
   47       -0.234043
   48       -0.230008
   49       -0.184302
   50        0.429521
   51        0.431505
   52        0.921639
   53        0.950118
   54        0.954071
   55        0.983151
   56        1.565665
   57        1.609725
   58        1.611758
   59        2.401324
   60        2.405655
   61        2.406029
   62        2.407355
   63        3.263218
   64        3.265890
   65        7.169690
   66        7.172411
   67        7.560054
   68        7.561641
   69        7.561999
   70        7.567012
   71        8.084316
   72        8.087126
   73        9.451531
   74        9.937106
   75        9.940656
   76       10.532415
   77       10.584046
   78       12.528913
   79       12.803168
   80       12.803857
   81       12.805689
   82       13.164859
   83       13.166654
   84       13.236929
 
 -0.1666667E+00  0.3333333E+00  0.0000000E+00  0.1388889E-01
    1      -14.129714
    2      -13.938072
    3      -13.937493
    4      -13.728741
    5      -11.220927
    6      -11.214267
    7      -11.061851
    8      -11.060205
    9      -11.054361
   10      -11.053217
   11      -10.889243
   12      -10.882502
   13       -8.840973
   14       -8.756446
   15       -8.754602
   16       -8.689498
   17       -7.771753
   18       -7.738433
   19       -7.735250
   20       -7.668248
   21       -5.639487
   22       -5.630258
   23       -5.540062
   24       -5.536872
   25       -5.529543
   26       -5.528415
   27       -5.432239
   28       -5.423367
   29       -3.199872
   30       -3.133901
   31       -3.131397
   32       -3.062439
   33       -3.034869
   34       -1.973401
   35       -1.971516
   36       -1.517944
   37       -1.500937
   38       -1.470357
   39       -1.469460
   40       -1.453938
   41       -1.451367
   42       -1.420572
   43       -1.403393
   44       -0.661962
   45        0.352091
   46        0.374919
   47        0.381371
   48        0.389647
   49        0.394047