 vasp.5.3.5 31Mar14 (build Nov 02 2014 15:17:37) complex                        
  
 executed on        ion-Intel-MKL date 2016.10.18  11:11:05
 running on    6 total cores
 distrk:  each k-point on    6 cores,    1 groups
 distr:  one band on NCORES_PER_BAND=   1 cores,    6 groups


--------------------------------------------------------------------------------------------------------


 INCAR:
 POTCAR:   PAW_PBE C 08Apr2002                    

 ----------------------------------------------------------------------------- 
|                                                                             |
|           W    W    AA    RRRRR   N    N  II  N    N   GGGG   !!!           |
|           W    W   A  A   R    R  NN   N  II  NN   N  G    G  !!!           |
|           W    W  A    A  R    R  N N  N  II  N N  N  G       !!!           |
|           W WW W  AAAAAA  RRRRR   N  N N  II  N  N N  G  GGG   !            |
|           WW  WW  A    A  R   R   N   NN  II  N   NN  G    G                |
|           W    W  A    A  R    R  N    N  II  N    N   GGGG   !!!           |
|                                                                             |
|      For optimal performance we recommend to set                            |
|        NCORE= 4 - approx SQRT( number of cores)                             |
|      NCORE specifies how many cores store one orbital (NPAR=cpu/NCORE).     |
|      This setting can  greatly improve the performance of VASP for DFT.     |
|      The default, NPAR=number of cores might be grossly inefficient         |
|      on modern multi-core architectures or massively parallel machines.     |
|      Do your own testing !!!!                                               |
|      Unfortunately you need to use the default for GW and RPA calculations. |
|      (for HF NCORE is supported but not extensively tested yet)             |
|                                                                             |
 ----------------------------------------------------------------------------- 

 POTCAR:   PAW_PBE C 08Apr2002                    
   VRHFIN =C: s2p2                                                              
   LEXCH  = PE                                                                  
   EATOM  =   147.1560 eV,   10.8157 Ry                                         
                                                                                
   TITEL  = PAW_PBE C 08Apr2002                                                 
   LULTRA =        F    use ultrasoft PP ?                                      
   IUNSCR =        0    unscreen: 0-lin 1-nonlin 2-no                           
   RPACOR =     .000    partial core radius                                     
   POMASS =   12.011; ZVAL   =    4.000    mass and valenz                      
   RCORE  =    1.500    outmost cutoff radius                                   
   RWIGS  =    1.630; RWIGS  =     .863    wigner-seitz radius (au A)           
   ENMAX  =  400.000; ENMIN  =  300.000 eV                                      
   ICORE  =        2    local potential                                         
   LCOR   =        T    correct aug charges                                     
   LPAW   =        T    paw PP                                                  
   EAUG   =  644.873                                                            
   DEXC   =     .000                                                            
   RMAX   =    2.266    core radius for proj-oper                               
   RAUG   =    1.300    factor for augmentation sphere                          
   RDEP   =    1.501    radius for radial grids                                 
   RDEPT  =    1.300    core radius for aug-charge                              
   QCUT   =   -5.516; QGAM   =   11.032    optimization parameters              
                                                                                
   Description                                                                  
     l     E      TYP  RCUT    TYP  RCUT                                        
     0   .000     23  1.200                                                     
     0   .000     23  1.200                                                     
     1   .000     23  1.500                                                     
     1  2.500     23  1.500                                                     
     2   .000      7  1.500                                                     
  local pseudopotential read in
  atomic valenz-charges read in
  non local Contribution for L=           0  read in
    real space projection operators read in
  non local Contribution for L=           0  read in
    real space projection operators read in
  non local Contribution for L=           1  read in
    real space projection operators read in
  non local Contribution for L=           1  read in
    real space projection operators read in
    PAW grid and wavefunctions read in
 
   number of l-projection  operators is LMAX  =           4
   number of lm-projection operators is LMMAX =           8
 

 ----------------------------------------------------------------------------- 
|                                                                             |
|  ADVICE TO THIS USER RUNNING 'VASP/VAMP'   (HEAR YOUR MASTER'S VOICE ...):  |
|                                                                             |
|      You have a (more or less) 'large supercell' and for larger cells       |
|      it might be more efficient to use real space projection operators      |
|      So try LREAL= Auto  in the INCAR   file.                               |
|      Mind: If you want to do a very accurate calculations keep the          |
|      reciprocal projection scheme          (i.e. LREAL=.FALSE.)             |
|                                                                             |
 ----------------------------------------------------------------------------- 

 PAW_PBE C 08Apr2002                    :
 energy of atom  1       EATOM= -147.1560
 kinetic energy error for atom=    0.0016 (will be added to EATOM!!)
 
 
 POSCAR: C                                       
  positions in direct lattice
  No initial velocities read in
 exchange correlation table for  LEXCH =        8
   RHO(1)=    0.500       N(1)  =     2000
   RHO(2)=  100.500       N(2)  =     4000
 


--------------------------------------------------------------------------------------------------------


 ion  position               nearest neighbor table
   1  0.500  0.000  0.126-  20 1.42  18 1.42  19 1.43
   2  1.000  0.000  0.125-  17 1.42  20 1.42  19 1.42
   3  0.500  0.500  0.125-  20 1.42  17 1.42  18 1.42
   4  1.000  0.500  0.125-  19 1.42  18 1.42  17 1.42
   5  0.500  0.000  0.625-  22 1.42  23 1.42  24 1.42
   6  1.000  0.000  0.625-  21 1.42  24 1.42  23 1.42
   7  0.500  0.500  0.625-  24 1.42  21 1.42  22 1.42
   8  1.000  0.500  0.625-  23 1.42  22 1.42  21 1.42
   9  0.000  0.500  0.375-  27 1.42  26 1.42  28 1.42
  10  0.500  0.500  0.375-  28 1.42  25 1.42  27 1.42
  11  0.000  1.000  0.375-  25 1.42  28 1.42  26 1.42
  12  0.500  1.000  0.375-  26 1.42  27 1.42  25 1.42
  13  0.000  0.500  0.875-  31 1.42  30 1.42  32 1.42
  14  0.500  0.500  0.875-  32 1.42  29 1.42  31 1.42
  15  0.000  1.000  0.875-  29 1.42  32 1.42  30 1.42
  16  0.500  1.000  0.875-  30 1.42  31 1.42  29 1.42
  17  0.166  0.334  0.125-   2 1.42   3 1.42   4 1.42
  18  0.666  0.334  0.125-   4 1.42   1 1.42   3 1.42
  19  0.166  0.834  0.125-   4 1.42   2 1.42   1 1.43
  20  0.666  0.834  0.125-   1 1.42   3 1.42   2 1.42
  21  0.166  0.334  0.625-   6 1.42   7 1.42   8 1.42
  22  0.666  0.334  0.625-   5 1.42   8 1.42   7 1.42
  23  0.166  0.834  0.625-   8 1.42   5 1.42   6 1.42
  24  0.666  0.834  0.625-   7 1.42   6 1.42   5 1.42
  25  0.334  0.166  0.375-  11 1.42  10 1.42  12 1.42
  26  0.834  0.166  0.375-  12 1.42   9 1.42  11 1.42
  27  0.334  0.666  0.375-   9 1.42  12 1.42  10 1.42
  28  0.834  0.666  0.375-  10 1.42  11 1.42   9 1.42
  29  0.334  0.166  0.875-  15 1.42  14 1.42  16 1.42
  30  0.834  0.166  0.875-  16 1.42  13 1.42  15 1.42
  31  0.334  0.666  0.875-  13 1.42  16 1.42  14 1.42
  32  0.834  0.666  0.875-  14 1.42  15 1.42  13 1.42
 
  LATTYP: Found a base centered orthorhombic cell.
 ALAT       =     4.9295501972
 B/A-ratio  =     1.7336081796
 C/A-ratio  =     2.6098925659
  
  Lattice vectors:
  
 A1 = (   4.9328744980,  -0.0019192860,   0.0000000000)
 A2 = (  -2.4680993993,   4.2710349859,   0.0000000000)
 A3 = (   0.0000000000,   0.0000000000,  12.8655964126)


Analysis of symmetry for initial positions (statically):
=====================================================================
 Subroutine PRICEL returns:
 Original cell was already a primitive cell.
 

 Routine SETGRP: Setting up the symmetry group for a 
 base centered orthorhombic supercell.


 Subroutine GETGRP returns: Found  1 space group operations
 (whereof  1 operations were pure point group operations)
 out of a pool of  8 trial point group operations.


The static configuration has the point symmetry C_1 .


Analysis of symmetry for dynamics (positions and initial velocities):
=====================================================================
 Subroutine PRICEL returns:
 Original cell was already a primitive cell.
 

 Routine SETGRP: Setting up the symmetry group for a 
 base centered orthorhombic supercell.


 Subroutine GETGRP returns: Found  1 space group operations
 (whereof  1 operations were pure point group operations)
 out of a pool of  8 trial point group operations.


The dynamic configuration has the point symmetry C_1 .
 
 
 KPOINTS: B4C B11C-CBC                            

Automatic generation of k-mesh.
Space group operators:
 irot       det(A)        alpha          n_x          n_y          n_z        tau_x        tau_y        tau_z
    1     1.000000     0.000000     1.000000     0.000000     0.000000     0.000000     0.000000     0.000000
 
 Subroutine IBZKPT returns following result:
 ===========================================
 
 Found     76 irreducible k-points:
 
 Following reciprocal coordinates:
            Coordinates               Weight
  0.000000  0.000000  0.000000      1.000000
  0.166667  0.000000  0.000000      2.000000
  0.333333  0.000000  0.000000      2.000000
  0.500000  0.000000  0.000000      1.000000
  0.000000  0.166667  0.000000      2.000000
  0.166667  0.166667  0.000000      2.000000
  0.333333  0.166667  0.000000      2.000000
  0.500000  0.166667  0.000000      2.000000
 -0.333333  0.166667  0.000000      2.000000
 -0.166667  0.166667  0.000000      2.000000
  0.000000  0.333333  0.000000      2.000000
  0.166667  0.333333  0.000000      2.000000
  0.333333  0.333333  0.000000      2.000000
  0.500000  0.333333  0.000000      2.000000
 -0.333333  0.333333  0.000000      2.000000
 -0.166667  0.333333  0.000000      2.000000
  0.000000  0.500000  0.000000      1.000000
  0.166667  0.500000  0.000000      2.000000
  0.333333  0.500000  0.000000      2.000000
  0.500000  0.500000  0.000000      1.000000
  0.000000  0.000000  0.250000      2.000000
  0.166667  0.000000  0.250000      2.000000
  0.333333  0.000000  0.250000      2.000000
  0.500000  0.000000  0.250000      2.000000
 -0.333333  0.000000  0.250000      2.000000
 -0.166667  0.000000  0.250000      2.000000
  0.000000  0.166667  0.250000      2.000000
  0.166667  0.166667  0.250000      2.000000
  0.333333  0.166667  0.250000      2.000000
  0.500000  0.166667  0.250000      2.000000
 -0.333333  0.166667  0.250000      2.000000
 -0.166667  0.166667  0.250000      2.000000
  0.000000  0.333333  0.250000      2.000000
  0.166667  0.333333  0.250000      2.000000
  0.333333  0.333333  0.250000      2.000000
  0.500000  0.333333  0.250000      2.000000
 -0.333333  0.333333  0.250000      2.000000
 -0.166667  0.333333  0.250000      2.000000
  0.000000  0.500000  0.250000      2.000000
  0.166667  0.500000  0.250000      2.000000
  0.333333  0.500000  0.250000      2.000000
  0.500000  0.500000  0.250000      2.000000
 -0.333333  0.500000  0.250000      2.000000
 -0.166667  0.500000  0.250000      2.000000
 -0.000000 -0.333333  0.250000      2.000000
  0.166667 -0.333333  0.250000      2.000000
  0.333333 -0.333333  0.250000      2.000000
  0.500000 -0.333333  0.250000      2.000000
 -0.333333 -0.333333  0.250000      2.000000
 -0.166667 -0.333333  0.250000      2.000000
 -0.000000 -0.166667  0.250000      2.000000
  0.166667 -0.166667  0.250000      2.000000
  0.333333 -0.166667  0.250000      2.000000
  0.500000 -0.166667  0.250000      2.000000
 -0.333333 -0.166667  0.250000      2.000000
 -0.166667 -0.166667  0.250000      2.000000
  0.000000  0.000000  0.500000      1.000000
  0.166667  0.000000  0.500000      2.000000
  0.333333  0.000000  0.500000      2.000000
  0.500000  0.000000  0.500000      1.000000
  0.000000  0.166667  0.500000      2.000000
  0.166667  0.166667  0.500000      2.000000
  0.333333  0.166667  0.500000      2.000000
  0.500000  0.166667  0.500000      2.000000
 -0.333333  0.166667  0.500000      2.000000
 -0.166667  0.166667  0.500000      2.000000
  0.000000  0.333333  0.500000      2.000000
  0.166667  0.333333  0.500000      2.000000
  0.333333  0.333333  0.500000      2.000000
  0.500000  0.333333  0.500000      2.000000
 -0.333333  0.333333  0.500000      2.000000
 -0.166667  0.333333  0.500000      2.000000
  0.000000  0.500000  0.500000      1.000000
  0.166667  0.500000  0.500000      2.000000
  0.333333  0.500000  0.500000      2.000000
  0.500000  0.500000  0.500000      1.000000
 
 Following cartesian coordinates:
            Coordinates               Weight
  0.000000  0.000000  0.000000      1.000000
  0.033795  0.019529  0.000000      2.000000
  0.067589  0.039058  0.000000      2.000000
  0.101384  0.058586  0.000000      1.000000
  0.000015  0.039031  0.000000      2.000000
  0.033810  0.058560  0.000000      2.000000
  0.067604  0.078089  0.000000      2.000000
  0.101399  0.097618  0.000000      2.000000
 -0.067574 -0.000026  0.000000      2.000000
 -0.033779  0.019503  0.000000      2.000000
  0.000030  0.078063  0.000000      2.000000
  0.033825  0.097591  0.000000      2.000000
  0.067619  0.117120  0.000000      2.000000
  0.101414  0.136649  0.000000      2.000000
 -0.067559  0.039005  0.000000      2.000000
 -0.033764  0.058534  0.000000      2.000000
  0.000046  0.117094  0.000000      1.000000
  0.033840  0.136623  0.000000      2.000000
  0.067635  0.156152  0.000000      2.000000
  0.101429  0.175680  0.000000      1.000000
  0.000000  0.000000  0.019432      2.000000
  0.033795  0.019529  0.019432      2.000000
  0.067589  0.039058  0.019432      2.000000
  0.101384  0.058586  0.019432      2.000000
 -0.067589 -0.039058  0.019432      2.000000
 -0.033795 -0.019529  0.019432      2.000000
  0.000015  0.039031  0.019432      2.000000
  0.033810  0.058560  0.019432      2.000000
  0.067604  0.078089  0.019432      2.000000
  0.101399  0.097618  0.019432      2.000000
 -0.067574 -0.000026  0.019432      2.000000
 -0.033779  0.019503  0.019432      2.000000
  0.000030  0.078063  0.019432      2.000000
  0.033825  0.097591  0.019432      2.000000
  0.067619  0.117120  0.019432      2.000000
  0.101414  0.136649  0.019432      2.000000
 -0.067559  0.039005  0.019432      2.000000
 -0.033764  0.058534  0.019432      2.000000
  0.000046  0.117094  0.019432      2.000000
  0.033840  0.136623  0.019432      2.000000
  0.067635  0.156152  0.019432      2.000000
  0.101429  0.175680  0.019432      2.000000
 -0.067543  0.078036  0.019432      2.000000
 -0.033749  0.097565  0.019432      2.000000
 -0.000030 -0.078063  0.019432      2.000000
  0.033764 -0.058534  0.019432      2.000000
  0.067559 -0.039005  0.019432      2.000000
  0.101353 -0.019476  0.019432      2.000000
 -0.067619 -0.117120  0.019432      2.000000
 -0.033825 -0.097591  0.019432      2.000000
 -0.000015 -0.039031  0.019432      2.000000
  0.033779 -0.019503  0.019432      2.000000
  0.067574  0.000026  0.019432      2.000000
  0.101368  0.019555  0.019432      2.000000
 -0.067604 -0.078089  0.019432      2.000000
 -0.033810 -0.058560  0.019432      2.000000
  0.000000  0.000000  0.038863      1.000000
  0.033795  0.019529  0.038863      2.000000
  0.067589  0.039058  0.038863      2.000000
  0.101384  0.058586  0.038863      1.000000
  0.000015  0.039031  0.038863      2.000000
  0.033810  0.058560  0.038863      2.000000
  0.067604  0.078089  0.038863      2.000000
  0.101399  0.097618  0.038863      2.000000
 -0.067574 -0.000026  0.038863      2.000000
 -0.033779  0.019503  0.038863      2.000000
  0.000030  0.078063  0.038863      2.000000
  0.033825  0.097591  0.038863      2.000000
  0.067619  0.117120  0.038863      2.000000
  0.101414  0.136649  0.038863      2.000000
 -0.067559  0.039005  0.038863      2.000000
 -0.033764  0.058534  0.038863      2.000000
  0.000046  0.117094  0.038863      1.000000
  0.033840  0.136623  0.038863      2.000000
  0.067635  0.156152  0.038863      2.000000
  0.101429  0.175680  0.038863      1.000000
 
 TETIRR: Found    432 inequivalent tetrahedra from      864


--------------------------------------------------------------------------------------------------------




 Dimension of arrays:
   k-points           NKPTS =     76   k-points in BZ     NKDIM =     76   number of bands    NBANDS=     84
   number of dos      NEDOS =    301   number of ions     NIONS =     32
   non local maximal  LDIM  =      4   non local SUM 2l+1 LMDIM =      8
   total plane-waves  NPLWV = 276480
   max r-space proj   IRMAX =      1   max aug-charges    IRDMAX=  12238
   dimension x,y,z NGX =    48 NGY =   48 NGZ =  120
   dimension x,y,z NGXF=    96 NGYF=   96 NGZF=  240
   support grid    NGXF=    96 NGYF=   96 NGZF=  240
   ions per type =              32
 NGX,Y,Z   is equivalent  to a cutoff of  16.18, 16.18, 15.51 a.u.
 NGXF,Y,Z  is equivalent  to a cutoff of  32.35, 32.35, 31.01 a.u.


 I would recommend the setting:
   dimension x,y,z NGX =    46 NGY =   46 NGZ =  119
 SYSTEM =  graphite                                
 POSCAR =  C                                       

 Startparameter for this run:
   NWRITE =      2    write-flag & timer
   PREC   = accura    normal or accurate (medium, high low for compatibility)
   ISTART =      0    job   : 0-new  1-cont  2-samecut
   ICHARG =      2    charge: 1-file 2-atom 10-const
   ISPIN  =      1    spin polarized calculation?
   LNONCOLLINEAR =      F non collinear calculations
   LSORBIT =      F    spin-orbit coupling
   INIWAV =      1    electr: 0-lowe 1-rand  2-diag
   LASPH  =      F    aspherical Exc in radial PAW
   METAGGA=      F    non-selfconsistent MetaGGA calc.

 Electronic Relaxation 1
   ENCUT  =  800.0 eV  58.80 Ry    7.67 a.u.  11.38 11.38 29.67*2*pi/ulx,y,z
   ENINI  =  800.0     initial cutoff
   ENAUG  =  644.9 eV  augmentation charge cutoff
   NELM   =    200;   NELMIN=  2; NELMDL=  0     # of ELM steps 
   EDIFF  = 0.1E-07   stopping-criterion for ELM
   LREAL  =      F    real-space projection
   NLSPLINE    = F    spline interpolate recip. space projectors
   LCOMPAT=      F    compatible to vasp.4.4
   GGA_COMPAT  = T    GGA compatible to vasp.4.4-vasp.4.6
   LMAXPAW     = -100 max onsite density
   LMAXMIX     =    2 max onsite mixed and CHGCAR
   VOSKOWN=      0    Vosko Wilk Nusair interpolation
   ROPT   =    0.00000
 Ionic relaxation
   EDIFFG = 0.1E-02   stopping-criterion for IOM
   NSW    =      0    number of steps for IOM
   NBLOCK =      1;   KBLOCK =      1    inner block; outer block 
   IBRION =     -1    ionic relax: 0-MD 1-quasi-New 2-CG
   NFREE  =      0    steps in history (QN), initial steepest desc. (CG)
   ISIF   =      2    stress and relaxation
   IWAVPR =     10    prediction:  0-non 1-charg 2-wave 3-comb
   ISYM   =      2    0-nonsym 1-usesym 2-fastsym
   LCORR  =      T    Harris-Foulkes like correction to forces

   POTIM  = 0.5000    time-step for ionic-motion
   TEIN   =    0.0    initial temperature
   TEBEG  =    0.0;   TEEND  =   0.0 temperature during run
   SMASS  =  -3.00    Nose mass-parameter (am)
   estimated Nose-frequenzy (Omega)   =  0.10E-29 period in steps =****** mass=  -0.556E-27a.u.
   SCALEE = 1.0000    scale energy and forces
   NPACO  =    256;   APACO  = 16.0  distance and # of slots for P.C.
   PSTRESS=    0.0 pullay stress

  Mass of Ions in am
   POMASS =  12.01
  Ionic Valenz
   ZVAL   =   4.00
  Atomic Wigner-Seitz radii
   RWIGS  =  -1.00
  virtual crystal weights 
   VCA    =   1.00
   NELECT =     128.0000    total number of electrons
   NUPDOWN=      -1.0000    fix difference up-down

 DOS related values:
   EMIN   =  10.00;   EMAX   =-10.00  energy-range for DOS
   EFERMI =   0.00
   ISMEAR =    -5;   SIGMA  =   0.20  broadening in eV -4-tet -1-fermi 0-gaus

 Electronic relaxation 2 (details)
   IALGO  =     38    algorithm
   LDIAG  =      T    sub-space diagonalisation (order eigenvalues)
   LSUBROT=      F    optimize rotation matrix (better conditioning)
   TURBO    =      0    0=normal 1=particle mesh
   IRESTART =      0    0=no restart 2=restart with 2 vectors
   NREBOOT  =      0    no. of reboots
   NMIN     =      0    reboot dimension
   EREF     =   0.00    reference energy to select bands
   IMIX   =      4    mixing-type and parameters
     AMIX     =   0.40;   BMIX     =  1.00
     AMIX_MAG =   1.60;   BMIX_MAG =  1.00
     AMIN     =   0.10
     WC   =   100.;   INIMIX=   1;  MIXPRE=   1;  MAXMIX= -45

 Intra band minimization:
   WEIMIN = 0.0000     energy-eigenvalue tresh-hold
   EBREAK =  0.30E-10  absolut break condition
   DEPER  =   0.30     relativ break condition  

   TIME   =   0.40     timestep for ELM

  volume/ion in A,a.u.               =       8.47        57.15
  Fermi-wavevector in a.u.,A,eV,Ry     =   1.274940  2.409287 22.115881  1.625471
  Thomas-Fermi vector in A             =   2.407680
 
 Write flags
   LWAVE  =      F    write WAVECAR
   LCHARG =      F    write CHGCAR
   LVTOT  =      F    write LOCPOT, total local potential
   LVHAR  =      F    write LOCPOT, Hartree potential only
   LELF   =      F    write electronic localiz. function (ELF)
   LORBIT =      0    0 simple, 1 ext, 2 COOP (PROOUT)


 Dipole corrections
   LMONO  =      F    monopole corrections only (constant potential shift)
   LDIPOL =      F    correct potential (dipole corrections)
   IDIPOL =      0    1-x, 2-y, 3-z, 4-all directions 
   EPSILON=  1.0000000 bulk dielectric constant

 Exchange correlation treatment:
   GGA     =    PE    GGA type
   LEXCH   =     8    internal setting for exchange type
   VOSKOWN=      0    Vosko Wilk Nusair interpolation
   LHFCALC =     F    Hartree Fock is set to
   LHFONE  =     F    Hartree Fock one center treatment
   AEXX    =    0.0000 exact exchange contribution

 Linear response parameters
   LEPSILON=     F    determine dielectric tensor
   LRPA    =     F    only Hartree local field effects (RPA)
   LNABLA  =     F    use nabla operator in PAW spheres
   LVEL    =     F    velocity operator in full k-point grid
   LINTERFAST=   F  fast interpolation
   KINTER  =     0    interpolate to denser k-point grid
   CSHIFT  =0.1000    complex shift for real part using Kramers Kronig
   OMEGAMAX=  -1.0    maximum frequency
   DEG_THRESHOLD= 0.2000000E-02 threshold for treating states as degnerate
   RTIME   =    0.100 relaxation time in fs

 Orbital magnetization related:
   ORBITALMAG=     F  switch on orbital magnetization
   LCHIMAG   =     F  perturbation theory with respect to B field
   DQ        =  0.001000  dq finite difference perturbation B field



--------------------------------------------------------------------------------------------------------


 Static calculation
 charge density and potential will be updated during run
 non-spin polarized calculation
 Variant of blocked Davidson
 Davidson routine will perform the subspace rotation
 perform sub-space diagonalisation
    after iterative eigenvector-optimisation
 modified Broyden-mixing scheme, WC =      100.0
 initial mixing is a Kerker type mixing with AMIX =  0.4000 and BMIX =      1.0000
 Hartree-type preconditioning will be used
 using additional bands           20
 reciprocal scheme for non local part
 calculate Harris-corrections to forces 
   (improved forces if not selfconsistent)
 use gradient corrections 
 use of overlap-Matrix (Vanderbilt PP)
 Fermi weights with tetrahedron method with Bloechl corrections


--------------------------------------------------------------------------------------------------------


  energy-cutoff  :      800.00
  volume of cell :      271.00
      direct lattice vectors                 reciprocal lattice vectors
     4.932874498 -0.001919286  0.000000000     0.202767147  0.117172881  0.000000000
    -2.468099399  4.271034986  0.000000000     0.000091118  0.234187941  0.000000000
     0.000000000  0.000000000 12.865596413     0.000000000  0.000000000  0.077726673

  length of vectors
     4.932874871  4.932874871 12.865596413     0.234187958  0.234187958  0.077726673


 
 k-points in units of 2pi/SCALE and weight: B4C B11C-CBC                            
   0.00000000  0.00000000  0.00000000       0.007
   0.03379452  0.01952881  0.00000000       0.014
   0.06758905  0.03905763  0.00000000       0.014
   0.10138357  0.05858644  0.00000000       0.007
   0.00001519  0.03903132  0.00000000       0.014
   0.03380971  0.05856014  0.00000000       0.014
   0.06760424  0.07808895  0.00000000       0.014
   0.10139876  0.09761776  0.00000000       0.014
  -0.06757386 -0.00002630  0.00000000       0.014
  -0.03377934  0.01950251  0.00000000       0.014
   0.00003037  0.07806265  0.00000000       0.014
   0.03382490  0.09759146  0.00000000       0.014
   0.06761942  0.11712027  0.00000000       0.014
   0.10141395  0.13664909  0.00000000       0.014
  -0.06755868  0.03900502  0.00000000       0.014
  -0.03376415  0.05853383  0.00000000       0.014
   0.00004556  0.11709397  0.00000000       0.007
   0.03384008  0.13662278  0.00000000       0.014
   0.06763461  0.15615160  0.00000000       0.014
   0.10142913  0.17568041  0.00000000       0.007
   0.00000000  0.00000000  0.01943167       0.014
   0.03379452  0.01952881  0.01943167       0.014
   0.06758905  0.03905763  0.01943167       0.014
   0.10138357  0.05858644  0.01943167       0.014
  -0.06758905 -0.03905763  0.01943167       0.014
  -0.03379452 -0.01952881  0.01943167       0.014
   0.00001519  0.03903132  0.01943167       0.014
   0.03380971  0.05856014  0.01943167       0.014
   0.06760424  0.07808895  0.01943167       0.014
   0.10139876  0.09761776  0.01943167       0.014
  -0.06757386 -0.00002630  0.01943167       0.014
  -0.03377934  0.01950251  0.01943167       0.014
   0.00003037  0.07806265  0.01943167       0.014
   0.03382490  0.09759146  0.01943167       0.014
   0.06761942  0.11712027  0.01943167       0.014
   0.10141395  0.13664909  0.01943167       0.014
  -0.06755868  0.03900502  0.01943167       0.014
  -0.03376415  0.05853383  0.01943167       0.014
   0.00004556  0.11709397  0.01943167       0.014
   0.03384008  0.13662278  0.01943167       0.014
   0.06763461  0.15615160  0.01943167       0.014
   0.10142913  0.17568041  0.01943167       0.014
  -0.06754349  0.07803634  0.01943167       0.014
  -0.03374897  0.09756516  0.01943167       0.014
  -0.00003037 -0.07806265  0.01943167       0.014
   0.03376415 -0.05853383  0.01943167       0.014
   0.06755868 -0.03900502  0.01943167       0.014
   0.10135320 -0.01947621  0.01943167       0.014
  -0.06761942 -0.11712027  0.01943167       0.014
  -0.03382490 -0.09759146  0.01943167       0.014
  -0.00001519 -0.03903132  0.01943167       0.014
   0.03377934 -0.01950251  0.01943167       0.014
   0.06757386  0.00002630  0.01943167       0.014
   0.10136839  0.01955512  0.01943167       0.014
  -0.06760424 -0.07808895  0.01943167       0.014
  -0.03380971 -0.05856014  0.01943167       0.014
   0.00000000  0.00000000  0.03886334       0.007
   0.03379452  0.01952881  0.03886334       0.014
   0.06758905  0.03905763  0.03886334       0.014
   0.10138357  0.05858644  0.03886334       0.007
   0.00001519  0.03903132  0.03886334       0.014
   0.03380971  0.05856014  0.03886334       0.014
   0.06760424  0.07808895  0.03886334       0.014
   0.10139876  0.09761776  0.03886334       0.014
  -0.06757386 -0.00002630  0.03886334       0.014
  -0.03377934  0.01950251  0.03886334       0.014
   0.00003037  0.07806265  0.03886334       0.014
   0.03382490  0.09759146  0.03886334       0.014
   0.06761942  0.11712027  0.03886334       0.014
   0.10141395  0.13664909  0.03886334       0.014
  -0.06755868  0.03900502  0.03886334       0.014
  -0.03376415  0.05853383  0.03886334       0.014
   0.00004556  0.11709397  0.03886334       0.007
   0.03384008  0.13662278  0.03886334       0.014
   0.06763461  0.15615160  0.03886334       0.014
   0.10142913  0.17568041  0.03886334       0.007
 
 k-points in reciprocal lattice and weights: B4C B11C-CBC                            
   0.00000000  0.00000000  0.00000000       0.007
   0.16666667  0.00000000  0.00000000       0.014
   0.33333333  0.00000000  0.00000000       0.014
   0.50000000  0.00000000  0.00000000       0.007
   0.00000000  0.16666667  0.00000000       0.014
   0.16666667  0.16666667  0.00000000       0.014
   0.33333333  0.16666667  0.00000000       0.014
   0.50000000  0.16666667  0.00000000       0.014
  -0.33333333  0.16666667  0.00000000       0.014
  -0.16666667  0.16666667  0.00000000       0.014
   0.00000000  0.33333333  0.00000000       0.014
   0.16666667  0.33333333  0.00000000       0.014
   0.33333333  0.33333333  0.00000000       0.014
   0.50000000  0.33333333  0.00000000       0.014
  -0.33333333  0.33333333  0.00000000       0.014
  -0.16666667  0.33333333  0.00000000       0.014
   0.00000000  0.50000000  0.00000000       0.007
   0.16666667  0.50000000  0.00000000       0.014
   0.33333333  0.50000000  0.00000000       0.014
   0.50000000  0.50000000  0.00000000       0.007
   0.00000000  0.00000000  0.25000000       0.014
   0.16666667  0.00000000  0.25000000       0.014
   0.33333333  0.00000000  0.25000000       0.014
   0.50000000  0.00000000  0.25000000       0.014
  -0.33333333  0.00000000  0.25000000       0.014
  -0.16666667  0.00000000  0.25000000       0.014
   0.00000000  0.16666667  0.25000000       0.014
   0.16666667  0.16666667  0.25000000       0.014
   0.33333333  0.16666667  0.25000000       0.014
   0.50000000  0.16666667  0.25000000       0.014
  -0.33333333  0.16666667  0.25000000       0.014
  -0.16666667  0.16666667  0.25000000       0.014
   0.00000000  0.33333333  0.25000000       0.014
   0.16666667  0.33333333  0.25000000       0.014
   0.33333333  0.33333333  0.25000000       0.014
   0.50000000  0.33333333  0.25000000       0.014
  -0.33333333  0.33333333  0.25000000       0.014
  -0.16666667  0.33333333  0.25000000       0.014
   0.00000000  0.50000000  0.25000000       0.014
   0.16666667  0.50000000  0.25000000       0.014
   0.33333333  0.50000000  0.25000000       0.014
   0.50000000  0.50000000  0.25000000       0.014
  -0.33333333  0.50000000  0.25000000       0.014
  -0.16666667  0.50000000  0.25000000       0.014
  -0.00000000 -0.33333333  0.25000000       0.014
   0.16666667 -0.33333333  0.25000000       0.014
   0.33333333 -0.33333333  0.25000000       0.014
   0.50000000 -0.33333333  0.25000000       0.014
  -0.33333333 -0.33333333  0.25000000       0.014
  -0.16666667 -0.33333333  0.25000000       0.014
  -0.00000000 -0.16666667  0.25000000       0.014
   0.16666667 -0.16666667  0.25000000       0.014
   0.33333333 -0.16666667  0.25000000       0.014
   0.50000000 -0.16666667  0.25000000       0.014
  -0.33333333 -0.16666667  0.25000000       0.014
  -0.16666667 -0.16666667  0.25000000       0.014
   0.00000000  0.00000000  0.50000000       0.007
   0.16666667  0.00000000  0.50000000       0.014
   0.33333333  0.00000000  0.50000000       0.014
   0.50000000  0.00000000  0.50000000       0.007
   0.00000000  0.16666667  0.50000000       0.014
   0.16666667  0.16666667  0.50000000       0.014
   0.33333333  0.16666667  0.50000000       0.014
   0.50000000  0.16666667  0.50000000       0.014
  -0.33333333  0.16666667  0.50000000       0.014
  -0.16666667  0.16666667  0.50000000       0.014
   0.00000000  0.33333333  0.50000000       0.014
   0.16666667  0.33333333  0.50000000       0.014
   0.33333333  0.33333333  0.50000000       0.014
   0.50000000  0.33333333  0.50000000       0.014
  -0.33333333  0.33333333  0.50000000       0.014
  -0.16666667  0.33333333  0.50000000       0.014
   0.00000000  0.50000000  0.50000000       0.007
   0.16666667  0.50000000  0.50000000       0.014
   0.33333333  0.50000000  0.50000000       0.014
   0.50000000  0.50000000  0.50000000       0.007
 
 position of ions in fractional coordinates (direct lattice) 
   0.50039905  0.00032672  0.12572575
   0.99967330  0.00032672  0.12500000
   0.49967330  0.50032672  0.12500000
   0.99967330  0.50032672  0.12500000
   0.49967330  0.00032672  0.62500000
   0.99967330  0.00032672  0.62500000
   0.49967330  0.50032672  0.62500000
   0.99967330  0.50032672  0.62500000
   0.00032672  0.49967330  0.37500000
   0.50032672  0.49967330  0.37500000
   0.00032672  0.99967330  0.37500000
   0.50032672  0.99967330  0.37500000
   0.00032672  0.49967330  0.87500000
   0.50032672  0.49967330  0.87500000
   0.00032672  0.99967330  0.87500000
   0.50032672  0.99967330  0.87500000
   0.16629246  0.33370753  0.12500000
   0.66629246  0.33370753  0.12500000
   0.16629246  0.83370753  0.12500000
   0.66629246  0.83370753  0.12500000
   0.16629246  0.33370753  0.62500000
   0.66629246  0.33370753  0.62500000
   0.16629246  0.83370753  0.62500000
   0.66629246  0.83370753  0.62500000
   0.33370753  0.16629246  0.37500000
   0.83370753  0.16629246  0.37500000
   0.33370753  0.66629246  0.37500000
   0.83370753  0.66629246  0.37500000
   0.33370753  0.16629246  0.87500000
   0.83370753  0.16629246  0.87500000
   0.33370753  0.66629246  0.87500000
   0.83370753  0.66629246  0.87500000
 
 position of ions in cartesian coordinates  (Angst):
   2.46759936  0.00043502  1.61753675
   4.93045658 -0.00052323  1.60819955
   1.22996963  2.13595390  1.60819955
   3.69640688  2.13499426  1.60819955
   2.46401933  0.00043641  8.04099776
   4.93045658 -0.00052323  8.04099776
   1.22996963  2.13595390  8.04099776
   3.69640688  2.13499426  8.04099776
  -1.23163172  2.13412154  4.82459865
   1.23480553  2.13316189  4.82459865
  -2.46568142  4.26963903  4.82459865
   0.00075583  4.26867939  4.82459865
  -1.23163172  2.13412154 11.25739686
   1.23480553  2.13316189 11.25739686
  -2.46568142  4.26963903 11.25739686
   0.00075583  4.26867939 11.25739686
  -0.00332350  1.42495737  1.60819955
   2.46311374  1.42399773  1.60819955
  -1.23737320  3.56047486  1.60819955
   1.22906405  3.55951522  1.60819955
  -0.00332350  1.42495737  8.04099776
   2.46311374  1.42399773  8.04099776
  -1.23737320  3.56047486  8.04099776
   1.22906405  3.55951522  8.04099776
   1.23571103  0.70960044  4.82459865
   3.70214828  0.70864080  4.82459865
   0.00166133  2.84511794  4.82459865
   2.46809858  2.84415829  4.82459865
   1.23571103  0.70960044 11.25739686
   3.70214828  0.70864080 11.25739686
   0.00166133  2.84511794 11.25739686
   2.46809858  2.84415829 11.25739686
 


--------------------------------------------------------------------------------------------------------


 k-point  1 :   0.0000 0.0000 0.0000  plane waves:   13967
 k-point  2 :   0.1667 0.0000 0.0000  plane waves:   13950
 k-point  3 :   0.3333 0.0000 0.0000  plane waves:   13924
 k-point  4 :   0.5000 0.0000 0.0000  plane waves:   13928
 k-point  5 :   0.0000 0.1667 0.0000  plane waves:   13950
 k-point  6 :   0.1667 0.1667 0.0000  plane waves:   13929
 k-point  7 :   0.3333 0.1667 0.0000  plane waves:   13915
 k-point  8 :   0.5000 0.1667 0.0000  plane waves:   13911
 k-point  9 :  -0.3333 0.1667 0.0000  plane waves:   13941
 k-point 10 :  -0.1667 0.1667 0.0000  plane waves:   13952
 k-point 11 :   0.0000 0.3333 0.0000  plane waves:   13924
 k-point 12 :   0.1667 0.3333 0.0000  plane waves:   13915
 k-point 13 :   0.3333 0.3333 0.0000  plane waves:   13888
 k-point 14 :   0.5000 0.3333 0.0000  plane waves:   13907
 k-point 15 :  -0.3333 0.3333 0.0000  plane waves:   13908
 k-point 16 :  -0.1667 0.3333 0.0000  plane waves:   13941
 k-point 17 :   0.0000 0.5000 0.0000  plane waves:   13928
 k-point 18 :   0.1667 0.5000 0.0000  plane waves:   13911
 k-point 19 :   0.3333 0.5000 0.0000  plane waves:   13907
 k-point 20 :   0.5000 0.5000 0.0000  plane waves:   13924
 k-point 21 :   0.0000 0.0000 0.2500  plane waves:   13949
 k-point 22 :   0.1667 0.0000 0.2500  plane waves:   13949
 k-point 23 :   0.3333 0.0000 0.2500  plane waves:   13916
 k-point 24 :   0.5000 0.0000 0.2500  plane waves:   13910
 k-point 25 :  -0.3333 0.0000 0.2500  plane waves:   13916
 k-point 26 :  -0.1667 0.0000 0.2500  plane waves:   13949
 k-point 27 :   0.0000 0.1667 0.2500  plane waves:   13949
 k-point 28 :   0.1667 0.1667 0.2500  plane waves:   13933
 k-point 29 :   0.3333 0.1667 0.2500  plane waves:   13908
 k-point 30 :   0.5000 0.1667 0.2500  plane waves:   13911
 k-point 31 :  -0.3333 0.1667 0.2500  plane waves:   13932
 k-point 32 :  -0.1667 0.1667 0.2500  plane waves:   13951
 k-point 33 :   0.0000 0.3333 0.2500  plane waves:   13916
 k-point 34 :   0.1667 0.3333 0.2500  plane waves:   13908
 k-point 35 :   0.3333 0.3333 0.2500  plane waves:   13910
 k-point 36 :   0.5000 0.3333 0.2500  plane waves:   13910
 k-point 37 :  -0.3333 0.3333 0.2500  plane waves:   13914
 k-point 38 :  -0.1667 0.3333 0.2500  plane waves:   13932
 k-point 39 :   0.0000 0.5000 0.2500  plane waves:   13910
 k-point 40 :   0.1667 0.5000 0.2500  plane waves:   13911
 k-point 41 :   0.3333 0.5000 0.2500  plane waves:   13910
 k-point 42 :   0.5000 0.5000 0.2500  plane waves:   13912
 k-point 43 :  -0.3333 0.5000 0.2500  plane waves:   13910
 k-point 44 :  -0.1667 0.5000 0.2500  plane waves:   13911
 k-point 45 :  -0.0000-0.3333 0.2500  plane waves:   13916
 k-point 46 :   0.1667-0.3333 0.2500  plane waves:   13932
 k-point 47 :   0.3333-0.3333 0.2500  plane waves:   13914
 k-point 48 :   0.5000-0.3333 0.2500  plane waves:   13910
 k-point 49 :  -0.3333-0.3333 0.2500  plane waves:   13910
 k-point 50 :  -0.1667-0.3333 0.2500  plane waves:   13908
 k-point 51 :  -0.0000-0.1667 0.2500  plane waves:   13949
 k-point 52 :   0.1667-0.1667 0.2500  plane waves:   13951
 k-point 53 :   0.3333-0.1667 0.2500  plane waves:   13932
 k-point 54 :   0.5000-0.1667 0.2500  plane waves:   13911
 k-point 55 :  -0.3333-0.1667 0.2500  plane waves:   13908
 k-point 56 :  -0.1667-0.1667 0.2500  plane waves:   13933
 k-point 57 :   0.0000 0.0000 0.5000  plane waves:   13944
 k-point 58 :   0.1667 0.0000 0.5000  plane waves:   13962
 k-point 59 :   0.3333 0.0000 0.5000  plane waves:   13920
 k-point 60 :   0.5000 0.0000 0.5000  plane waves:   13916
 k-point 61 :   0.0000 0.1667 0.5000  plane waves:   13962
 k-point 62 :   0.1667 0.1667 0.5000  plane waves:   13924
 k-point 63 :   0.3333 0.1667 0.5000  plane waves:   13912
 k-point 64 :   0.5000 0.1667 0.5000  plane waves:   13910
 k-point 65 :  -0.3333 0.1667 0.5000  plane waves:   13926
 k-point 66 :  -0.1667 0.1667 0.5000  plane waves:   13962
 k-point 67 :   0.0000 0.3333 0.5000  plane waves:   13920
 k-point 68 :   0.1667 0.3333 0.5000  plane waves:   13912
 k-point 69 :   0.3333 0.3333 0.5000  plane waves:   13920
 k-point 70 :   0.5000 0.3333 0.5000  plane waves:   13912
 k-point 71 :  -0.3333 0.3333 0.5000  plane waves:   13920
 k-point 72 :  -0.1667 0.3333 0.5000  plane waves:   13926
 k-point 73 :   0.0000 0.5000 0.5000  plane waves:   13916
 k-point 74 :   0.1667 0.5000 0.5000  plane waves:   13910
 k-point 75 :   0.3333 0.5000 0.5000  plane waves:   13912
 k-point 76 :   0.5000 0.5000 0.5000  plane waves:   13908

 maximum and minimum number of plane-waves per node :     13967    13888

 maximum number of plane-waves:     13967
 maximum index in each direction: 
   IXMAX=   11   IYMAX=   11   IZMAX=   29
   IXMIN=  -11   IYMIN=  -11   IZMIN=  -30

 NGX is ok and might be reduce to  46
 NGY is ok and might be reduce to  46
 NGZ is ok and might be reduce to 120

 serial   3D FFT for wavefunctions
 parallel 3D FFT for charge:
    minimum data exchange during FFTs selected (reduces bandwidth)


 total amount of memory used by VASP on root node   389842. kBytes
========================================================================

   base      :      30000. kBytes
   nonl-proj :      75091. kBytes
   fftplans  :      13581. kBytes
   grid      :      28889. kBytes
   one-center:         98. kBytes
   wavefun   :     242183. kBytes
 
     INWAV:  cpu time    0.00: real time    0.00
 Broyden mixing: mesh for mixing (old mesh)
   NGX = 23   NGY = 23   NGZ = 59
  (NGX  = 96   NGY  = 96   NGZ  =240)
  gives a total of  31211 points

 initial charge density was supplied:
 charge density of overlapping atoms calculated
 number of electron     128.0000000 magnetization 
 keeping initial charge density in first step


--------------------------------------------------------------------------------------------------------


 Maximum index for augmentation-charges         1979 (set IRDMAX)


--------------------------------------------------------------------------------------------------------


 First call to EWALD:  gamma=   0.274
 Maximum number of real-space cells 4x 4x 2
 Maximum number of reciprocal cells 2x 2x 5

 FEWALD executed in parallel
    FEWALD:  cpu time    0.00: real time    0.00


----------------------------------------- Iteration    1(   1)  ---------------------------------------


    POTLOK:  cpu time    1.11: real time    1.45
    SETDIJ:  cpu time    0.03: real time    0.07
     EDDAV:  cpu time  220.67: real time  330.50
 BZINTS: Fermi energy: 17.686941;128.000000 electrons
         Band energy: 212.748064;  BLOECHL correction: -0.121198
       DOS:  cpu time    0.09: real time    0.09
    --------------------------------------------
      LOOP:  cpu time  221.91: real time  332.14

 eigenvalue-minimisations  : 12768
 total energy-change (2. order) : 0.6881057E+03  (-0.8487526E+04)
 number of electron     128.0000000 magnetization 
 augmentation part      128.0000000 magnetization 

 Free energy of the ion-electron system (eV)
  ---------------------------------------------------
  alpha Z        PSCENC =       307.88348157
  Ewald energy   TEWEN  =     -3888.95920286
  -Hartree energ DENC   =     -1059.44326621
  -exchange      EXHF   =         0.00000000
  -V(xc)+E(xc)   XCENC  =       443.75038986
  PAW double counting   =      1210.60617908    -1247.42152856
  entropy T*S    EENTRO =         0.00000000
  eigenvalues    EBANDS =       212.74806443
  atomic energy  EATOM  =      4708.94155045
  ---------------------------------------------------
  free energy    TOTEN  =       688.10566776 eV

  energy without entropy =      688.10566776  energy(sigma->0) =      688.10566776


--------------------------------------------------------------------------------------------------------




----------------------------------------- Iteration    1(   2)  ---------------------------------------


     EDDAV:  cpu time  257.81: real time  389.37
 BZINTS: Fermi energy:  4.440147;128.000000 electrons
         Band energy:-731.924513;  BLOECHL correction:  0.000000
       DOS:  cpu time    0.02: real time    0.04
    --------------------------------------------
      LOOP:  cpu time  257.91: real time  389.55

 eigenvalue-minimisations  : 15792
 total energy-change (2. order) :-0.9446726E+03  (-0.9101605E+03)
 number of electron     128.0000000 magnetization 
 augmentation part      128.0000000 magnetization 

 Free energy of the ion-electron system (eV)
  ---------------------------------------------------
  alpha Z        PSCENC =       307.88348157
  Ewald energy   TEWEN  =     -3888.95920286
  -Hartree energ DENC   =     -1059.44326621
  -exchange      EXHF   =         0.00000000
  -V(xc)+E(xc)   XCENC  =       443.75038986
  PAW double counting   =      1210.60617908    -1247.42152856
  entropy T*S    EENTRO =         0.00000000
  eigenvalues    EBANDS =      -731.92451310
  atomic energy  EATOM  =      4708.94155045
  ---------------------------------------------------
  free energy    TOTEN  =      -256.56690977 eV

  energy without entropy =     -256.56690977  energy(sigma->0) =     -256.56690977


--------------------------------------------------------------------------------------------------------




----------------------------------------- Iteration    1(   3)  ---------------------------------------


     EDDAV:  cpu time  256.44: real time  391.79
 BZINTS: Fermi energy:  3.656947;128.000000 electrons
         Band energy:-787.408171;  BLOECHL correction: -0.000000
       DOS:  cpu time    0.04: real time    0.06
    --------------------------------------------
      LOOP:  cpu time  256.48: real time  391.87

 eigenvalue-minimisations  : 15564
 total energy-change (2. order) :-0.5548366E+02  (-0.5487184E+02)
 number of electron     128.0000000 magnetization 
 augmentation part      128.0000000 magnetization 

 Free energy of the ion-electron system (eV)
  ---------------------------------------------------
  alpha Z        PSCENC =       307.88348157
  Ewald energy   TEWEN  =     -3888.95920286
  -Hartree energ DENC   =     -1059.44326621
  -exchange      EXHF   =         0.00000000
  -V(xc)+E(xc)   XCENC  =       443.75038986
  PAW double counting   =      1210.60617908    -1247.42152856
  entropy T*S    EENTRO =         0.00000000
  eigenvalues    EBANDS =      -787.40817117
  atomic energy  EATOM  =      4708.94155045
  ---------------------------------------------------
  free energy    TOTEN  =      -312.05056784 eV

  energy without entropy =     -312.05056784  energy(sigma->0) =     -312.05056784


--------------------------------------------------------------------------------------------------------




----------------------------------------- Iteration    1(   4)  ---------------------------------------


     EDDAV:  cpu time  260.76: real time  392.24
 BZINTS: Fermi energy:  3.648654;128.000000 electrons
         Band energy:-788.476682;  BLOECHL correction: -0.000000
       DOS:  cpu time    0.04: real time    0.07
    --------------------------------------------
      LOOP:  cpu time  260.84: real time  392.36

 eigenvalue-minimisations  : 15924
 total energy-change (2. order) :-0.1068511E+01  (-0.1066155E+01)
 number of electron     128.0000000 magnetization 
 augmentation part      128.0000000 magnetization 

 Free energy of the ion-electron system (eV)
  ---------------------------------------------------
  alpha Z        PSCENC =       307.88348157
  Ewald energy   TEWEN  =     -3888.95920286
  -Hartree energ DENC   =     -1059.44326621
  -exchange      EXHF   =         0.00000000
  -V(xc)+E(xc)   XCENC  =       443.75038986
  PAW double counting   =      1210.60617908    -1247.42152856
  entropy T*S    EENTRO =         0.00000000
  eigenvalues    EBANDS =      -788.47668223
  atomic energy  EATOM  =      4708.94155045
  ---------------------------------------------------
  free energy    TOTEN  =      -313.11907890 eV

  energy without entropy =     -313.11907890  energy(sigma->0) =     -313.11907890


--------------------------------------------------------------------------------------------------------




----------------------------------------- Iteration    1(   5)  ---------------------------------------


     EDDAV:  cpu time  258.76: real time  394.39
 BZINTS: Fermi energy:  3.647763;128.000000 electrons
         Band energy:-788.506811;  BLOECHL correction: -0.000000
       DOS:  cpu time    0.04: real time    0.05
    CHARGE:  cpu time    6.14: real time    9.54
    MIXING:  cpu time    0.04: real time    0.05
    --------------------------------------------
      LOOP:  cpu time  264.97: real time  404.04

 eigenvalue-minimisations  : 15948
 total energy-change (2. order) :-0.3012923E-01  (-0.3011707E-01)
 number of electron     127.9999995 magnetization 
 augmentation part        3.3884425 magnetization 

 Broyden mixing:
  rms(total) = 0.22075E+01    rms(broyden)= 0.22075E+01
  rms(prec ) = 0.26351E+01
  weight for this iteration     100.00

 Free energy of the ion-electron system (eV)
  ---------------------------------------------------
  alpha Z        PSCENC =       307.88348157
  Ewald energy   TEWEN  =     -3888.95920286
  -Hartree energ DENC   =     -1059.44326621
  -exchange      EXHF   =         0.00000000
  -V(xc)+E(xc)   XCENC  =       443.75038986
  PAW double counting   =      1210.60617908    -1247.42152856
  entropy T*S    EENTRO =         0.00000000
  eigenvalues    EBANDS =      -788.50681146
  atomic energy  EATOM  =      4708.94155045
  ---------------------------------------------------
  free energy    TOTEN  =      -313.14920813 eV

  energy without entropy =     -313.14920813  energy(sigma->0) =     -313.14920813


--------------------------------------------------------------------------------------------------------




----------------------------------------- Iteration    1(   6)  ---------------------------------------


    POTLOK:  cpu time    1.10: real time    1.60
    SETDIJ:  cpu time    0.02: real time    0.03
     EDDAV:  cpu time  244.14: real time  370.26
 BZINTS: Fermi energy:  4.361619;128.000000 electrons
         Band energy:-653.904896;  BLOECHL correction:  0.000000
       DOS:  cpu time    0.02: real time    0.05
    CHARGE:  cpu time    6.11: real time    9.47
    MIXING:  cpu time    0.03: real time    0.06
    --------------------------------------------
      LOOP:  cpu time  251.44: real time  381.49

 eigenvalue-minimisations  : 14592
 total energy-change (2. order) : 0.1422460E+02  (-0.1467142E+01)
 number of electron     127.9999995 magnetization 
 augmentation part        3.2340847 magnetization 

 Broyden mixing:
  rms(total) = 0.11577E+01    rms(broyden)= 0.11576E+01
  rms(prec ) = 0.13708E+01
  weight for this iteration     100.00

 eigenvalues of (default mixing * dielectric matrix)
  average eigenvalue GAMMA=   2.0355
  2.0355

 Free energy of the ion-electron system (eV)
  ---------------------------------------------------
  alpha Z        PSCENC =       307.88348157
  Ewald energy   TEWEN  =     -3888.95920286
  -Hartree energ DENC   =     -1185.23228424
  -exchange      EXHF   =         0.00000000
  -V(xc)+E(xc)   XCENC  =       452.03580869
  PAW double counting   =      1641.24204086    -1680.93110921
  entropy T*S    EENTRO =         0.00000000
  eigenvalues    EBANDS =      -653.90489589
  atomic energy  EATOM  =      4708.94155045
  ---------------------------------------------------
  free energy    TOTEN  =      -298.92461063 eV

  energy without entropy =     -298.92461063  energy(sigma->0) =     -298.92461063


--------------------------------------------------------------------------------------------------------




----------------------------------------- Iteration    1(   7)  ---------------------------------------


    POTLOK:  cpu time    1.08: real time    1.60
    SETDIJ:  cpu time    0.02: real time    0.05
     EDDAV:  cpu time  246.49: real time  374.52
 BZINTS: Fermi energy:  5.059287;128.000000 electrons
         Band energy:-517.375460;  BLOECHL correction:  0.000000
       DOS:  cpu time    0.02: real time    0.04
    CHARGE:  cpu time    5.55: real time    8.85
    MIXING:  cpu time    0.01: real time    0.02
    --------------------------------------------
      LOOP:  cpu time  253.19: real time  385.11

 eigenvalue-minimisations  : 14556
 total energy-change (2. order) : 0.4468477E+01  (-0.1519887E+01)
 number of electron     127.9999995 magnetization 
 augmentation part        3.0707454 magnetization 

 Broyden mixing:
  rms(total) = 0.19085E+00    rms(broyden)= 0.19084E+00
  rms(prec ) = 0.20653E+00
  weight for this iteration     100.00

 eigenvalues of (default mixing * dielectric matrix)
  average eigenvalue GAMMA=   2.1420
  2.1420  2.1420

 Free energy of the ion-electron system (eV)
  ---------------------------------------------------
  alpha Z        PSCENC =       307.88348157
  Ewald energy   TEWEN  =     -3888.95920286
  -Hartree energ DENC   =     -1324.35312190
  -exchange      EXHF   =         0.00000000
  -V(xc)+E(xc)   XCENC  =       461.42857315
  PAW double counting   =      2179.19298508    -2221.21493935
  entropy T*S    EENTRO =         0.00000000
  eigenvalues    EBANDS =      -517.37545958
  atomic energy  EATOM  =      4708.94155045
  ---------------------------------------------------
  free energy    TOTEN  =      -294.45613344 eV

  energy without entropy =     -294.45613344  energy(sigma->0) =     -294.45613344


--------------------------------------------------------------------------------------------------------




----------------------------------------- Iteration    1(   8)  ---------------------------------------


    POTLOK:  cpu time    0.92: real time    1.70
    SETDIJ:  cpu time    0.02: real time    0.04
     EDDAV:  cpu time  247.32: real time  370.76
 BZINTS: Fermi energy:  5.016671;128.000000 electrons
         Band energy:-520.439269;  BLOECHL correction:  0.000000
       DOS:  cpu time    0.03: real time    0.03
    CHARGE:  cpu time    6.09: real time    9.34
    MIXING:  cpu time    0.07: real time    0.07
    --------------------------------------------
      LOOP:  cpu time  254.45: real time  381.96

 eigenvalue-minimisations  : 14676
 total energy-change (2. order) :-0.5761053E-01  (-0.4637479E-01)
 number of electron     127.9999995 magnetization 
 augmentation part        3.0652567 magnetization 

 Broyden mixing:
  rms(total) = 0.50688E-01    rms(broyden)= 0.50685E-01
  rms(prec ) = 0.82518E-01
  weight for this iteration     100.00

 eigenvalues of (default mixing * dielectric matrix)
  average eigenvalue GAMMA=   1.6651
  2.3820  2.0186  0.5948

 Free energy of the ion-electron system (eV)
  ---------------------------------------------------
  alpha Z        PSCENC =       307.88348157
  Ewald energy   TEWEN  =     -3888.95920286
  -Hartree energ DENC   =     -1321.93476373
  -exchange      EXHF   =         0.00000000
  -V(xc)+E(xc)   XCENC  =       461.30233450
  PAW double counting   =      2210.98862203    -2252.29649696
  entropy T*S    EENTRO =         0.00000000
  eigenvalues    EBANDS =      -520.43926897
  atomic energy  EATOM  =      4708.94155045
  ---------------------------------------------------
  free energy    TOTEN  =      -294.51374397 eV

  energy without entropy =     -294.51374397  energy(sigma->0) =     -294.51374397


--------------------------------------------------------------------------------------------------------




----------------------------------------- Iteration    1(   9)  ---------------------------------------


    POTLOK:  cpu time    0.97: real time    1.43
    SETDIJ:  cpu time    0.02: real time    0.04
     EDDAV:  cpu time  247.86: real time  381.34
 BZINTS: Fermi energy:  5.033837;128.000000 electrons
         Band energy:-519.500115;  BLOECHL correction:  0.000000
       DOS:  cpu time    0.04: real time    0.08
    CHARGE:  cpu time    6.65: real time    9.32
    MIXING:  cpu time    0.06: real time    0.06
    --------------------------------------------
      LOOP:  cpu time  255.61: real time  392.34

 eigenvalue-minimisations  : 15204
 total energy-change (2. order) : 0.7930362E-03  (-0.6977764E-02)
 number of electron     127.9999995 magnetization 
 augmentation part        3.0630164 magnetization 

 Broyden mixing:
  rms(total) = 0.30776E-01    rms(broyden)= 0.30775E-01
  rms(prec ) = 0.47915E-01
  weight for this iteration     100.00

 eigenvalues of (default mixing * dielectric matrix)
  average eigenvalue GAMMA=   1.3651
  2.4135  2.0086  0.5191  0.5191

 Free energy of the ion-electron system (eV)
  ---------------------------------------------------
  alpha Z        PSCENC =       307.88348157
  Ewald energy   TEWEN  =     -3888.95920286
  -Hartree energ DENC   =     -1323.02822601
  -exchange      EXHF   =         0.00000000
  -V(xc)+E(xc)   XCENC  =       461.38734235
  PAW double counting   =      2219.40345331    -2260.64123445
  entropy T*S    EENTRO =         0.00000000
  eigenvalues    EBANDS =      -519.50011529
  atomic energy  EATOM  =      4708.94155045
  ---------------------------------------------------
  free energy    TOTEN  =      -294.51295093 eV

  energy without entropy =     -294.51295093  energy(sigma->0) =     -294.51295093


--------------------------------------------------------------------------------------------------------




----------------------------------------- Iteration    1(  10)  ---------------------------------------


    POTLOK:  cpu time    1.28: real time    1.74
    SETDIJ:  cpu time    0.02: real time    0.04
     EDDAV:  cpu time  250.77: real time  381.70
 BZINTS: Fermi energy:  5.033426;128.000000 electrons
         Band energy:-519.093826;  BLOECHL correction:  0.000000
       DOS:  cpu time    0.03: real time    0.03
    CHARGE:  cpu time    6.31: real time    9.50
    MIXING:  cpu time    0.07: real time    0.08
    --------------------------------------------
      LOOP:  cpu time  258.48: real time  393.14

 eigenvalue-minimisations  : 15072
 total energy-change (2. order) : 0.1726105E-02  (-0.1783739E-02)
 number of electron     127.9999995 magnetization 
 augmentation part        3.0621677 magnetization 

 Broyden mixing:
  rms(total) = 0.14774E-01    rms(broyden)= 0.14773E-01
  rms(prec ) = 0.23194E-01
  weight for this iteration     100.00

 eigenvalues of (default mixing * dielectric matrix)
  average eigenvalue GAMMA=   1.3086
  2.4665  1.9819  0.7760  0.7760  0.5424

 Free energy of the ion-electron system (eV)
  ---------------------------------------------------
  alpha Z        PSCENC =       307.88348157
  Ewald energy   TEWEN  =     -3888.95920286
  -Hartree energ DENC   =     -1323.47494541
  -exchange      EXHF   =         0.00000000
  -V(xc)+E(xc)   XCENC  =       461.42090806
  PAW double counting   =      2221.30843198    -2262.53762269
  entropy T*S    EENTRO =         0.00000000
  eigenvalues    EBANDS =      -519.09382593
  atomic energy  EATOM  =      4708.94155045
  ---------------------------------------------------
  free energy    TOTEN  =      -294.51122483 eV

  energy without entropy =     -294.51122483  energy(sigma->0) =     -294.51122483


--------------------------------------------------------------------------------------------------------




----------------------------------------- Iteration    1(  11)  ---------------------------------------


    POTLOK:  cpu time    1.07: real time    1.47
    SETDIJ:  cpu time    0.06: real time    0.06
     EDDAV:  cpu time  264.85: real time  478.05
 BZINTS: Fermi energy:  5.034508;128.000000 electrons
         Band energy:-518.493767;  BLOECHL correction:  0.000000
       DOS:  cpu time    0.03: real time    0.06
    CHARGE:  cpu time    6.12: real time   12.25
    MIXING:  cpu time    0.08: real time    0.16
    --------------------------------------------
      LOOP:  cpu time  272.20: real time  493.33

 eigenvalue-minimisations  : 16692
 total energy-change (2. order) :-0.6215865E-03  (-0.1227455E-02)
 number of electron     127.9999995 magnetization 
 augmentation part        3.0617233 magnetization 

 Broyden mixing:
  rms(total) = 0.17983E-01    rms(broyden)= 0.17982E-01
  rms(prec ) = 0.34687E-01
  weight for this iteration     100.00

 eigenvalues of (default mixing * dielectric matrix)
  average eigenvalue GAMMA=   1.1885
  2.5183  1.9499  1.2754  0.5483  0.5483  0.2905

 Free energy of the ion-electron system (eV)
  ---------------------------------------------------
  alpha Z        PSCENC =       307.88348157
  Ewald energy   TEWEN  =     -3888.95920286
  -Hartree energ DENC   =     -1324.12318592
  -exchange      EXHF   =         0.00000000
  -V(xc)+E(xc)   XCENC  =       461.46886874
  PAW double counting   =      2223.00847962    -2264.23807134
  entropy T*S    EENTRO =         0.00000000
  eigenvalues    EBANDS =      -518.49376669
  atomic energy  EATOM  =      4708.94155045
  ---------------------------------------------------
  free energy    TOTEN  =      -294.51184642 eV

  energy without entropy =     -294.51184642  energy(sigma->0) =     -294.51184642


--------------------------------------------------------------------------------------------------------




----------------------------------------- Iteration    1(  12)  ---------------------------------------


    POTLOK:  cpu time    0.84: real time    1.67
    SETDIJ:  cpu time    0.03: real time    0.06
     EDDAV:  cpu time  239.98: real time  480.21
 BZINTS: Fermi energy:  5.042480;128.000000 electrons
         Band energy:-518.112385;  BLOECHL correction:  0.000000
       DOS:  cpu time    0.03: real time    0.06
    CHARGE:  cpu time    6.07: real time   12.15
    MIXING:  cpu time    0.13: real time    0.27
    --------------------------------------------
      LOOP:  cpu time  247.09: real time  494.43

 eigenvalue-minimisations  : 14556
 total energy-change (2. order) :-0.6394175E-04  (-0.4840969E-03)
 number of electron     127.9999995 magnetization 
 augmentation part        3.0612840 magnetization 

 Broyden mixing:
  rms(total) = 0.10729E-01    rms(broyden)= 0.10729E-01
  rms(prec ) = 0.16981E-01
  weight for this iteration     100.00

 eigenvalues of (default mixing * dielectric matrix)
  average eigenvalue GAMMA=   1.2073
  2.6590  1.9158  1.9158  0.6172  0.6172  0.5053  0.2209

 Free energy of the ion-electron system (eV)
  ---------------------------------------------------
  alpha Z        PSCENC =       307.88348157
  Ewald energy   TEWEN  =     -3888.95920286
  -Hartree energ DENC   =     -1324.53541539
  -exchange      EXHF   =         0.00000000
  -V(xc)+E(xc)   XCENC  =       461.49945305
  PAW double counting   =      2224.10848016    -2265.33787233
  entropy T*S    EENTRO =         0.00000000
  eigenvalues    EBANDS =      -518.11238501
  atomic energy  EATOM  =      4708.94155045
  ---------------------------------------------------
  free energy    TOTEN  =      -294.51191036 eV

  energy without entropy =     -294.51191036  energy(sigma->0) =     -294.51191036


--------------------------------------------------------------------------------------------------------




----------------------------------------- Iteration    1(  13)  ---------------------------------------


    POTLOK:  cpu time    0.87: real time    1.74
    SETDIJ:  cpu time    0.03: real time    0.06
     EDDAV:  cpu time  262.85: real time  525.96
 BZINTS: Fermi energy:  5.039612;128.000000 electrons
         Band energy:-517.770953;  BLOECHL correction:  0.000000
       DOS:  cpu time    0.03: real time    0.06
    CHARGE:  cpu time    5.66: real time   11.33
    MIXING:  cpu time    0.03: real time    0.07
    --------------------------------------------
      LOOP:  cpu time  269.49: real time  539.25

 eigenvalue-minimisations  : 16644
 total energy-change (2. order) : 0.7907466E-04  (-0.2742490E-03)
 number of electron     127.9999995 magnetization 
 augmentation part        3.0610574 magnetization 

 Broyden mixing:
  rms(total) = 0.55380E-02    rms(broyden)= 0.55373E-02
  rms(prec ) = 0.90156E-02
  weight for this iteration     100.00

 eigenvalues of (default mixing * dielectric matrix)
  average eigenvalue GAMMA=   1.1929
  2.6788  2.1896  1.9774  0.6665  0.6665  0.5742  0.5742  0.2155

 Free energy of the ion-electron system (eV)
  ---------------------------------------------------
  alpha Z        PSCENC =       307.88348157
  Ewald energy   TEWEN  =     -3888.95920286
  -Hartree energ DENC   =     -1324.90594238
  -exchange      EXHF   =         0.00000000
  -V(xc)+E(xc)   XCENC  =       461.52735816
  PAW double counting   =      2224.82036467    -2266.04848772
  entropy T*S    EENTRO =         0.00000000
  eigenvalues    EBANDS =      -517.77095317
  atomic energy  EATOM  =      4708.94155045
  ---------------------------------------------------
  free energy    TOTEN  =      -294.51183128 eV

  energy without entropy =     -294.51183128  energy(sigma->0) =     -294.51183128


--------------------------------------------------------------------------------------------------------




----------------------------------------- Iteration    1(  14)  ---------------------------------------


    POTLOK:  cpu time    0.81: real time    1.62
    SETDIJ:  cpu time    0.04: real time    0.07
     EDDAV:  cpu time  247.10: real time  494.46
 BZINTS: Fermi energy:  5.041103;128.000000 electrons
         Band energy:-517.709808;  BLOECHL correction:  0.000000
       DOS:  cpu time    0.03: real time    0.07
    CHARGE:  cpu time    5.63: real time   11.26
    MIXING:  cpu time    0.07: real time    0.14
    --------------------------------------------
      LOOP:  cpu time  253.69: real time  507.63

 eigenvalue-minimisations  : 15300
 total energy-change (2. order) :-0.1862124E-03  (-0.1427537E-03)
 number of electron     127.9999995 magnetization 
 augmentation part        3.0609868 magnetization 

 Broyden mixing:
  rms(total) = 0.74456E-02    rms(broyden)= 0.74454E-02
  rms(prec ) = 0.14459E-01
  weight for this iteration     100.00

 eigenvalues of (default mixing * dielectric matrix)
  average eigenvalue GAMMA=   1.2007
  2.8468  2.5021  1.9298  0.9918  0.6800  0.6800  0.4809  0.4809  0.2137

 Free energy of the ion-electron system (eV)
  ---------------------------------------------------
  alpha Z        PSCENC =       307.88348157
  Ewald energy   TEWEN  =     -3888.95920286
  -Hartree energ DENC   =     -1324.97634934
  -exchange      EXHF   =         0.00000000
  -V(xc)+E(xc)   XCENC  =       461.53392427
  PAW double counting   =      2224.09255741    -2265.31817083
  entropy T*S    EENTRO =         0.00000000
  eigenvalues    EBANDS =      -517.70980816
  atomic energy  EATOM  =      4708.94155045
  ---------------------------------------------------
  free energy    TOTEN  =      -294.51201750 eV

  energy without entropy =     -294.51201750  energy(sigma->0) =     -294.51201750


--------------------------------------------------------------------------------------------------------




----------------------------------------- Iteration    1(  15)  ---------------------------------------


    POTLOK:  cpu time    0.85: real time    1.70
    SETDIJ:  cpu time    0.03: real time    0.06
     EDDAV:  cpu time  266.86: real time  533.96
 BZINTS: Fermi energy:  5.041278;128.000000 electrons
         Band energy:-517.673066;  BLOECHL correction:  0.000000
       DOS:  cpu time    0.04: real time    0.10
    CHARGE:  cpu time    5.74: real time   11.48
    MIXING:  cpu time    0.09: real time    0.19
    --------------------------------------------
      LOOP:  cpu time  273.61: real time  547.49

 eigenvalue-minimisations  : 16896
 total energy-change (2. order) :-0.5931441E-04  (-0.4518606E-03)
 number of electron     127.9999995 magnetization 
 augmentation part        3.0610019 magnetization 

 Broyden mixing:
  rms(total) = 0.73231E-02    rms(broyden)= 0.73224E-02
  rms(prec ) = 0.13570E-01
  weight for this iteration     100.00

 eigenvalues of (default mixing * dielectric matrix)
  average eigenvalue GAMMA=   1.1198
  2.8585  2.4825  1.9211  0.9710  0.6464  0.6464  0.6158  0.4214  0.4214  0.2134

 Free energy of the ion-electron system (eV)
  ---------------------------------------------------
  alpha Z        PSCENC =       307.88348157
  Ewald energy   TEWEN  =     -3888.95920286
  -Hartree energ DENC   =     -1325.01771757
  -exchange      EXHF   =         0.00000000
  -V(xc)+E(xc)   XCENC  =       461.53754004
  PAW double counting   =      2223.75500711    -2264.97967003
  entropy T*S    EENTRO =         0.00000000
  eigenvalues    EBANDS =      -517.67306553
  atomic energy  EATOM  =      4708.94155045
  ---------------------------------------------------
  free energy    TOTEN  =      -294.51207681 eV

  energy without entropy =     -294.51207681  energy(sigma->0) =     -294.51207681


--------------------------------------------------------------------------------------------------------




----------------------------------------- Iteration    1(  16)  ---------------------------------------


    POTLOK:  cpu time    0.85: real time    1.70
    SETDIJ:  cpu time    0.05: real time    0.09
     EDDAV:  cpu time  256.80: real time  513.80
 BZINTS: Fermi energy:  5.041490;128.000000 electrons
         Band energy:-517.678329;  BLOECHL correction:  0.000000
       DOS:  cpu time    0.03: real time    0.05
    CHARGE:  cpu time    5.53: real time   11.07
    MIXING:  cpu time    0.04: real time    0.07
    --------------------------------------------
      LOOP:  cpu time  263.31: real time  526.80

 eigenvalue-minimisations  : 16344
 total energy-change (2. order) : 0.1424688E-03  (-0.6027225E-04)
 number of electron     127.9999995 magnetization 
 augmentation part        3.0609879 magnetization 

 Broyden mixing:
  rms(total) = 0.22323E-02    rms(broyden)= 0.22322E-02
  rms(prec ) = 0.40010E-02
  weight for this iteration     100.00

 eigenvalues of (default mixing * dielectric matrix)
  average eigenvalue GAMMA=   1.1604
  2.8832  2.4874  1.8444  1.5417  0.9105  0.8269  0.5617  0.5617  0.4667  0.4667
  0.2135

 Free energy of the ion-electron system (eV)
  ---------------------------------------------------
  alpha Z        PSCENC =       307.88348157
  Ewald energy   TEWEN  =     -3888.95920286
  -Hartree energ DENC   =     -1325.01259781
  -exchange      EXHF   =         0.00000000
  -V(xc)+E(xc)   XCENC  =       461.53711077
  PAW double counting   =      2223.73570293    -2264.95965002
  entropy T*S    EENTRO =         0.00000000
  eigenvalues    EBANDS =      -517.67832938
  atomic energy  EATOM  =      4708.94155045
  ---------------------------------------------------
  free energy    TOTEN  =      -294.51193434 eV

  energy without entropy =     -294.51193434  energy(sigma->0) =     -294.51193434


--------------------------------------------------------------------------------------------------------




----------------------------------------- Iteration    1(  17)  ---------------------------------------


    POTLOK:  cpu time    0.85: real time    1.70
    SETDIJ:  cpu time    0.06: real time    0.13
     EDDAV:  cpu time  270.53: real time  541.33
 BZINTS: Fermi energy:  5.041573;128.000000 electrons
         Band energy:-517.683272;  BLOECHL correction:  0.000000
       DOS:  cpu time    0.04: real time    0.07
    CHARGE:  cpu time    5.80: real time   11.60
    MIXING:  cpu time    0.04: real time    0.09
    --------------------------------------------
      LOOP:  cpu time  277.33: real time  554.95

 eigenvalue-minimisations  : 17292
 total energy-change (2. order) : 0.1512248E-05  (-0.2312777E-04)
 number of electron     127.9999995 magnetization 
 augmentation part        3.0610005 magnetization 

 Broyden mixing:
  rms(total) = 0.18598E-02    rms(broyden)= 0.18594E-02
  rms(prec ) = 0.34279E-02
  weight for this iteration     100.00

 eigenvalues of (default mixing * dielectric matrix)
  average eigenvalue GAMMA=   1.1082
  2.8715  2.5020  1.8407  1.5339  0.8911  0.7458  0.7458  0.5002  0.5002  0.4770
  0.4770  0.2135

 Free energy of the ion-electron system (eV)
  ---------------------------------------------------
  alpha Z        PSCENC =       307.88348157
  Ewald energy   TEWEN  =     -3888.95920286
  -Hartree energ DENC   =     -1325.00775537
  -exchange      EXHF   =         0.00000000
  -V(xc)+E(xc)   XCENC  =       461.53661543
  PAW double counting   =      2223.68195663    -2264.90530707
  entropy T*S    EENTRO =         0.00000000
  eigenvalues    EBANDS =      -517.68327162
  atomic energy  EATOM  =      4708.94155045
  ---------------------------------------------------
  free energy    TOTEN  =      -294.51193283 eV

  energy without entropy =     -294.51193283  energy(sigma->0) =     -294.51193283


--------------------------------------------------------------------------------------------------------




----------------------------------------- Iteration    1(  18)  ---------------------------------------


    POTLOK:  cpu time    0.89: real time    1.78
    SETDIJ:  cpu time    0.03: real time    0.05
     EDDAV:  cpu time  237.80: real time  475.84
 BZINTS: Fermi energy:  5.041456;128.000000 electrons
         Band energy:-517.682157;  BLOECHL correction:  0.000000
       DOS:  cpu time    0.03: real time    0.06
    CHARGE:  cpu time    5.66: real time   11.31
    MIXING:  cpu time    0.11: real time    0.22
    --------------------------------------------
      LOOP:  cpu time  244.51: real time  489.27

 eigenvalue-minimisations  : 14568
 total energy-change (2. order) : 0.2927016E-05  (-0.5236812E-05)
 number of electron     127.9999995 magnetization 
 augmentation part        3.0609993 magnetization 

 Broyden mixing:
  rms(total) = 0.10926E-02    rms(broyden)= 0.10926E-02
  rms(prec ) = 0.19724E-02
  weight for this iteration     100.00

 eigenvalues of (default mixing * dielectric matrix)
  average eigenvalue GAMMA=   1.1185
  2.8917  2.4880  1.8687  1.4318  1.1368  1.1368  0.8075  0.5341  0.5341  0.5531
  0.4720  0.4720  0.2135

 Free energy of the ion-electron system (eV)
  ---------------------------------------------------
  alpha Z        PSCENC =       307.88348157
  Ewald energy   TEWEN  =     -3888.95920286
  -Hartree energ DENC   =     -1325.00893045
  -exchange      EXHF   =         0.00000000
  -V(xc)+E(xc)   XCENC  =       461.53663817
  PAW double counting   =      2223.66960248    -2264.89291242
  entropy T*S    EENTRO =         0.00000000
  eigenvalues    EBANDS =      -517.68215685
  atomic energy  EATOM  =      4708.94155045
  ---------------------------------------------------
  free energy    TOTEN  =      -294.51192990 eV

  energy without entropy =     -294.51192990  energy(sigma->0) =     -294.51192990


--------------------------------------------------------------------------------------------------------




----------------------------------------- Iteration    1(  19)  ---------------------------------------


    POTLOK:  cpu time    1.05: real time    2.10
    SETDIJ:  cpu time    0.03: real time    0.06
     EDDAV:  cpu time  280.49: real time  561.17
 BZINTS: Fermi energy:  5.041333;128.000000 electrons
         Band energy:-517.674219;  BLOECHL correction:  0.000000
       DOS:  cpu time    0.03: real time    0.05
    CHARGE:  cpu time    5.43: real time   10.86
    MIXING:  cpu time    0.02: real time    0.04
    --------------------------------------------
      LOOP:  cpu time  287.05: real time  574.29

 eigenvalue-minimisations  : 18132
 total energy-change (2. order) : 0.5364200E-08  (-0.5923800E-05)
 number of electron     127.9999995 magnetization 
 augmentation part        3.0609930 magnetization 

 Broyden mixing:
  rms(total) = 0.10586E-02    rms(broyden)= 0.10585E-02
  rms(prec ) = 0.17883E-02
  weight for this iteration     100.00

 eigenvalues of (default mixing * dielectric matrix)
  average eigenvalue GAMMA=   1.1546
  2.8846  2.4793  1.9928  1.8302  1.8302  1.0357  0.6859  0.6354  0.6354  0.5153
  0.5153  0.4552  0.4552  0.2135

 Free energy of the ion-electron system (eV)
  ---------------------------------------------------
  alpha Z        PSCENC =       307.88348157
  Ewald energy   TEWEN  =     -3888.95920286
  -Hartree energ DENC   =     -1325.01725545
  -exchange      EXHF   =         0.00000000
  -V(xc)+E(xc)   XCENC  =       461.53715005
  PAW double counting   =      2223.67404671    -2264.89748118
  entropy T*S    EENTRO =         0.00000000
  eigenvalues    EBANDS =      -517.67421920
  atomic energy  EATOM  =      4708.94155045
  ---------------------------------------------------
  free energy    TOTEN  =      -294.51192990 eV

  energy without entropy =     -294.51192990  energy(sigma->0) =     -294.51192990


--------------------------------------------------------------------------------------------------------




----------------------------------------- Iteration    1(  20)  ---------------------------------------


    POTLOK:  cpu time    0.88: real time    1.76
    SETDIJ:  cpu time    0.03: real time    0.06
     EDDAV:  cpu time  238.64: real time  477.51
 BZINTS: Fermi energy:  5.041265;128.000000 electrons
         Band energy:-517.666799;  BLOECHL correction:  0.000000
       DOS:  cpu time    0.03: real time    0.06
    CHARGE:  cpu time    6.01: real time   12.04
    MIXING:  cpu time    0.10: real time    0.19
    --------------------------------------------
      LOOP:  cpu time  245.69: real time  491.64

 eigenvalue-minimisations  : 14592
 total energy-change (2. order) : 0.1610101E-05  (-0.1184474E-05)
 number of electron     127.9999995 magnetization 
 augmentation part        3.0609904 magnetization 

 Broyden mixing:
  rms(total) = 0.46538E-03    rms(broyden)= 0.46536E-03
  rms(prec ) = 0.89337E-03
  weight for this iteration     100.00

 eigenvalues of (default mixing * dielectric matrix)
  average eigenvalue GAMMA=   1.1622
  3.1256  2.6554  2.4578  1.9105  1.1234  1.1234  0.8586  0.6836  0.6836  0.5351
  0.5351  0.6241  0.4519  0.4519  0.2135

 Free energy of the ion-electron system (eV)
  ---------------------------------------------------
  alpha Z        PSCENC =       307.88348157
  Ewald energy   TEWEN  =     -3888.95920286
  -Hartree energ DENC   =     -1325.02500641
  -exchange      EXHF   =         0.00000000
  -V(xc)+E(xc)   XCENC  =       461.53758315
  PAW double counting   =      2223.67587258    -2264.89940744
  entropy T*S    EENTRO =         0.00000000
  eigenvalues    EBANDS =      -517.66679933
  atomic energy  EATOM  =      4708.94155045
  ---------------------------------------------------
  free energy    TOTEN  =      -294.51192829 eV

  energy without entropy =     -294.51192829  energy(sigma->0) =     -294.51192829


--------------------------------------------------------------------------------------------------------




----------------------------------------- Iteration    1(  21)  ---------------------------------------


    POTLOK:  cpu time    0.86: real time    1.73
    SETDIJ:  cpu time    0.05: real time    0.09
     EDDAV:  cpu time  248.76: real time  497.78
 BZINTS: Fermi energy:  5.041200;128.000000 electrons
         Band energy:-517.665660;  BLOECHL correction:  0.000000
       DOS:  cpu time    0.04: real time    0.06
    CHARGE:  cpu time    5.73: real time   11.49
    MIXING:  cpu time    0.05: real time    0.11
    --------------------------------------------
      LOOP:  cpu time  255.51: real time  511.28

 eigenvalue-minimisations  : 15240
 total energy-change (2. order) : 0.4305730E-06  (-0.1727447E-06)
 number of electron     127.9999995 magnetization 
 augmentation part        3.0609916 magnetization 

 Broyden mixing:
  rms(total) = 0.17452E-03    rms(broyden)= 0.17450E-03
  rms(prec ) = 0.32121E-03
  weight for this iteration     100.00

 eigenvalues of (default mixing * dielectric matrix)
  average eigenvalue GAMMA=   1.1391
  3.0790  2.6491  2.4155  1.9044  1.2884  1.0523  0.8272  0.8272  0.6774  0.6774
  0.6473  0.5306  0.5306  0.4526  0.4526  0.2135

 Free energy of the ion-electron system (eV)
  ---------------------------------------------------
  alpha Z        PSCENC =       307.88348157
  Ewald energy   TEWEN  =     -3888.95920286
  -Hartree energ DENC   =     -1325.02627130
  -exchange      EXHF   =         0.00000000
  -V(xc)+E(xc)   XCENC  =       461.53761363
[...]
     79      12.9245      0.00000
     80      12.9283      0.00000
     81      13.0033      0.00000
     82      13.0076      0.00000
     83      13.3220      0.00000
     84      13.3236      0.00000

 k-point    75 :       0.3333    0.5000    0.5000
  band No.  band energies     occupation 
      1     -13.4193      2.00000
      2     -13.4189      2.00000
      3     -13.1471      2.00000
      4     -13.1467      2.00000
      5     -12.4462      2.00000
      6     -12.4458      2.00000
      7     -12.1901      2.00000
      8     -12.1898      2.00000
      9     -11.4843      2.00000
     10     -11.4840      2.00000
     11     -11.2445      2.00000
     12     -11.2441      2.00000
     13      -8.7995      2.00000
     14      -8.7990      2.00000
     15      -8.6205      2.00000
     16      -8.6199      2.00000
     17      -6.9144      2.00000
     18      -6.9117      2.00000
     19      -6.7934      2.00000
     20      -6.7906      2.00000
     21      -4.6095      2.00000
     22      -4.6071      2.00000
     23      -4.5137      2.00000
     24      -4.5114      2.00000
     25      -4.4441      2.00000
     26      -4.4427      2.00000
     27      -4.3392      2.00000
     28      -4.3375      2.00000
     29      -3.4701      2.00000
     30      -3.4680      2.00000
     31      -3.3578      2.00000
     32      -3.3558      2.00000
     33      -2.4048      2.00000
     34      -2.4029      2.00000
     35      -2.3310      2.00000
     36      -2.3294      2.00000
     37      -1.9560      2.00000
     38      -1.9548      2.00000
     39      -1.3758      2.00000
     40      -1.3714      2.00000
     41      -1.3040      2.00000
     42      -1.3000      2.00000
     43      -0.8513      2.00000
     44      -0.8489      2.00000
     45      -0.8070      2.00000
     46      -0.8057      2.00000
     47      -0.7889      2.00000
     48      -0.7862      2.00000
     49      -0.3475      2.00000
     50      -0.3459      2.00000
     51       0.0409      2.00000
     52       0.0451      2.00000
     53       0.0875      2.00000
     54       0.0926      2.00000
     55       0.3109      2.00000
     56       0.3123      2.00000
     57       0.7140      2.00000
     58       0.7157      2.00000
     59       1.7322      2.00000
     60       1.7338      2.00000
     61       3.2381      2.00000
     62       3.2405      2.00000
     63       4.1341      2.00000
     64       4.1370      2.00000
     65       6.1441      0.00000
     66       6.1476      0.00000
     67       6.6225      0.00000
     68       6.6263      0.00000
     69       9.1997      0.00000
     70       9.2015      0.00000
     71       9.7587      0.00000
     72       9.7611      0.00000
     73      10.6627      0.00000
     74      10.6658      0.00000
     75      11.2985      0.00000
     76      11.3007      0.00000
     77      11.9092      0.00000
     78      11.9114      0.00000
     79      12.9207      0.00000
     80      12.9251      0.00000
     81      13.0026      0.00000
     82      13.0071      0.00000
     83      13.3209      0.00000
     84      13.3229      0.00000

 k-point    76 :       0.5000    0.5000    0.5000
  band No.  band energies     occupation 
      1     -13.0963      2.00000
      2     -13.0933      2.00000
      3     -13.0932      2.00000
      4     -13.0904      2.00000
      5     -12.8294      2.00000
      6     -12.8264      2.00000
      7     -12.8264      2.00000
      8     -12.8235      2.00000
      9     -10.2440      2.00000
     10     -10.2422      2.00000
     11     -10.2422      2.00000
     12     -10.2404      2.00000
     13     -10.0263      2.00000
     14     -10.0246      2.00000
     15     -10.0245      2.00000
     16     -10.0226      2.00000
     17      -5.4709      2.00000
     18      -5.4709      2.00000
     19      -5.4704      2.00000
     20      -5.4665      2.00000
     21      -5.3948      2.00000
     22      -5.3948      2.00000
     23      -5.3943      2.00000
     24      -5.3897      2.00000
     25      -3.8811      2.00000
     26      -3.8780      2.00000
     27      -3.8765      2.00000
     28      -3.8765      2.00000
     29      -3.8243      2.00000
     30      -3.8218      2.00000
     31      -3.8204      2.00000
     32      -3.8204      2.00000
     33      -2.3883      2.00000
     34      -2.3821      2.00000
     35      -2.3821      2.00000
     36      -2.3817      2.00000
     37      -2.2863      2.00000
     38      -2.2808      2.00000
     39      -2.2807      2.00000
     40      -2.2803      2.00000
     41      -1.5711      2.00000
     42      -1.5689      2.00000
     43      -1.5688      2.00000
     44      -1.5657      2.00000
     45       0.0087      2.00000
     46       0.0112      2.00000
     47       0.0114      2.00000
     48       0.0149      2.00000
     49       0.0444      2.00000
     50       0.0461      2.00000
     51       0.0461      2.00000
     52       0.0533      2.00000
     53       0.0954      2.00000
     54       0.0969      2.00000
     55       0.0969      2.00000
     56       0.1069      2.00000
     57       1.7177      2.00000
     58       1.7211      2.00000
     59       1.7214      2.00000
     60       1.7227      2.00000
     61       2.9752      2.00000
     62       2.9794      2.00000
     63       2.9797      2.00000
     64       2.9810      2.00000
     65       7.5957      0.00000
     66       7.5968      0.00000
     67       7.5971      0.00000
     68       7.6015      0.00000
     69       8.1303      0.00000
     70       8.1313      0.00000
     71       8.1317      0.00000
     72       8.1372      0.00000
     73      11.8895      0.00000
     74      11.8998      0.00000
     75      11.9019      0.00000
     76      11.9096      0.00000
     77      12.3468      0.00000
     78      12.3586      0.00000
     79      12.3605      0.00000
     80      12.3698      0.00000
     81      12.5578      0.00000
     82      12.5609      0.00000
     83      12.5614      0.00000
     84      12.5648      0.00000


--------------------------------------------------------------------------------------------------------


 soft charge-density along one line, spin component           1
         0         1         2         3         4         5         6         7         8         9
 total charge-density along one line
 
 pseudopotential strength for first ion, spin component:           1
  9.749   0.004  -0.000  -0.000   0.000   0.000   0.000  -0.000
  0.004  -0.002   0.000   0.000   0.000   0.000   0.000  -0.000
 -0.000   0.000  -3.925   0.000   0.000  -0.015   0.000   0.000
 -0.000   0.000   0.000  -3.919   0.000   0.000  -0.012   0.000
  0.000   0.000   0.000   0.000  -3.925   0.000   0.000  -0.015
  0.000   0.000  -0.015   0.000   0.000  -0.763   0.000   0.000
  0.000   0.000   0.000  -0.012   0.000   0.000  -0.763  -0.000
 -0.000  -0.000   0.000   0.000  -0.015   0.000  -0.000  -0.763
 total augmentation occupancy for first ion, spin component:           1
  1.470  -1.120   0.000   0.000   0.003   0.000  -0.001   0.001
 -1.120   1.058  -0.000   0.006  -0.002  -0.000   0.002  -0.001
  0.000  -0.000   1.222   0.000  -0.002   0.228  -0.000  -0.001
  0.000   0.006   0.000   0.925  -0.000  -0.000   0.104  -0.000
  0.003  -0.002  -0.002  -0.000   1.222  -0.001  -0.000   0.228
  0.000  -0.000   0.228  -0.000  -0.001   0.048  -0.000  -0.000
 -0.001   0.002  -0.000   0.104  -0.000  -0.000   0.013  -0.000
  0.001  -0.001  -0.001  -0.000   0.228  -0.000  -0.000   0.048


------------------------ aborting loop because EDIFF is reached ----------------------------------------


    CHARGE:  cpu time    5.47: real time   10.96
    FORLOC:  cpu time    0.09: real time    0.19
    FORNL :  cpu time   32.53: real time   65.07
    STRESS:  cpu time   56.80: real time  113.65
    FORHAR:  cpu time    0.25: real time    0.51
    MIXING:  cpu time    0.03: real time    0.05
    OFIELD:  cpu time    0.00: real time    0.00

 ---------------------------------------------------------------------------------------------

         DFTD3 V3.0 Rev 1        
 IVDW         = 12
 DF pbe       
 parameters
 VDW_S6       =    1.0000
 VDW_S8       =    0.7875
 VDW_A1       =    0.4289
 VDW_A2       =    4.4407
 k1-k3        =   16.0000    1.3333   -4.0000
 VDW_RADIUS   =   50.2022 A
 VDW_CNRADIUS =   21.1671 A
 Edisp (eV)   -5.25772

 E6    (eV) :    -3.7594
 E8    (eV) :    -1.4983
 % E8        : 28.50
    FORVDW:  cpu time    0.25: real time    0.51

  FORCE on cell =-STRESS in cart. coord.  units (eV):
  Direction    XX          YY          ZZ          XY          YZ          ZX
  --------------------------------------------------------------------------------------
  Alpha Z   307.88348   307.88348   307.88348
  Ewald     415.24355   414.75581 -4718.97563    -1.20572    -0.00060    -0.00737
  Hartree  1144.89269  1144.89011  -964.75704    -0.11055    -0.00022    -0.00148
  E(xc)    -468.02393  -468.03091  -484.55966    -0.00904    -0.00004     0.00002
  Local   -3198.85385 -3198.45797  3777.14250     1.08613     0.00013     0.00773
  n-local  -111.61857  -111.73063  -102.71987    -0.10279    -0.00061     0.00069
  augment   -12.36933   -12.36846   -11.33787     0.00199     0.00001     0.00000
  Kinetic  1922.71168  1923.48382  2206.47905     0.79856     0.00780    -0.00745
  Fock        0.00000     0.00000     0.00000     0.00000     0.00000     0.00000
  vdW        -0.68766    -0.67707    -6.11862     0.00962     0.00000    -0.00002
  -------------------------------------------------------------------------------------
  Total      -0.82195    -0.25182     3.03634     0.46820     0.00647    -0.00788
  in kB      -4.85951    -1.48879    17.95126     2.76805     0.03828    -0.04659
  external pressure =        3.87 kB  Pullay stress =        0.00 kB


 VOLUME and BASIS-vectors are now :
 -----------------------------------------------------------------------------
  energy-cutoff  :      800.00
  volume of cell :      271.00
      direct lattice vectors                 reciprocal lattice vectors
     4.932874498 -0.001919286  0.000000000     0.202767147  0.117172881  0.000000000
    -2.468099399  4.271034986  0.000000000     0.000091118  0.234187941  0.000000000
     0.000000000  0.000000000 12.865596413     0.000000000  0.000000000  0.077726673

  length of vectors
     4.932874871  4.932874871 12.865596413     0.234187958  0.234187958  0.077726673


 FORCES acting on ions
    electron-ion (+dipol)            ewald-force                    non-local-force                 convergence-correction
 -----------------------------------------------------------------------------------------------
   0.668E+00 0.623E-01 -.158E+01   -.795E+00 -.573E-01 0.161E+01   -.103E+00 0.300E-02 -.167E+00   -.117E-05 0.148E-05 -.629E-03
   -.320E+00 0.659E-01 0.380E+00   0.333E+00 -.619E-01 -.362E+00   0.143E-01 0.289E-02 -.183E-01   -.418E-06 0.104E-05 -.624E-03
   -.139E+00 0.170E+00 0.380E+00   0.127E+00 -.181E+00 -.362E+00   0.308E-02 -.364E-02 -.183E-01   -.124E-05 0.215E-06 -.624E-03
   -.139E+00 -.386E-01 0.381E+00   0.126E+00 0.579E-01 -.362E+00   0.316E-02 0.925E-02 -.183E-01   -.125E-05 0.687E-06 -.624E-03
   -.114E+00 0.658E-01 -.101E+00   0.107E+00 -.617E-01 0.101E+00   -.498E-02 0.278E-02 0.529E-02   0.104E-05 0.554E-07 0.642E-03
   -.115E+00 0.658E-01 -.995E-01   0.107E+00 -.617E-01 0.995E-01   -.500E-02 0.278E-02 0.536E-02   0.161E-05 -.190E-06 0.642E-03
   -.114E+00 0.658E-01 -.995E-01   0.107E+00 -.618E-01 0.995E-01   -.499E-02 0.278E-02 0.536E-02   0.161E-05 0.324E-06 0.642E-03
   -.114E+00 0.657E-01 -.995E-01   0.107E+00 -.616E-01 0.995E-01   -.499E-02 0.277E-02 0.536E-02   0.792E-06 0.719E-06 0.642E-03
   0.114E+00 -.712E-01 -.835E-01   -.107E+00 0.670E-01 0.830E-01   0.482E-02 -.303E-02 -.540E-02   -.804E-06 0.763E-06 -.757E-04
   0.114E+00 -.611E-01 -.832E-01   -.107E+00 0.566E-01 0.829E-01   0.468E-02 -.283E-02 -.577E-02   -.119E-05 -.763E-06 -.751E-04
   0.105E+00 -.659E-01 -.833E-01   -.977E-01 0.617E-01 0.829E-01   0.458E-02 -.280E-02 -.558E-02   0.544E-07 0.114E-05 -.752E-04
   0.124E+00 -.660E-01 -.154E+00   -.117E+00 0.616E-01 0.154E+00   0.485E-02 -.289E-02 -.535E-02   -.179E-05 0.607E-06 -.749E-04
   0.114E+00 -.704E-01 -.836E-01   -.107E+00 0.669E-01 0.832E-01   0.485E-02 -.274E-02 -.581E-02   -.544E-06 0.508E-06 0.693E-04
   0.114E+00 -.602E-01 -.839E-01   -.107E+00 0.564E-01 0.832E-01   0.500E-02 -.253E-02 -.544E-02   -.687E-06 0.350E-06 0.692E-04
   0.105E+00 -.655E-01 -.838E-01   -.977E-01 0.617E-01 0.832E-01   0.475E-02 -.275E-02 -.563E-02   -.925E-06 0.166E-05 0.694E-04
   0.124E+00 -.655E-01 -.153E+00   -.117E+00 0.618E-01 0.153E+00   0.502E-02 -.267E-02 -.515E-02   -.676E-06 0.875E-06 0.697E-04
   0.298E-01 -.648E-01 0.318E+00   -.267E-01 0.616E-01 -.315E+00   0.458E-02 -.235E-02 0.100E-01   0.461E-06 -.723E-06 -.624E-03
   0.354E+00 -.564E-01 0.837E+00   -.348E+00 0.523E-01 -.869E+00   0.301E-01 -.215E-02 0.782E-01   0.103E-05 -.775E-06 -.624E-03
   -.238E+00 -.405E+00 0.833E+00   0.299E+00 0.433E+00 -.864E+00   0.219E-01 -.695E-02 0.780E-01   -.366E-07 -.143E-06 -.624E-03
   -.227E+00 0.272E+00 0.841E+00   0.288E+00 -.306E+00 -.873E+00   0.230E-01 0.179E-02 0.786E-01   0.623E-06 0.226E-06 -.624E-03
   0.112E+00 -.644E-01 -.996E-01   -.106E+00 0.613E-01 0.993E-01   0.419E-02 -.233E-02 -.127E-02   -.130E-05 -.204E-07 0.642E-03
   0.112E+00 -.644E-01 -.100E+00   -.106E+00 0.613E-01 0.999E-01   0.419E-02 -.233E-02 -.125E-02   -.185E-05 0.682E-06 0.641E-03
   0.112E+00 -.644E-01 -.100E+00   -.106E+00 0.614E-01 0.999E-01   0.419E-02 -.233E-02 -.125E-02   -.211E-05 -.140E-06 0.642E-03
   0.112E+00 -.643E-01 -.100E+00   -.106E+00 0.613E-01 0.999E-01   0.419E-02 -.233E-02 -.125E-02   -.127E-05 -.386E-06 0.641E-03
   -.874E-01 0.534E-01 -.976E-01   0.815E-01 -.499E-01 0.973E-01   -.400E-02 0.249E-02 0.196E-02   0.154E-05 -.111E-05 -.748E-04
   -.137E+00 0.477E-01 -.116E+00   0.132E+00 -.439E-01 0.116E+00   -.406E-02 0.235E-02 0.154E-02   0.185E-05 -.334E-06 -.750E-04
   -.107E+00 0.931E-01 -.107E+00   0.101E+00 -.903E-01 0.107E+00   -.391E-02 0.248E-02 0.176E-02   0.760E-06 -.139E-05 -.747E-04
   -.116E+00 0.646E-01 -.771E-01   0.110E+00 -.612E-01 0.768E-01   -.422E-02 0.244E-02 0.926E-03   0.292E-05 -.153E-05 -.749E-04
   -.136E+00 0.809E-01 -.116E+00   0.131E+00 -.786E-01 0.116E+00   -.402E-02 0.228E-02 0.157E-02   0.336E-06 -.277E-06 0.696E-04
   -.877E-01 0.751E-01 -.976E-01   0.819E-01 -.725E-01 0.972E-01   -.400E-02 0.215E-02 0.196E-02   0.127E-05 -.547E-06 0.697E-04
   -.107E+00 0.359E-01 -.107E+00   0.101E+00 -.328E-01 0.107E+00   -.390E-02 0.220E-02 0.174E-02   0.612E-06 -.109E-05 0.692E-04
   -.116E+00 0.640E-01 -.776E-01   0.111E+00 -.614E-01 0.772E-01   -.421E-02 0.221E-02 0.956E-03   0.634E-06 -.125E-05 0.693E-04
 -----------------------------------------------------------------------------------------------
   -.109E-04 0.155E-04 -.778E-02   0.387E-14 -.148E-13 0.107E-12   0.225E-04 -.144E-04 0.774E-02   -.109E-06 0.669E-06 0.908E-04
 
 
 POSITION                                       TOTAL-FORCE (eV/Angst)
 -----------------------------------------------------------------------------------
      2.46760      0.00044      1.61754        -0.231909      0.008021     -0.131082
      4.93046     -0.00052      1.60820         0.029069      0.006957     -0.000708
      1.22997      2.13595      1.60820        -0.009172     -0.015135     -0.000637
      3.69641      2.13499      1.60820        -0.009290      0.029185     -0.000865
      2.46402      0.00044      8.04100        -0.012572      0.006824      0.005914
      4.93046     -0.00052      8.04100        -0.012525      0.006826      0.005978
      1.22997      2.13595      8.04100        -0.012546      0.006813      0.005978
      3.69641      2.13499      8.04100        -0.012544      0.006836      0.005979
     -1.23163      2.13412      4.82460         0.011849     -0.007317     -0.006042
      1.23481      2.13316      4.82460         0.011529     -0.007423     -0.006161
     -2.46568      4.26964      4.82460         0.011780     -0.007088     -0.006098
      0.00076      4.26868      4.82460         0.011569     -0.007292     -0.005159
     -1.23163      2.13412     11.25740         0.012196     -0.006249     -0.006217
      1.23481      2.13316     11.25740         0.012477     -0.006333     -0.006107
     -2.46568      4.26964     11.25740         0.012405     -0.006546     -0.006165
      0.00076      4.26868     11.25740         0.012201     -0.006391     -0.005006
     -0.00332      1.42496      1.60820         0.007905     -0.005539      0.011755
      2.46311      1.42400      1.60820         0.036349     -0.006251      0.045741
     -1.23737      3.56047      1.60820         0.083341      0.021473      0.046172
      1.22906      3.55952      1.60820         0.083641     -0.032887      0.045229
     -0.00332      1.42496      8.04100         0.010051     -0.005433     -0.000900
      2.46311      1.42400      8.04100         0.010052     -0.005432     -0.000869
     -1.23737      3.56047      8.04100         0.010052     -0.005433     -0.000870
      1.22906      3.55952      8.04100         0.010052     -0.005433     -0.000866
      1.23571      0.70960      4.82460        -0.009946      0.006080      0.001622
      3.70215      0.70864      4.82460        -0.008974      0.006228      0.001686
      0.00166      2.84512      4.82460        -0.009590      0.005329      0.001662
      2.46810      2.84416      4.82460        -0.009354      0.005873      0.000575
      1.23571      0.70960     11.25740        -0.009112      0.004623      0.001683
      3.70215      0.70864     11.25740        -0.009904      0.004783      0.001588
      0.00166      2.84512     11.25740        -0.009649      0.005396      0.001608
      2.46810      2.84416     11.25740        -0.009430      0.004936      0.000581
 -----------------------------------------------------------------------------------
    total drift:                                0.000011      0.000002      0.000046


--------------------------------------------------------------------------------------------------------



  FREE ENERGIE OF THE ION-ELECTRON SYSTEM (eV)
  ---------------------------------------------------
  free  energy   TOTEN  =      -299.76964438 eV

  energy  without entropy=     -299.76964438  energy(sigma->0) =     -299.76964438
 


--------------------------------------------------------------------------------------------------------


    POTLOK:  cpu time    1.01: real time    2.01


--------------------------------------------------------------------------------------------------------


     LOOP+:  cpu time 6335.05: real time11395.88
    4ORBIT:  cpu time    0.00: real time    0.00
 BZINTS: Fermi energy:  5.040879;128.000000 electrons
         Band energy:-517.665744;  BLOECHL correction:  0.000000

 total amount of memory used by VASP on root node   389842. kBytes
========================================================================

   base      :      30000. kBytes
   nonl-proj :      75091. kBytes
   fftplans  :      13581. kBytes
   grid      :      28889. kBytes
   one-center:         98. kBytes
   wavefun   :     242183. kBytes
 
  
  
 General timing and accounting informations for this job:
 ========================================================
  
                  Total CPU time used (sec):     6414.515
                            User time (sec):     3628.290
                          System time (sec):     2786.224
                         Elapsed time (sec):    11516.709
  
                   Maximum memory used (kb):      480140.
                   Average memory used (kb):           0.
  
                          Minor page faults:     48927745
                          Major page faults:            0
                 Voluntary context switches:         1094
