32   
4    

1    
  0.0049423945225852   0.0000000031240906   0.0086932580994188
   0.0124862600   -0.0019704700   -0.0938412800
   0.0303351300   -0.0001880700    0.0010445900
   0.0299885000   -0.0003453400    0.0010073300
   0.0300549300    0.0000173500    0.0010791300
  -0.0020523300    0.0000024100   -0.0014844100
  -0.0004473800   -0.0000022800    0.0052927500
  -0.0019038000   -0.0008390800    0.0052889100
  -0.0019292800    0.0008551100    0.0053001000
   0.0061342800   -0.0000266100   -0.0007327600
   0.0033487500   -0.0001853600   -0.0005240800
   0.0016190900   -0.0010138500   -0.0004656700
   0.0012420600    0.0012001700   -0.0006801400
   0.0060008900   -0.0000268200    0.0000394300
   0.0033054000    0.0002683400   -0.0006819300
   0.0011776300   -0.0012427800   -0.0007496600
   0.0015873300    0.0009766900   -0.0005165000
  -0.0236992200    0.0005084900    0.0086746500
  -0.0056536200    0.0000873100    0.0059513800
  -0.0395832200    0.0094519300    0.0089534500
  -0.0371969800   -0.0075166600    0.0084155200
   0.0026544700   -0.0000315300   -0.0013299400
   0.0013925900   -0.0000022400    0.0012294800
   0.0014687900    0.0006658400   -0.0013304700
   0.0015346500   -0.0006647300   -0.0013294300
  -0.0061349400   -0.0033703000    0.0080015800
  -0.0030148900    0.0015302900    0.0089411300
  -0.0015669300   -0.0000205000    0.0003604300
  -0.0003309400    0.0018715800    0.0084524700
  -0.0029301400   -0.0015296400    0.0088569100
  -0.0060706600    0.0033008400    0.0079801600
  -0.0014995400   -0.0000174900    0.0003610500
  -0.0003168700   -0.0017425700    0.0084358000

1    
 -0.0049423945225852  -0.0000000031240906  -0.0086932580994188
  -0.0125319500   -0.0019678300    0.0938302500
  -0.0302751100   -0.0001881000   -0.0010434000
  -0.0300086500    0.0000106200   -0.0010816200
  -0.0299430300   -0.0003377700   -0.0010095000
   0.0021175000    0.0000022700    0.0014856300
   0.0005068300   -0.0000028800   -0.0052950500
   0.0019902300    0.0008573400   -0.0052992900
   0.0019641500   -0.0008406100   -0.0052881800
  -0.0060654700   -0.0000267900   -0.0000403200
  -0.0033701600    0.0002710000    0.0006811700
  -0.0016530200    0.0009764700    0.0005147600
  -0.0012389100   -0.0012449300    0.0007491300
  -0.0061987900   -0.0000270700    0.0007311600
  -0.0034150000   -0.0001893700    0.0005233300
  -0.0013025800    0.0012047600    0.0006797500
  -0.0016864400   -0.0010121300    0.0004638600
   0.0236840500    0.0005080200   -0.0086725900
   0.0056113300    0.0000872800   -0.0059486900
   0.0372111600   -0.0075333200   -0.0084129500
   0.0395927900    0.0094651200   -0.0089514100
  -0.0026969200   -0.0000310100    0.0013301600
  -0.0014375400   -0.0000020700   -0.0012307800
  -0.0015777400   -0.0006639100    0.0013294900
  -0.0015124800    0.0006644600    0.0013301500
   0.0061229600    0.0033066000   -0.0079760800
   0.0029737400   -0.0015269400   -0.0088557000
   0.0015446300   -0.0000203400   -0.0003620200
   0.0003605800   -0.0017490800   -0.0084329800
   0.0030579300    0.0015257600   -0.0089393500
   0.0061884600   -0.0033773000   -0.0079977200
   0.0016119000   -0.0000176900   -0.0003614700
   0.0003755700    0.0018794500   -0.0084497300

17   
  0.0049423945225852   0.0000000031240906   0.0086932580994188
  -0.0296596000   -0.0005375600    0.0080592500
  -0.0060574400   -0.0001463600    0.0054318800
  -0.0490636400    0.0108624200    0.0078309700
  -0.0515672100   -0.0129944600    0.0083044600
   0.0030998500    0.0000215700   -0.0011673100
   0.0016102300   -0.0000054800    0.0014633500
   0.0017815500    0.0007700800   -0.0011798500
   0.0017143300   -0.0007899500   -0.0011545800
  -0.0003150500    0.0013648200    0.0079661100
  -0.0017102900   -0.0000022200    0.0003642100
  -0.0040634100    0.0021577300    0.0095238300
  -0.0065607600   -0.0036131400    0.0062288900
  -0.0004165000   -0.0013951100    0.0077686600
  -0.0018236000   -0.0000036700    0.0004782400
  -0.0063355500    0.0034127700    0.0062524600
  -0.0040523600   -0.0021041400    0.0094604200
   0.0443298500    0.0022371900   -0.1263355600
   0.0304828300    0.0001219500    0.0034245400
   0.0318512600    0.0010088800    0.0034577500
   0.0317677300   -0.0005191800    0.0033907700
  -0.0016200100    0.0000030600    0.0025671500
  -0.0014181600   -0.0000061100    0.0018204500
  -0.0023037500   -0.0005167100    0.0018141200
  -0.0023094300    0.0005088100    0.0018270000
  -0.0008937300    0.0015188300    0.0043658900
   0.0011149000   -0.0003459600    0.0055566700
   0.0017239600   -0.0011795500    0.0049417200
   0.0093562900    0.0000897700    0.0013909400
   0.0011991800    0.0002356300    0.0054565500
  -0.0007218600   -0.0013364000    0.0044114800
   0.0015986000    0.0010926100    0.0049512300
   0.0092618400    0.0000898900    0.0013283000

17   
 -0.0049423945225852  -0.0000000031240906  -0.0086932580994188
   0.0297020200   -0.0005377000   -0.0080629200
   0.0061317000   -0.0001458300   -0.0054327400
   0.0515765800   -0.0129770500   -0.0083091800
   0.0490687100    0.0108404000   -0.0078362500
  -0.0030185100    0.0000220100    0.0011695400
  -0.0015309700   -0.0000048700   -0.0014640200
  -0.0016372700   -0.0007898200    0.0011567200
  -0.0017039900    0.0007692100    0.0011819500
   0.0003344200   -0.0013924400   -0.0077720700
   0.0017450600   -0.0000028300   -0.0004777900
   0.0039699000   -0.0021054000   -0.0094595800
   0.0062507000    0.0034096600   -0.0062604700
   0.0002321000    0.0013610800   -0.0079696100
   0.0016321200   -0.0000031900   -0.0003636300
   0.0064758100   -0.0036109000   -0.0062374200
   0.0039817300    0.0021592300   -0.0095223600
  -0.0442428200    0.0022404300    0.1263635500
  -0.0305429900    0.0001220400   -0.0034231600
  -0.0318118200   -0.0005096700   -0.0033899900
  -0.0318952400    0.0009992400   -0.0034572400
   0.0015592200    0.0000031400   -0.0025651900
   0.0013566000   -0.0000059100   -0.0018196200
   0.0022472900    0.0005096000   -0.0018260000
   0.0022416900   -0.0005177300   -0.0018127800
   0.0007819300   -0.0013317500   -0.0044134100
  -0.0011326000    0.0002355500   -0.0054574300
  -0.0015327600    0.0010880400   -0.0049534400
  -0.0091955100    0.0000900700   -0.0013267100
  -0.0010474200   -0.0003457100   -0.0055571100
   0.0009531700    0.0015140600   -0.0043680700
  -0.0016579300   -0.0011735900   -0.0049439900
  -0.0092909100    0.0000906200   -0.0013895800
