   32   32    1    1
  0.8951641E+01  0.4934311E-09  0.4934311E-09  0.1358600E-08  0.5000000E-15
  1.000000000000000E-004
  CAR 
 graphite                                
    128    163     84
 
  0.0000000E+00  0.0000000E+00  0.0000000E+00  0.3086420E-02
    1      -15.046449
    2      -14.914482
    3      -14.914101
    4      -14.773649
    5       -9.732017
    6       -9.729831
    7       -9.727731
    8       -9.678800
    9       -9.675432
   10       -9.674958
   11       -9.674605
   12       -9.674597
   13       -9.670881
   14       -9.629822
   15       -9.628448
   16       -9.626377
   17       -8.660035
   18       -8.656810
   19       -8.655220
   20       -8.631381
   21       -8.627920
   22       -8.626565
   23       -8.626438
   24       -8.626438
   25       -8.622522
   26       -8.583241
   27       -8.580296
   28       -8.577813
   29       -3.878484
   30       -3.043967
   31       -3.042356
   32       -2.032036
   33       -1.832975
   34       -1.830348
   35       -1.826374
   36       -1.809690
   37       -1.806031
   38       -1.806026
   39       -1.805417
   40       -1.802889
   41       -1.799680
   42       -1.782749
   43       -1.780716
   44       -1.776148
   45        1.551489
   46        1.562332
   47        1.564938
   48        1.566644
   49        1.571415
   50        1.573188
   51        1.575695
   52        1.586200
   53        1.833301
   54        1.835505
   55        1.837442
   56        2.207996
   57        2.211565
   58        2.211657
   59        2.211791
   60        2.211980
   61        2.215575
   62        2.476574
   63        2.478017
   64        2.479425
   65        6.069990
   66        6.073905
   67        6.075813
   68        6.213255
   69        6.219227
   70        6.220657
   71        6.221291
   72        6.221636
   73        6.227471
   74        6.710882
   75        6.715576
   76        6.718556
   77        8.771413
   78       11.311462
   79       11.314705
   80       11.769360
   81       11.773036
   82       11.777480
   83       11.945042
   84       11.949933
 
  0.1111111E+00 -0.6938894E-17  0.0000000E+00  0.6172840E-02
    1      -14.972955
    2      -14.841475
    3      -14.841095
    4      -14.701326
    5      -10.521147
    6      -10.427535
    7      -10.427180
    8      -10.330255
    9       -9.977508
   10       -9.975234
   11       -9.897479
   12       -9.895971
   13       -9.895225
   14       -9.892972
   15       -9.815172
   16       -9.812883
   17       -8.353668
   18       -8.350493
   19       -8.290253
   20       -8.287456
   21       -8.285920
   22       -8.285395
   23       -8.217545
   24       -8.214547
   25       -7.837909
   26       -7.765533
   27       -7.763516
   28       -7.687594
   29       -3.789307
   30       -2.957030
   31       -2.955423
   32       -2.057354
   33       -2.052822
   34       -2.030343
   35       -2.029727
   36       -2.026657
   37       -2.023534
   38       -2.002110
   39       -1.997093
   40       -1.948416
   41       -1.759767
   42       -1.736280
   43       -1.733864
   44       -1.710336
   45        1.247184
   46        1.262454
   47        1.272187
   48        1.276794
   49        1.288484
   50        1.396722
   51        1.407553
   52        1.411734
   53        1.420693
   54        1.721010
   55        1.723240
   56        1.783950
   57        1.785879
   58        2.159003
   59        2.159905
   60        2.160031
   61        2.163614
   62        2.315296
   63        2.523744
   64        2.525705
   65        6.149835
   66        6.154058
   67        6.344433
   68        6.350119
   69        6.351529
   70        6.353532
   71        6.454331
   72        6.760480
   73        6.764791
   74        6.844753
   75        6.849485
   76        7.312435
   77        8.860546
   78       11.389696
   79       11.392927
   80       11.811830
   81       11.984848
   82       11.986231
   83       12.105004
   84       12.111210
 
  0.2222222E+00  0.0000000E+00  0.0000000E+00  0.6172840E-02
    1      -14.752638
    2      -14.622876
    3      -14.622500
    4      -14.484670
    5      -11.529900
    6      -11.425327
    7      -11.425014
    8      -11.315736
    9      -10.324053
   10      -10.322094
   11      -10.232920
   12      -10.231390
   13      -10.230829
   14      -10.229042
   15      -10.136608
   16      -10.134615
   17       -7.672595
   18       -7.669485
   19       -7.602831
   20       -7.600315
   21       -7.598637
   22       -7.598127
   23       -7.527016
   24       -7.523939
   25       -6.514814
   26       -6.447199
   27       -6.445322
   28       -6.375202
   29       -3.522477
   30       -2.697218
   31       -2.695623
   32       -2.663334
   33       -2.659130
   34       -2.629731
   35       -2.629329
   36       -2.626458
   37       -2.623400
   38       -2.594603
   39       -2.589990
   40       -1.698529
   41       -1.545293
   42       -1.522306
   43       -1.519749
   44       -1.496689
   45        0.234382
   46        0.436344
   47        0.453759
   48        0.458039
   49        0.476187
   50        0.896577
   51        0.898061
   52        0.978760
   53        0.992510
   54        0.996785
   55        1.009608
   56        1.503736
   57        1.505769
   58        1.645981
   59        2.037597
   60        2.038562
   61        2.038716
   62        2.042236
   63        2.568867
   64        2.571086
   65        6.402794
   66        6.406997
   67        6.677963
   68        6.683302
   69        6.684513
   70        6.686220
   71        7.151817
   72        7.155722
   73        7.589397
   74        7.980748
   75        7.984276
   76        8.522658
   77        9.128632
   78       11.623335
   79       11.626557
   80       11.926854
   81       12.093904
   82       12.095289
   83       12.244610
   84       12.931991
 
  0.3333333E+00 -0.5551115E-16  0.0000000E+00  0.6172840E-02
    1      -14.386742
    2      -14.259811
    3      -14.259441
    4      -14.124808
    5      -12.441259
    6      -12.329415
    7      -12.329069
    8      -12.211343
    9      -10.580639
   10      -10.578836
   11      -10.485262
   12      -10.483657
   13      -10.483314
   14      -10.481645
   15      -10.384255
   16      -10.382420
   17       -6.865960
   18       -6.862779
   19       -6.802015
   20       -6.799269
   21       -6.797522
   22       -6.797203
   23       -6.733055
   24       -6.730046
   25       -5.083187
   26       -5.024795
   27       -5.022723
   28       -4.962633
   29       -3.477746
   30       -3.474044
   31       -3.437853
   32       -3.437728
   33       -3.435316
   34       -3.432205
   35       -3.396433
   36       -3.392368
   37       -3.080710
   38       -2.267764
   39       -2.266185
   40       -1.286512
   41       -1.196850
   42       -1.175042
   43       -1.172265
   44       -1.150020
   45       -0.783634
   46       -0.748094
   47       -0.721041
   48       -0.717141
   49       -0.689851
   50       -0.055336
   51       -0.053910
   52        0.417810
   53        0.434455
   54        0.438319
   55        0.454713
   56        0.799175
   57        1.314647
   58        1.316610
   59        1.913257
   60        1.914308
   61        1.914498
   62        1.917962
   63        2.565519
   64        2.567823
   65        6.764560
   66        6.768264
   67        7.068079
   68        7.073018
   69        7.073906
   70        7.075047
   71        7.460803
   72        7.463887
   73        9.093528
   74        9.456005
   75        9.458963
   76        9.576110
   77        9.931351
   78       11.876932
   79       11.995044
   80       11.998492
   81       12.174099
   82       12.259841
   83       12.261418
   84       12.534741
 
  0.4444444E+00  0.0000000E+00  0.0000000E+00  0.6172840E-02
    1      -13.877095
    2      -13.754118
    3      -13.753757
    4      -13.623583
    5      -13.226895
    6      -13.108870
    7      -13.108506
    8      -12.983983
    9      -10.713005
   10      -10.711273
   11      -10.616201
   12      -10.614500
   13      -10.614383
   14      -10.612690
   15      -10.513123
   16      -10.511360
   17       -6.120190
   18       -6.117362
   19       -6.074820
   20       -6.071143
   21       -6.070391
   22       -6.069949
   23       -6.026019
   24       -6.023687
   25       -4.225945
   26       -4.223803
   27       -4.193597
   28       -4.192389
   29       -4.192158
   30       -4.188585
   31       -4.156167
   32       -4.153386
   33       -3.604241
   34       -3.556194
   35       -3.553718
   36       -3.504455
   37       -2.469053
   38       -2.133596
   39       -2.096329
   40       -2.093355
   41       -2.054749
   42       -1.697265
   43       -1.674072
   44       -1.672663
   45       -0.929545
   46       -0.928084
   47       -0.731750
   48       -0.720107
   49       -0.710948
   50       -0.707838
   51       -0.686992
   52       -0.177649
   53       -0.158619
   54       -0.155270
   55       -0.135973
   56       -0.014653
   57        1.209746
   58        1.211685
   59        1.838419
   60        1.839526
   61        1.839732
   62        1.843171
   63        2.548272
   64        2.550584
   65        7.050903
   66        7.053822
   67        7.334176
   68        7.338961
   69        7.339350
   70        7.339778
   71        7.634171
   72        7.636764
   73       10.199322
   74       10.712428
   75       10.984302
   76       10.993006
   77       11.001425
   78       11.389166
   79       12.268082
   80       12.278443
   81       12.301920
   82       12.379551
   83       12.445408
   84       12.447473
 
  0.1694066E-20  0.1111111E+00  0.0000000E+00  0.6172840E-02
    1      -14.972956
    2      -14.841476
    3      -14.841097
    4      -14.701327
    5      -10.521067
    6      -10.427410
    7      -10.427130
    8      -10.330158
    9       -9.977665
   10       -9.975363
   11       -9.897805
   12       -9.895971
   13       -9.895224
   14       -9.893266
   15       -9.815277
   16       -9.813124
   17       -8.353823
   18       -8.349242
   19       -8.290595
   20       -8.287457
   21       -8.285913
   22       -8.282712
   23       -8.217716
   24       -8.213115
   25       -7.838833
   26       -7.765593
   27       -7.765346
   28       -7.688562
   29       -3.789302
   30       -2.957025
   31       -2.955418
   32       -2.058497
   33       -2.052934
   34       -2.032205
   35       -2.029727
   36       -2.026657
   37       -2.024144
   38       -2.003072
   39       -1.997475
   40       -1.948409
   41       -1.758325
   42       -1.733878
   43       -1.733716
   44       -1.709182
   45        1.247302
   46        1.261165
   47        1.272189
   48        1.272365
   49        1.283633
   50        1.401562
   51        1.411731
   52        1.412346
   53        1.422517
   54        1.720084
   55        1.722928
   56        1.785501
   57        1.786280
   58        2.157281
   59        2.159915
   60        2.160033
   61        2.162837
   62        2.316378
   63        2.522980
   64        2.525315
   65        6.149985
   66        6.155726
   67        6.345070
   68        6.350057
   69        6.351904
   70        6.356736
   71        6.452576
   72        6.759561
   73        6.762196
   74        6.844973
   75        6.851500
   76        7.310652
   77        8.860551
   78       11.389721
   79       11.392952
   80       11.812306
   81       11.985676
   82       11.986290
   83       12.105089
   84       12.110685
 
  0.1111111E+00  0.1111111E+00  0.0000000E+00  0.6172840E-02
    1      -14.826024
    2      -14.695675
    3      -14.695298
    4      -14.556812
    5      -10.984544
    6      -10.981571
    7      -10.886399
    8      -10.883414
    9      -10.883395
   10      -10.880430
   11      -10.780855
   12      -10.777842
   13       -9.540951
   14       -9.487699
   15       -9.486195
   16       -9.441293
   17       -8.476512
   18       -8.448717
   19       -8.445688
   20       -8.402929
   21       -7.158003
   22       -7.154906
   23       -7.087780
   24       -7.085485
   25       -7.085464
   26       -7.081363
   27       -7.012170
   28       -7.008816
   29       -3.611248
   30       -2.783633
   31       -2.782037
   32       -2.734723
   33       -2.701423
   34       -2.699100
   35       -2.665146
   36       -1.913903
   37       -1.910978
   38       -1.888342
   39       -1.884672
   40       -1.884667
   41       -1.883150
   42       -1.858933
   43       -1.856524
   44       -1.781627
   45        0.731668
   46        0.741818
   47        0.745751
   48        0.756690
   49        0.817079
   50        0.820163
   51        1.084293
   52        1.094092
   53        1.097949
   54        1.106131
   55        1.425247
   56        1.428225
   57        1.428375
   58        1.430174
   59        2.086436
   60        2.088708
   61        2.103420
   62        2.477347
   63        2.480004
   64        2.739947
   65        6.049385
   66        6.140597
   67        6.145396
   68        6.541559
   69        6.938057
   70        6.940424
   71        7.300090
   72        7.301814
   73        7.302180
   74        7.306732
   75        7.836683
   76        7.839367
   77        9.039323
   78       11.546727
   79       11.549949
   80       12.182895
   81       12.186943
   82       12.355258
   83       12.358809
   84       12.361680
 
  0.2222222E+00  0.1111111E+00  0.0000000E+00  0.6172840E-02
    1      -14.532923
    2      -14.404840
    3      -14.404467
    4      -14.268546
    5      -11.948159
    6      -11.840204
    7      -11.839881
    8      -11.726694
    9      -11.323841
   10      -11.221173
   11      -11.220871
   12      -11.113286
   13       -9.591553
   14       -9.514196
   15       -9.513360
   16       -9.435550
   17       -8.008056
   18       -7.949062
   19       -7.946543
   20       -7.881712
   21       -6.375445
   22       -6.310108
   23       -6.309766
   24       -6.242394
   25       -5.776369
   26       -5.713997
   27       -5.712094
   28       -5.647737
   29       -3.640463
   30       -3.599693
   31       -3.597411
   32       -3.555503
   33       -3.256893
   34       -2.439051
   35       -2.437859
   36       -2.437275
   37       -2.405292
   38       -2.404813
   39       -2.371630
   40       -1.627097
   41       -1.602030
   42       -1.599543
   43       -1.574143
   44       -1.450575
   45       -0.222921
   46       -0.218635
   47       -0.202560
   48       -0.197276
   49       -0.179290
   50        0.477221
   51        0.478884
   52        0.485810
   53        0.540413
   54        0.553565
   55        0.558030
   56        0.570690
   57        1.141336
   58        1.142524
   59        1.285552
   60        1.883464
   61        2.241417
   62        2.679015
   63        2.681542
   64        3.043157
   65        6.028778
   66        6.147959
   67        6.152364
   68        6.485925
   69        7.512438
   70        7.869289
   71        7.871539
   72        8.293539
   73        8.327225
   74        8.669955
   75        8.672961
   76        9.159360
   77        9.397891
   78       11.858510
   79       11.861790
   80       12.295329
   81       12.495549
   82       12.496955
   83       12.505584
   84       12.863691
 
  0.3333333E+00  0.1111111E+00  0.0000000E+00  0.6172840E-02
    1      -14.095156
    2      -13.970424
    3      -13.970057
    4      -13.838004
    5      -12.797221
    6      -12.682579
    7      -12.682232
    8      -12.561479
    9      -11.531624
   10      -11.427087
   11      -11.426778
   12      -11.317158
   13       -9.736025
   14       -9.649406
   15       -9.648994
   16       -9.559225
   17       -7.243556
   18       -7.184647
   19       -7.182279
   20       -7.121139
   21       -5.578495
   22       -5.524852
   23       -5.523858
   24       -5.469204
   25       -4.575006
   26       -4.532641
   27       -4.530214
   28       -4.485553
   29       -4.328678
   30       -4.276375
   31       -4.274262
   32       -4.220599
   33       -3.135897
   34       -3.101199
   35       -3.099914
   36       -3.063540
   37       -2.729921
   38       -1.927629
   39       -1.926017
   40       -1.465532
   41       -1.435350
   42       -1.431509
   43       -1.401988
   44       -1.211383
   45       -1.192111
   46       -1.187738
   47       -1.185090
   48       -1.161170
   49       -0.960934
   50       -0.444532
   51       -0.443118
   52       -0.082902
   53       -0.065059
   54       -0.060881
   55       -0.043109
   56        0.277824
   57        0.440908
   58        0.958389
   59        0.959713
   60        1.744638
   61        2.242360
   62        2.768188
   63        2.770300
   64        3.300820
   65        6.031756
   66        6.266308
   67        6.269806
   68        6.583410
   69        8.019151
   70        8.323434
   71        8.325470
   72        8.660201
   73        9.855173
   74        9.934899
   75       10.173831
   76       10.176826
   77       10.582426
   78       11.519892
   79       12.284815
   80       12.289800
   81       12.579424
   82       12.667376
   83       12.668866
   84       12.902677
 
  0.4444444E+00  0.1111111E+00  0.0000000E+00  0.6172840E-02
    1      -13.516669
    2      -13.513909
    3      -13.397558
    4      -13.394912
    5      -13.394789
    6      -13.391988
    7      -13.268993
    8      -13.266172
    9      -11.601349
   10      -11.496277
   11      -11.495963
   12      -11.385699
   13       -9.791907
   14       -9.703499
   15       -9.703204
   16       -9.611285
   17       -6.740041
   18       -6.702653
   19       -6.700443
   20       -6.665105
   21       -5.104695
   22       -5.091710
   23       -5.074251
   24       -5.071399
   25       -5.069696
   26       -5.067161
   27       -5.042094
   28       -5.039147
   29       -3.554757
   30       -3.534927
   31       -3.531845
   32       -3.507533
   33       -2.869870
   34       -2.867237
   35       -2.827634
   36       -2.827303
   37       -2.827256
   38       -2.821558
   39       -2.784055
   40       -2.780405
   41       -2.038532
   42       -2.036298
   43       -1.259258
   44       -1.256294
   45       -1.256078
   46       -1.253723
   47       -0.689610
   48       -0.682833
   49       -0.667991
   50       -0.660951
   51       -0.660886
   52       -0.659458
   53       -0.640706
   54       -0.637215
   55       -0.324685
   56       -0.322156
   57        0.207283
   58        0.895715
   59        0.897156
   60        1.695865
   61        2.231150
   62        2.789919
   63        2.791506
   64        3.393322
   65        6.047157
   66        6.333699
   67        6.336093
   68        6.638293
   69        8.238327
   70        8.501212
   71        8.503475
   72        8.765445
   73       10.645952
   74       10.646948
   75       11.443026
   76       11.446037
   77       11.660618
   78       11.664507
   79       11.665112
   80       11.671596
   81       11.999660
   82       12.003021
   83       12.740610
   84       12.743465
 
 -0.4444444E+00  0.1111111E+00  0.0000000E+00  0.6172840E-02
    1      -14.095279
    2      -13.970530
    3      -13.970167
    4      -13.838117
    5      -12.797054
    6      -12.682417
    7      -12.682058
    8      -12.561310
    9      -11.531847
   10      -11.427311
   11      -11.426998
   12      -11.317378
   13       -9.735900
   14       -9.649218
   15       -9.648955
   16       -9.559123
   17       -7.241054
   18       -7.181416
   19       -7.180740
   20       -7.118861
   21       -5.581118
   22       -5.528099
   23       -5.525647
   24       -5.471623
   25       -4.577707
   26       -4.534639
   27       -4.533858
   28       -4.488497
   29       -4.328668
   30       -4.276513
   31       -4.274047
   32       -4.220525
   33       -3.132899
   34       -3.098901
   35       -3.095877
   36       -3.060176
   37       -2.729953
   38       -1.927647
   39       -1.926040
   40       -1.466518
   41       -1.435830
   42       -1.433385
   43       -1.403558
   44       -1.211566
   45       -1.192086
   46       -1.188013
   47       -1.184994
   48       -1.161210
   49       -0.960934
   50       -0.444533
   51       -0.443082
   52       -0.081114
   53       -0.063178
   54       -0.060388
   55       -0.042180
   56        0.277942
   57        0.440885
   58        0.958438
   59        0.960003
   60        1.744907
   61        2.241779
   62        2.768009
   63        2.769063
   64        3.299962
   65        6.034248
   66        6.269066
   67        6.270898
   68        6.584688
   69        8.017245
   70        8.321507
   71        8.324483
   72        8.659238
   73        9.855536
   74        9.934835
   75       10.174087
   76       10.177379
   77       10.582915
   78       11.519926
   79       12.285148
   80       12.290113
   81       12.578458
   82       12.665942
   83       12.668216
   84       12.902683
 
 -0.3333333E+00  0.1111111E+00  0.0000000E+00  0.6172840E-02
    1      -14.533000
    2      -14.404917
    3      -14.404545
    4      -14.268623
    5      -11.947962
    6      -11.840012
    7      -11.839675
    8      -11.726492
    9      -11.324283
   10      -11.221611
   11      -11.221307
   12      -11.113719
   13       -9.591430
   14       -9.513797
   15       -9.513569
   16       -9.435483
   17       -8.005104
   18       -7.945072
   19       -7.944862
   20       -7.878971
   21       -6.378231
   22       -6.313651
   23       -6.311694
   24       -6.245083
   25       -5.776522
   26       -5.714208
   27       -5.712164
   28       -5.647863
   29       -3.643942
   30       -3.602247
   31       -3.601982
   32       -3.559160
   33       -3.256918
   34       -2.438978
   35       -2.437396
   36       -2.433978
   37       -2.402402
   38       -2.399712
   39       -2.367469
   40       -1.627132
   41       -1.602135
   42       -1.599417
   43       -1.574104
   44       -1.450577
   45       -0.224624
   46       -0.219333
   47       -0.203998
   48       -0.201020
   49       -0.183148
   50        0.477490
   51        0.479006
   52        0.485734
   53        0.544739
   54        0.557485
   55        0.559504
   56        0.572893
   57        1.141445
   58        1.143175
   59        1.285497
   60        1.884020
   61        2.240217
   62        2.678734
   63        2.679285
   64        3.042044
   65        6.032385
   66        6.152490
   67        6.154602
   68        6.488801
   69        7.509400
   70        7.866025
   71        7.869652
   72        8.293801
   73        8.325085
   74        8.670095
   75        8.673387
   76        9.159731
   77        9.397846
   78       11.858670
   79       11.861944
   80       12.294692
   81       12.494650
   82       12.496510
   83       12.505175
   84       12.863813
 
 -0.2222222E+00  0.1111111E+00  0.0000000E+00  0.6172840E-02
    1      -14.826070
    2      -14.695722
    3      -14.695345
    4      -14.556859
    5      -10.983608
    6      -10.982801
    7      -10.884166
    8      -10.883873
    9      -10.883348
   10      -10.883053
   11      -10.779992
   12      -10.779207
   13       -9.540934
   14       -9.487031
   15       -9.486888
   16       -9.441231
   17       -8.473337
   18       -8.444290
   19       -8.444167
   20       -8.400000
   21       -7.159474
   22       -7.156125
   23       -7.088990
   24       -7.087201
   25       -7.085709
   26       -7.083794
   27       -7.013627
   28       -7.010289
   29       -3.611264
   30       -2.783645
   31       -2.782048
   32       -2.738594
   33       -2.704314
   34       -2.704186
   35       -2.669226
   36       -1.912998
   37       -1.907427
   38       -1.887065
   39       -1.884575
   40       -1.881569
   41       -1.878974
   42       -1.858372
   43       -1.852757
   44       -1.781629
   45        0.726775
   46        0.738112
   47        0.738695
   48        0.749596
   49        0.818103
   50        0.819500
   51        1.092522
   52        1.101131
   53        1.101366
   54        1.110882
   55        1.426575
   56        1.428221
   57        1.428319
   58        1.430153
   59        2.087041
   60        2.088875
   61        2.101881
   62        2.477082
   63        2.477321
   64        2.738965
   65        6.053088
   66        6.145867
   67        6.148374
   68        6.545731
   69        6.934729
   70        6.940203
   71        7.296307
   72        7.300397
   73        7.301920
   74        7.305837
   75        7.834175
   76        7.839064
   77        9.039296
   78       11.546809
   79       11.550028
   80       12.184297
   81       12.190169
   82       12.357125
   83       12.358780
   84       12.363491
 
 -0.1111111E+00  0.1111111E+00  0.0000000E+00  0.6172840E-02
    1      -14.972972
    2      -14.841492
    3      -14.841113
    4      -14.701343
    5      -10.521763
    6      -10.428122
    7      -10.427778
    8      -10.330819
    9       -9.977285
   10       -9.974996
   11       -9.897638
   12       -9.895061
   13       -9.895047
   14       -9.893101
   15       -9.814985
   16       -9.812758
   17       -8.351129
   18       -8.349349
   19       -8.286698
   20       -8.286059
   21       -8.286042
   22       -8.282911
   23       -8.215275
   24       -8.213297
   25       -7.841379
   26       -7.768882
   27       -7.767041
   28       -7.691010
   29       -3.789307
   30       -2.957029
   31       -2.955421
   32       -2.059161
   33       -2.056530
   34       -2.033189
   35       -2.029693
   36       -2.029688
   37       -2.028525
   38       -2.003463
   39       -2.001314
   40       -1.948410
   41       -1.754116
   42       -1.730725
   43       -1.728156
   44       -1.704621
   45        1.245531
   46        1.256144
   47        1.265188
   48        1.268722
   49        1.278780
   50        1.406287
   51        1.415233
   52        1.419485
   53        1.430486
   54        1.719680
   55        1.722159
   56        1.785715
   57        1.787949
   58        2.156411
   59        2.159921
   60        2.160001
   61        2.161145
   62        2.317482
   63        2.522571
   64        2.524555
   65        6.153756
   66        6.155929
   67        6.350232
   68        6.352009
   69        6.352338
   70        6.357757
   71        6.448579
   72        6.754749
   73        6.759214
   74        6.848886
   75        6.851939
   76        7.306885
   77        8.860541
   78       11.389744
   79       11.392975
   80       11.817300
   81       11.990490
   82       11.991538
   83       12.103296
   84       12.107069
 
  0.1694066E-20  0.2222222E+00  0.0000000E+00  0.6172840E-02
    1      -14.752644
    2      -14.622882
    3      -14.622507
    4      -14.484677
    5      -11.529935
    6      -11.425357
    7      -11.425051
    8      -11.315769
    9      -10.324475
   10      -10.321782
   11      -10.233734
   12      -10.231389
   13      -10.230826
   14      -10.228380
   15      -10.136978
   16      -10.134289
   17       -7.672923
   18       -7.668239
   19       -7.603499
   20       -7.600315
   21       -7.598624
   22       -7.595376
   23       -7.527275
   24       -7.522494
   25       -6.515676
   26       -6.447265
   27       -6.447043
   28       -6.376129
   29       -3.522457
   30       -2.697194
   31       -2.695602
   32       -2.664554
   33       -2.659255
   34       -2.631824
   35       -2.629331
   36       -2.626457
   37       -2.623875
   38       -2.595633
   39       -2.590255
   40       -1.698501
   41       -1.543779
   42       -1.519768
   43       -1.519647
   44       -1.495505
   45        0.234852
   46        0.434606
   47        0.453673
   48        0.453770
   49        0.473123
   50        0.897301
   51        0.898448
   52        0.982331
   53        0.996778
   54        0.996912
   55        1.011299
   56        1.502806
   57        1.505656
   58        1.646679
   59        2.035762
   60        2.038620
   61        2.038735
   62        2.041724
   63        2.567988
   64        2.570737
   65        6.403039
   66        6.408762
   67        6.678603
   68        6.683263
   69        6.684887
   70        6.689387
   71        7.151996
   72        7.157664
   73        7.587961
   74        7.979942
   75        7.982447
   76        8.521361
   77        9.128647
   78       11.623427
   79       11.626645
   80       11.927427
   81       12.094983
   82       12.095371
   83       12.245189
   84       12.936359
 
  0.1111111E+00  0.2222222E+00  0.0000000E+00  0.6172840E-02
    1      -14.532927
    2      -14.404844
    3      -14.404472
    4      -14.268550
    5      -11.948210
    6      -11.840253
    7      -11.839935
    8      -11.726745
    9      -11.323806
   10      -11.221142
   11      -11.220833
   12      -11.113253
   13       -9.591544
   14       -9.514196
   15       -9.513346
   16       -9.435544
   17       -8.007994
   18       -7.948941
   19       -7.946543
   20       -7.881652
   21       -6.374475
   22       -6.309806
   23       -6.308068
   24       -6.241361
   25       -5.777317
   26       -5.714140
   27       -5.713927
   28       -5.648767
   29       -3.640538
   30       -3.599693
   31       -3.597573
   32       -3.555591
   33       -3.256878
   34       -2.439525
   35       -2.438738
   36       -2.437314
   37       -2.407486
   38       -2.405282
   39       -2.372886
   40       -1.625540
   41       -1.599552
   42       -1.599233
   43       -1.572869
   44       -1.450552
   45       -0.223456
   46       -0.218542
   47       -0.202559
   48       -0.199098
   49       -0.181105