   4   4   0   0
  0.1060458E+02  0.2466143E-09  0.2466143E-09  0.8042482E-09  0.5000000E-15
  1.000000000000000E-004
  CAR 
 graphite                                
     16.45970645    -18.31101415  301      3.21010379      1.00000000
    -18.311  0.0000E+00  0.0000E+00
    -18.195  0.0000E+00  0.0000E+00
    -18.079  0.0000E+00  0.0000E+00
    -17.963  0.0000E+00  0.0000E+00
    -17.847  0.0000E+00  0.0000E+00
    -17.732  0.0000E+00  0.0000E+00
    -17.616  0.0000E+00  0.0000E+00
    -17.500  0.0000E+00  0.0000E+00
    -17.384  0.0000E+00  0.0000E+00
    -17.268  0.0000E+00  0.0000E+00
    -17.152  0.0000E+00  0.0000E+00
    -17.036  0.0000E+00  0.0000E+00
    -16.920  0.0000E+00  0.0000E+00
    -16.804  0.0000E+00  0.0000E+00
    -16.688  0.0000E+00  0.0000E+00
    -16.572  0.0000E+00  0.0000E+00
    -16.457  0.0000E+00  0.0000E+00
    -16.341  0.0000E+00  0.0000E+00
    -16.225  0.2887E-02  0.1138E-03
    -16.109  0.3114E-02  0.4629E-03
    -15.993  0.2973E-02  0.8305E-03
    -15.877  0.3099E-02  0.1177E-02
    -15.761  0.3150E-02  0.1546E-02
    -15.645  0.3017E-02  0.1900E-02
    -15.529  0.3107E-02  0.2253E-02
    -15.413  0.3203E-02  0.2620E-02
    -15.298  0.3052E-02  0.2981E-02
    -15.182  0.3077E-02  0.3336E-02
    -15.066  0.3126E-02  0.3695E-02
    -14.950  0.3201E-02  0.4062E-02
    -14.834  0.3111E-02  0.4428E-02
    -14.718  0.3091E-02  0.4786E-02
    -14.602  0.3124E-02  0.5146E-02
    -14.486  0.3157E-02  0.5510E-02
    -14.370  0.3206E-02  0.5879E-02
    -14.254  0.3145E-02  0.6248E-02
    -14.139  0.3138E-02  0.6612E-02
    -14.023  0.3144E-02  0.6976E-02
    -13.907  0.3174E-02  0.7342E-02
    -13.791  0.3205E-02  0.7712E-02
    -13.675  0.3237E-02  0.8085E-02
    -13.559  0.3199E-02  0.8458E-02
    -13.443  0.3190E-02  0.8828E-02
    -13.327  0.3203E-02  0.9199E-02
    -13.211  0.3218E-02  0.9571E-02
    -13.095  0.3245E-02  0.9945E-02
    -12.980  0.3274E-02  0.1032E-01
    -12.864  0.3296E-02  0.1070E-01
    -12.748  0.3271E-02  0.1108E-01
    -12.632  0.3280E-02  0.1146E-01
    -12.516  0.3300E-02  0.1184E-01
    -12.400  0.3326E-02  0.1223E-01
    -12.284  0.3352E-02  0.1262E-01
    -12.168  0.3391E-02  0.1301E-01
    -12.052  0.3435E-02  0.1340E-01
    -11.936  0.3458E-02  0.1380E-01
    -11.820  0.3494E-02  0.1420E-01
    -11.705  0.3589E-02  0.1461E-01
    -11.589  0.3710E-02  0.1504E-01
    -11.473  0.3928E-02  0.1548E-01
    -11.357  0.4149E-02  0.1595E-01
    -11.241  0.6131E-02  0.1650E-01
    -11.125  0.4609E-02  0.1714E-01
    -11.009  0.3274E-02  0.1758E-01
    -10.893  0.6188E-02  0.1800E-01
    -10.777  0.2337E-02  0.1844E-01
    -10.661  0.2089E-02  0.1869E-01
    -10.546  0.1842E-02  0.1892E-01
    -10.430  0.1595E-02  0.1912E-01
    -10.314  0.1364E-02  0.1929E-01
    -10.198  0.2279E-02  0.1949E-01
    -10.082  0.9021E-03  0.1969E-01
     -9.966  0.9316E-03  0.1979E-01
     -9.850  0.1449E-02  0.1992E-01
     -9.734  0.3909E-02  0.2020E-01
     -9.618  0.2648E-02  0.2068E-01
     -9.502  0.2777E-02  0.2100E-01
     -9.387  0.2911E-02  0.2133E-01
     -9.271  0.3715E-02  0.2190E-01
     -9.155  0.4358E-02  0.2237E-01
     -9.039  0.5040E-02  0.2291E-01
     -8.923  0.5772E-02  0.2354E-01
     -8.807  0.3923E-02  0.2406E-01
     -8.691  0.3771E-02  0.2451E-01
     -8.575  0.3619E-02  0.2494E-01
     -8.459  0.3471E-02  0.2535E-01
     -8.343  0.3333E-02  0.2574E-01
     -8.228  0.3195E-02  0.2612E-01
     -8.112  0.3054E-02  0.2648E-01
     -7.996  0.2984E-02  0.2683E-01
     -7.880  0.2948E-02  0.2718E-01
     -7.764  0.2913E-02  0.2752E-01
     -7.648  0.2877E-02  0.2785E-01
     -7.532  0.2839E-02  0.2818E-01
     -7.416  0.2589E-02  0.2850E-01
     -7.300  0.2620E-02  0.2880E-01
     -7.184  0.3043E-02  0.2913E-01
     -7.068  0.3467E-02  0.2951E-01
     -6.953  0.3889E-02  0.2993E-01
     -6.837  0.3762E-02  0.3039E-01
     -6.721  0.3706E-02  0.3083E-01
     -6.605  0.3651E-02  0.3125E-01
     -6.489  0.3595E-02  0.3167E-01
     -6.373  0.3639E-02  0.3209E-01
     -6.257  0.3737E-02  0.3252E-01
     -6.141  0.3829E-02  0.3295E-01
     -6.025  0.3920E-02  0.3340E-01
     -5.909  0.3954E-02  0.3386E-01
     -5.794  0.3962E-02  0.3432E-01
     -5.678  0.3969E-02  0.3478E-01
     -5.562  0.3969E-02  0.3523E-01
     -5.446  0.4035E-02  0.3569E-01
     -5.330  0.4074E-02  0.3616E-01
     -5.214  0.4114E-02  0.3664E-01
     -5.098  0.4154E-02  0.3712E-01
     -4.982  0.4216E-02  0.3760E-01
     -4.866  0.4352E-02  0.3810E-01
     -4.750  0.4441E-02  0.3861E-01
     -4.635  0.5135E-02  0.3915E-01
     -4.519  0.5472E-02  0.3976E-01
     -4.403  0.5876E-02  0.4042E-01
     -4.287  0.6171E-02  0.4112E-01
     -4.171  0.6583E-02  0.4186E-01
     -4.055  0.7250E-02  0.4265E-01
     -3.939  0.8206E-02  0.4356E-01
     -3.823  0.8661E-02  0.4454E-01
     -3.707  0.9008E-02  0.4556E-01
     -3.591  0.1072E-01  0.4677E-01
     -3.476  0.8789E-02  0.4788E-01
     -3.360  0.9576E-02  0.4891E-01
     -3.244  0.1031E-01  0.5006E-01
     -3.128  0.9126E-02  0.5121E-01
     -3.012  0.8575E-02  0.5222E-01
     -2.896  0.9066E-02  0.5324E-01
     -2.780  0.9291E-02  0.5429E-01
     -2.664  0.8951E-02  0.5535E-01
     -2.548  0.1035E-01  0.5639E-01
     -2.432  0.4284E-02  0.5715E-01
     -2.316  0.4448E-02  0.5759E-01
     -2.201  0.5876E-02  0.5824E-01
     -2.085  0.7440E-02  0.5896E-01
     -1.969  0.8442E-02  0.6001E-01
     -1.853  0.7464E-02  0.6093E-01
     -1.737  0.6823E-02  0.6175E-01
     -1.621  0.6404E-02  0.6252E-01
     -1.505  0.6171E-02  0.6324E-01
     -1.389  0.6179E-02  0.6396E-01
     -1.273  0.6057E-02  0.6467E-01
     -1.157  0.5938E-02  0.6536E-01
     -1.042  0.5820E-02  0.6605E-01
     -0.926  0.5722E-02  0.6671E-01
     -0.810  0.5919E-02  0.6738E-01
     -0.694  0.5825E-02  0.6806E-01
     -0.578  0.5704E-02  0.6873E-01
     -0.462  0.5570E-02  0.6938E-01
     -0.346  0.5587E-02  0.7003E-01
     -0.230  0.5685E-02  0.7069E-01
     -0.114  0.5731E-02  0.7133E-01
      0.002  0.5439E-02  0.7200E-01
      0.117  0.4862E-02  0.7264E-01
      0.233  0.3648E-02  0.7311E-01
      0.349  0.3823E-02  0.7354E-01
      0.465  0.4068E-02  0.7399E-01
      0.581  0.4435E-02  0.7449E-01
      0.697  0.5796E-02  0.7506E-01
      0.813  0.5498E-02  0.7571E-01
      0.929  0.6018E-02  0.7635E-01
      1.045  0.3802E-02  0.7687E-01
      1.161  0.3475E-02  0.7729E-01
      1.276  0.3004E-02  0.7766E-01
      1.392  0.2717E-02  0.7799E-01
      1.508  0.2333E-02  0.7828E-01
      1.624  0.2157E-02  0.7854E-01
      1.740  0.1877E-02  0.7877E-01
      1.856  0.1622E-02  0.7898E-01
      1.972  0.1470E-02  0.7915E-01
      2.088  0.1428E-02  0.7932E-01
      2.204  0.1269E-02  0.7948E-01
      2.320  0.1048E-02  0.7962E-01
      2.436  0.8104E-03  0.7972E-01
      2.551  0.6390E-03  0.7981E-01
      2.667  0.5148E-03  0.7987E-01
      2.783  0.3906E-03  0.7993E-01
      2.899  0.2664E-03  0.7996E-01
      3.015  0.1424E-03  0.7999E-01
      3.131  0.4767E-04  0.8000E-01
      3.247  0.1838E-04  0.8000E-01
      3.363  0.1004E-03  0.8001E-01
      3.479  0.2213E-03  0.8003E-01
      3.595  0.3536E-03  0.8006E-01
      3.710  0.4859E-03  0.8011E-01
      3.826  0.6183E-03  0.8017E-01
      3.942  0.7507E-03  0.8025E-01
      4.058  0.1115E-02  0.8035E-01
      4.174  0.1646E-02  0.8051E-01
      4.290  0.1561E-02  0.8070E-01
      4.406  0.1598E-02  0.8087E-01
      4.522  0.2074E-02  0.8109E-01
      4.638  0.2554E-02  0.8135E-01
      4.754  0.4170E-02  0.8174E-01
      4.869  0.6009E-02  0.8230E-01
      4.985  0.5367E-02  0.8299E-01
      5.101  0.5603E-02  0.8362E-01
      5.217  0.4436E-02  0.8421E-01
      5.333  0.3975E-02  0.8470E-01
      5.449  0.3636E-02  0.8514E-01
      5.565  0.3401E-02  0.8555E-01
      5.681  0.3222E-02  0.8593E-01
      5.797  0.3058E-02  0.8629E-01
      5.913  0.2901E-02  0.8664E-01
      6.028  0.2770E-02  0.8697E-01
      6.144  0.2680E-02  0.8728E-01
      6.260  0.2620E-02  0.8759E-01
      6.376  0.2559E-02  0.8789E-01
      6.492  0.2500E-02  0.8818E-01
      6.608  0.2712E-02  0.8848E-01
      6.724  0.2775E-02  0.8880E-01
      6.840  0.2864E-02  0.8913E-01
      6.956  0.2884E-02  0.8946E-01
      7.072  0.2894E-02  0.8980E-01
      7.188  0.2912E-02  0.9013E-01
      7.303  0.2940E-02  0.9047E-01
      7.419  0.2981E-02  0.9081E-01
      7.535  0.3014E-02  0.9116E-01
      7.651  0.3053E-02  0.9151E-01
      7.767  0.3073E-02  0.9187E-01
      7.883  0.3101E-02  0.9223E-01
      7.999  0.3129E-02  0.9259E-01
      8.115  0.3168E-02  0.9295E-01
      8.231  0.3231E-02  0.9332E-01
      8.347  0.3265E-02  0.9370E-01
      8.462  0.3314E-02  0.9408E-01
      8.578  0.3462E-02  0.9447E-01
      8.694  0.3832E-02  0.9489E-01
      8.810  0.3867E-02  0.9534E-01
      8.926  0.3559E-02  0.9577E-01
      9.042  0.3369E-02  0.9617E-01
      9.158  0.3001E-02  0.9655E-01
      9.274  0.2878E-02  0.9688E-01
      9.390  0.2445E-02  0.9719E-01
      9.506  0.2711E-02  0.9748E-01
      9.621  0.3227E-02  0.9782E-01
      9.737  0.3445E-02  0.9821E-01
      9.853  0.3615E-02  0.9862E-01
      9.969  0.3661E-02  0.9904E-01
     10.085  0.3678E-02  0.9947E-01
     10.201  0.3807E-02  0.9990E-01
     10.317  0.3979E-02  0.1004E+00
     10.433  0.4182E-02  0.1008E+00
     10.549  0.5141E-02  0.1013E+00
     10.665  0.8160E-02  0.1021E+00
     10.780  0.9755E-02  0.1032E+00
     10.896  0.9690E-02  0.1043E+00
     11.012  0.8059E-02  0.1053E+00
     11.128  0.7063E-02  0.1062E+00
     11.244  0.6648E-02  0.1070E+00
     11.360  0.6358E-02  0.1077E+00
     11.476  0.6598E-02  0.1085E+00
     11.592  0.1676E-01  0.1097E+00
     11.708  0.1272E-01  0.1115E+00
     11.824  0.8261E-02  0.1127E+00
     11.940  0.4456E-02  0.1135E+00
     12.055  0.3074E-02  0.1139E+00
     12.171  0.2929E-02  0.1142E+00
     12.287  0.2768E-02  0.1146E+00
     12.403  0.2624E-02  0.1149E+00
     12.519  0.2525E-02  0.1152E+00
     12.635  0.2450E-02  0.1155E+00
     12.751  0.2393E-02  0.1158E+00
     12.867  0.2357E-02  0.1160E+00
     12.983  0.2360E-02  0.1163E+00
     13.099  0.2480E-02  0.1166E+00
     13.214  0.2720E-02  0.1169E+00
     13.330  0.2620E-02  0.1172E+00
     13.446  0.2597E-02  0.1175E+00
     13.562  0.2918E-02  0.1178E+00
     13.678  0.5329E-02  0.1182E+00
     13.794  0.4176E-02  0.1188E+00
     13.910  0.3628E-02  0.1192E+00
     14.026  0.2460E-02  0.1196E+00
     14.142  0.1430E-02  0.1198E+00
     14.258  0.7134E-03  0.1199E+00
     14.373  0.2020E-03  0.1200E+00
     14.489  0.0000E+00  0.1200E+00
     14.605  0.0000E+00  0.1200E+00
     14.721  0.0000E+00  0.1200E+00
     14.837  0.0000E+00  0.1200E+00
     14.953  0.0000E+00  0.1200E+00
     15.069  0.0000E+00  0.1200E+00
     15.185  0.0000E+00  0.1200E+00
     15.301  0.0000E+00  0.1200E+00
     15.417  0.0000E+00  0.1200E+00
     15.532  0.0000E+00  0.1200E+00
     15.648  0.0000E+00  0.1200E+00
     15.764  0.0000E+00  0.1200E+00
     15.880  0.0000E+00  0.1200E+00
     15.996  0.0000E+00  0.1200E+00
     16.112  0.0000E+00  0.1200E+00
     16.228  0.0000E+00  0.1200E+00
     16.344  0.0000E+00  0.1200E+00
     16.460  0.0000E+00  0.1200E+00
