    4    4  200    1
  0.1060458E+02  0.2466143E-09  0.2466143E-09  0.8042482E-09  0.5000000E-15
  1.000000000000000E-004
  CAR 
 graphite                                
     16    455     12
 
  0.0000000E+00  0.0000000E+00  0.0000000E+00  0.3858025E-03
    1      -16.311014
    2      -16.247660
    3       -4.726393
    4       -4.021446
    5        0.175021
    6        0.177363
    7        0.196341
    8        0.198699
    9        6.495302
   10       10.373826
   11       11.498064
   12       11.539164
 
  0.5555556E-01  0.0000000E+00  0.0000000E+00  0.1543210E-02
    1      -16.238061
    2      -16.175060
    3       -4.638422
    4       -3.936025
    5       -0.119265
    6       -0.115624
    7        0.035690
    8        0.038851
    9        6.589051
   10       10.458610
   11       11.542899
   12       11.558554
 
  0.1111111E+00  0.0000000E+00  0.0000000E+00  0.1543210E-02
    1      -16.019572
    2      -15.957603
    3       -4.375339
    4       -3.680841
    5       -0.939381
    6       -0.933121
    7       -0.378332
    8       -0.373633
    9        6.870623
   10       10.710286
   11       11.577108
   12       11.615591
 
  0.1666667E+00  0.0000000E+00  0.0000000E+00  0.1543210E-02
    1      -15.656746
    2      -15.596388
    3       -3.940215
    4       -3.259437
    5       -2.116372
    6       -2.106166
    7       -0.934757
    8       -0.928934
    9        7.340100
   10       11.111736
   11       11.508022
   12       11.568742
 
  0.2222222E+00 -0.1387779E-16  0.0000000E+00  0.1543210E-02
    1      -15.151322
    2      -15.093236
    3       -3.492415
    4       -3.477928
    5       -3.338805
    6       -2.678504
    7       -1.526067
    8       -1.519600
    9        7.996286
   10       11.056042
   11       11.178187
   12       11.333197
 
  0.2777778E+00  0.0000000E+00  0.0000000E+00  0.1543210E-02
    1      -14.506464
    2      -14.451411
    3       -4.953152
    4       -4.933873
    5       -2.582123
    6       -2.076915
    7       -2.069729
    8       -1.950940
    9        8.835910
   10        9.551272
   11        9.757931
   12       11.109451
 
  0.3333333E+00  0.0000000E+00  0.0000000E+00  0.1543210E-02
    1      -13.727463
    2      -13.676042
    3       -6.421893
    4       -6.397864
    5       -2.539737
    6       -2.532140
    7       -1.690699
    8       -1.102456
    9        7.974560
   10        8.255912
   11        9.847509
   12       10.893361
 
  0.3888889E+00  0.5551115E-16  0.0000000E+00  0.1543210E-02
    1      -12.824298
    2      -12.776737
    3       -7.843195
    4       -7.814836
    5       -2.886113
    6       -2.878491
    7       -0.710880
    8       -0.191837
    9        6.478875
   10        6.813708
   11       10.682525
   12       10.753060
 
  0.4444444E+00 -0.2775558E-16  0.0000000E+00  0.1543210E-02
    1      -11.827386
    2      -11.785994
    3       -9.158806
    4       -9.127537
    5       -3.099628
    6       -3.091885
    7        0.230827
    8        0.618294
    9        5.269836
   10        5.607743
   11       10.595930
   12       10.682524
 
  0.5000000E+00  0.0000000E+00  0.0000000E+00  0.7716049E-03
    1      -11.072542
    2      -11.050931
    3      -10.004876
    4       -9.987606
    5       -3.171522
    6       -3.163860
    7        0.727338
    8        0.950808
    9        4.764526
   10        5.057309
   11       10.558380
   12       10.648795
 
  0.5555556E-01  0.5555556E-01  0.0000000E+00  0.7716049E-03
    1      -16.092656
    2      -16.030348
    3       -4.463284
    4       -3.766095
    5       -0.650897
    6       -0.647234
    7       -0.276280
    8       -0.273458
    9        6.776305
   10       10.626698
   11       11.639186
   12       11.671151
 
  0.1111111E+00  0.5555556E-01  0.0000000E+00  0.1543210E-02
    1      -15.802296
    2      -15.741310
    3       -4.114439
    4       -3.428057
    5       -1.593133
    6       -1.586448
    7       -0.819273
    8       -0.814782
    9        7.151739
   10       10.957457
   11       11.755176
   12       11.808488
 
  0.1666667E+00  0.5555556E-01  0.0000000E+00  0.1543210E-02
    1      -15.368514
    2      -15.309449
    3       -3.596268
    4       -2.926878
    5       -2.826568
    6       -2.815315
    7       -1.438321
    8       -1.432043
    9        7.714805
   10       11.377915
   11       11.708624
   12       11.715204
 
  0.2222222E+00  0.5555556E-01  0.0000000E+00  0.1543210E-02
    1      -14.793679
    2      -14.737289
    3       -4.218825
    4       -4.202589
    5       -2.916681
    6       -2.271773
    7       -2.036752
    8       -2.029207
    9        8.463459
   10       10.253460
   11       10.409416
   12       11.536204
 
  0.2777778E+00  0.5555556E-01  0.0000000E+00  0.1543210E-02
    1      -14.081962
    2      -14.028781
    3       -5.668844
    4       -5.647509
    5       -2.558363
    6       -2.550088
    7       -2.090225
    8       -1.480464
    9        8.714440
   10        8.948228
   11        9.393007
   12       11.322362
 
  0.3333333E+00  0.5555556E-01  0.0000000E+00  0.1543210E-02
    1      -13.240477
    2      -13.191109
    3       -7.106499
    4       -7.080612
    5       -2.970463
    6       -2.961641
    7       -1.146878
    8       -0.590314
    9        7.181917
   10        7.481532
   11       10.481580
   12       11.128382
 
  0.3888889E+00  0.5555556E-01  0.0000000E+00  0.1543210E-02
    1      -12.284957
    2      -12.240472
    3       -8.476920
    4       -8.447040
    5       -3.253435
    6       -3.244336
    7       -0.159882
    8        0.304115
    9        5.806032
   10        6.139920
   11       10.965958
   12       11.048280
 
  0.4444444E+00  0.5555556E-01  0.0000000E+00  0.1543210E-02
    1      -11.297736
    2      -11.262840
    3       -9.671893
    4       -9.643092
    5       -3.396686
    6       -3.387673
    7        0.646722
    8        0.933923
    9        4.887567
   10        5.186276
   11       10.893741
   12       10.988619
 
  0.5000000E+00  0.5555556E-01  0.0000000E+00  0.1543210E-02
    1      -11.293503
    2      -11.258680
    3       -9.676794
    4       -9.648079
    5       -3.395312
    6       -3.386356
    7        0.649059
    8        0.935382
    9        4.885577
   10        5.184081
   11       10.892627
   12       10.987515
 
 -0.4444444E+00  0.5555556E-01  0.0000000E+00  0.1543210E-02
    1      -12.280246
    2      -12.235766
    3       -8.483824
    4       -8.453947
    5       -3.249524
    6       -3.240397
    7       -0.155737
    8        0.307719
    9        5.801550
   10        6.135669
   11       10.962945
   12       11.045499
 
 -0.3888889E+00  0.5555556E-01  0.0000000E+00  0.1543210E-02
    1      -13.236444
    2      -13.186973
    3       -7.114306
    4       -7.088517
    5       -2.964043
    6       -2.955249
    7       -1.142584
    8       -0.586286
    9        7.176962
   10        7.477158
   11       10.487635
   12       11.122967
 
 -0.3333333E+00  0.5555556E-01  0.0000000E+00  0.1543210E-02
    1      -14.078443
    2      -14.025284
    3       -5.677357
    4       -5.655967
    5       -2.549856
    6       -2.541637
    7       -2.086310
    8       -1.476696
    9        8.710122
   10        8.944698
   11        9.398056
   12       11.315759
 
 -0.2777778E+00  0.5555556E-01  0.0000000E+00  0.1543210E-02
    1      -14.790822
    2      -14.734428
    3       -4.227434
    4       -4.211165
    5       -2.913348
    6       -2.268496
    7       -2.026981
    8       -2.019564
    9        8.467561
   10       10.250469
   11       10.407189
   12       11.530001
 
 -0.2222222E+00  0.5555556E-01  0.0000000E+00  0.1543210E-02
    1      -15.366306
    2      -15.307258
    3       -3.593616
    4       -2.924278
    5       -2.833783
    6       -2.822477
    7       -1.429557
    8       -1.423232
    9        7.718019
   10       11.377371
   11       11.706156
   12       11.710741
 
 -0.1666667E+00  0.5555556E-01  0.0000000E+00  0.1543210E-02
    1      -15.800715
    2      -15.739735
    3       -4.112469
    4       -3.426159
    5       -1.595095
    6       -1.588265
    7       -0.815898
    8       -0.811356
    9        7.154073
   10       10.959300
   11       11.762079
   12       11.814680
 
 -0.1111111E+00  0.5555556E-01  0.0000000E+00  0.1543210E-02
    1      -16.091700
    2      -16.029405
    3       -4.462117
    4       -3.764953
    5       -0.640528
    6       -0.636764
    7       -0.285770
    8       -0.282965
    9        6.777734
   10       10.627934
   11       11.660025
   12       11.691533
 
 -0.5555556E-01  0.5555556E-01  0.0000000E+00  0.7716049E-03
    1      -16.237743
    2      -16.174747
    3       -4.638033
    4       -3.935640
    5       -0.100602
    6       -0.096997
    7        0.017267
    8        0.020445
    9        6.589532
   10       10.459034
   11       11.565417
   12       11.583099
 
  0.1111111E+00  0.1111111E+00  0.0000000E+00  0.7716049E-03
    1      -15.441063
    2      -15.381648
    3       -3.682379
    4       -3.010051
    5       -2.487762
    6       -2.481818
    7       -1.527026
    8       -1.522954
    9        7.621320
   10       11.362625
   11       11.927570
   12       12.020578
 
  0.1666667E+00  0.1111111E+00  0.0000000E+00  0.1543210E-02
    1      -14.937840
    2      -14.880748
    3       -3.623626
    4       -3.613258
    5       -3.085093
    6       -2.433498
    7       -2.268402
    8       -2.261861
    9        8.277877
   10       10.684144
   11       10.799847
   12       11.923642
 
  0.2222222E+00  0.1111111E+00  0.0000000E+00  0.1543210E-02
    1      -14.295973
    2      -14.241806
    3       -4.937941
    4       -4.921235
    5       -2.906975
    6       -2.897668
    7       -2.332903
    8       -1.710776
    9        9.118368
   10        9.281547
   11        9.450390
   12       12.301641
 
  0.2777778E+00  0.1111111E+00  0.0000000E+00  0.1543210E-02
    1      -13.521211
    2      -13.470498
    3       -6.323792
    4       -6.301517
    5       -3.413077
    6       -3.402230
    7       -1.445889
    8       -0.866215
    9        7.811538
   10        8.045379
   11       10.137115
   12       12.113192
 
  0.3333333E+00  0.1111111E+00  0.0000000E+00  0.1543210E-02
    1      -12.623736
    2      -12.577376
    3       -7.697354
    4       -7.670436
    5       -3.779269
    6       -3.767423
    7       -0.467626
    8        0.045176
    9        6.389133
   10        6.676898
   11       11.313274
   12       11.947540
 
  0.3888889E+00  0.1111111E+00  0.0000000E+00  0.1543210E-02
    1      -11.635136
    2      -11.594461
    3       -8.984890
    4       -8.954783
    5       -4.000222
    6       -3.987955
    7        0.481540
    8        0.868051
    9        5.213145
   10        5.504755
   11       11.819313
   12       11.928038
 
  0.4444444E+00  0.1111111E+00  0.0000000E+00  0.1543210E-02
    1      -10.884542
    2      -10.863484
    3       -9.822052
    4       -9.805611
    5       -4.072735
    6       -4.060247
    7        0.994074
    8        1.215569
    9        4.712183
   10        4.947303
   11       11.781438
   12       11.898925
 
  0.5000000E+00  0.1111111E+00  0.0000000E+00  0.1543210E-02
    1      -11.625492
    2      -11.584873
    3       -8.997562
    4       -8.967349
    5       -3.995439
    6       -3.983107
    7        0.488852
    8        0.873833
    9        5.206163
   10        5.497756
   11       11.815952
   12       11.925116
 
 -0.4444444E+00  0.1111111E+00  0.0000000E+00  0.1543210E-02
    1      -12.614822
    2      -12.568375
    3       -7.712365
    4       -7.685413
    5       -3.769874
    6       -3.758121
    7       -0.458898
    8        0.053179
    9        6.379829
   10        6.668588
   11       11.326463
   12       11.939953
 
 -0.3888889E+00  0.1111111E+00  0.0000000E+00  0.1543210E-02
    1      -13.513435
    2      -13.462859
    3       -6.340143
    4       -6.317764
    5       -3.399705
    6       -3.388941
    7       -1.437571
    8       -0.858271
    9        7.802973
   10        8.038365
   11       10.148010
   12       12.103132
 
 -0.3333333E+00  0.1111111E+00  0.0000000E+00  0.1543210E-02
    1      -14.289617
    2      -14.235475
    3       -4.954337
    4       -4.937574
    5       -2.891510
    6       -2.882161
    7       -2.325601
    8       -1.703690
    9        9.127323
   10        9.275603
   11        9.446134
   12       12.282133
 
 -0.2777778E+00  0.1111111E+00  0.0000000E+00  0.1543210E-02
    1      -14.932786
    2      -14.875707
    3       -3.635998
    4       -3.625402
    5       -3.079073
    6       -2.427572
    7       -2.255523
    8       -2.248924
    9        8.285050
   10       10.682187
   11       10.798627
   12       11.932250
 
 -0.2222222E+00  0.1111111E+00  0.0000000E+00  0.1543210E-02
    1      -15.437244
    2      -15.377881
    3       -3.677775
    4       -3.005493
    5       -2.487590
    6       -2.481598
    7       -1.526127
    8       -1.522056
    9        7.626751
   10       11.367399
   11       11.930033
   12       12.023873
 
 -0.1666667E+00  0.1111111E+00  0.0000000E+00  0.1543210E-02
    1      -15.799776
    2      -15.738799
    3       -4.111293
    4       -3.424997
    5       -1.576910
    6       -1.570390
    7       -0.834831
    8       -0.830424
    9        7.155403
   10       10.961124
   11       11.740991
   12       11.793308
 
 -0.1111111E+00  0.1111111E+00  0.0000000E+00  0.7716049E-03
    1      -16.018302
    2      -15.956340
    3       -4.373735
    4       -3.679304
    5       -0.916454
    6       -0.910179
    7       -0.401311
    8       -0.396597
    9        6.872472
   10       10.712150
   11       11.569003
   12       11.607205
 
  0.1666667E+00  0.1666667E+00  0.0000000E+00  0.7716049E-03
    1      -14.367574
    2      -14.313063
    3       -4.536592
    4       -4.527766
    5       -3.190016
    6       -3.183580
    7       -2.414283
    8       -1.788129
    9        9.026383
   10        9.505639
   11        9.637408
   12       12.483039
 
  0.2222222E+00  0.1666667E+00  0.0000000E+00  0.1543210E-02
    1      -13.662384
    2      -13.611091
    3       -5.648333
    4       -5.633681
    5       -3.952050
    6       -3.942033
    7       -1.597662
    8       -1.007046
    9        8.211752
   10        8.374108
   11        9.955598
   12       13.135149
 
  0.2777778E+00  0.1666667E+00  0.0000000E+00  0.1543210E-02
    1      -12.830215
    2      -12.782834
    3       -6.904593
    4       -6.882771
    5       -4.481360
    6       -4.467847
    7       -0.662212
    8       -0.122728
    9        6.872211
   10        7.084426
   11       11.057649
   12       13.306782
 
  0.3333333E+00  0.1666667E+00  0.0000000E+00  0.1543210E-02
    1      -11.888412
    2      -11.845627
    3       -8.179758
    4       -8.152667
    5       -4.814280
    6       -4.798840
    7        0.327795
    8        0.782569
    9        5.612313
   10        5.859823
   11       12.313148
   12       13.167997
 
  0.3888889E+00  0.1666667E+00  0.0000000E+00  0.1543210E-02
    1      -10.919161
    2      -10.885876
    3       -9.324284
    4       -9.297742
    5       -4.975054
    6       -4.958852
    7        1.164306
    8        1.451727
    9        4.728726
   10        4.926541
   11       13.073020
   12       13.241866
 
  0.4444444E+00  0.1666667E+00  0.0000000E+00  0.1543210E-02
    1      -10.906360
    2      -10.873355
    3       -9.339182
    4       -9.312907
    5       -4.971862
    6       -4.955679
    7        1.171912
    8        1.456629
    9        4.722937
   10        4.919847
   11       13.071667
   12       13.241799
 
  0.5000000E+00  0.1666667E+00  0.0000000E+00  0.1543210E-02
    1      -11.874199
    2      -11.831464
    3       -8.200957
    4       -8.173869
    5       -4.804909
    6       -4.789516
    7        0.340624
    8        0.793967
    9        5.600015
   10        5.848627
   11       12.334434
   12       13.161385
 
 -0.4444444E+00  0.1666667E+00  0.0000000E+00  0.1543210E-02
    1      -12.817720
    2      -12.770362
    3       -6.927844
    4       -6.905966
    5       -4.466756
    6       -4.453395
    7       -0.649129
    8       -0.110349
    9        6.860158
   10        7.074596
   11       11.075156
   12       13.297245
 
 -0.3888889E+00  0.1666667E+00  0.0000000E+00  0.1543210E-02
    1      -13.651842
    2      -13.600583
    3       -5.669849
    4       -5.655026
    5       -3.936478
    6       -3.926223
    7       -1.585792
    8       -0.995565
    9        8.203446
   10        8.368220
   11        9.970142
   12       13.148948
 
 -0.3333333E+00  0.1666667E+00  0.0000000E+00  0.1543210E-02
    1      -14.359012
    2      -14.304524
    3       -4.546812
    4       -4.537886
    5       -3.183495
    6       -3.177009
    7       -2.404201
    8       -1.778278
    9        9.038229
   10        9.503418
   11        9.636717
   12       12.493553
 
 -0.2777778E+00  0.1666667E+00  0.0000000E+00  0.1543210E-02
    1      -14.931207
    2      -14.874141
    3       -3.616193
    4       -3.605964
    5       -3.077071
    6       -2.425577
    7       -2.277972
    8       -2.271560
    9        8.287117
   10       10.688719
   11       10.805674
   12       11.928884
 
 -0.2222222E+00  0.1666667E+00  0.0000000E+00  0.1543210E-02
    1      -15.363795
    2      -15.304749
    3       -3.590459
    4       -2.921149
    5       -2.805990
    6       -2.794954
    7       -1.460847
    8       -1.454608
    9        7.721437
   10       11.392795
   11       11.656214
   12       11.727187
 
 -0.1666667E+00  0.1666667E+00  0.0000000E+00  0.7716049E-03
    1      -15.653923
    2      -15.593575
    3       -3.936701
    4       -3.255965
    5       -2.089529
    6       -2.079471
    7       -0.963641
    8       -0.957774
    9        7.344090
   10       11.117638
   11       11.467197
   12       11.527102
 
  0.2222222E+00  0.2222222E+00  0.0000000E+00  0.7716049E-03
    1      -12.899657
    2      -12.851752
    3       -6.441286
    4       -6.429577
    5       -4.919077
    6       -4.910041
    7       -0.728543
    8       -0.180726
    9        7.070776
   10        7.234102
   11       10.966960
   12       13.637261
 
  0.2777778E+00  0.2222222E+00  0.0000000E+00  0.1543210E-02
    1      -12.019711
    2      -11.976241
    3       -7.442782
    4       -7.424108
    5       -5.575094
    6       -5.561444
    7        0.239301
    8        0.726089
    9        5.898891
   10        6.086603
   11       12.138214
   12       14.015709
 
  0.3333333E+00  0.2222222E+00  0.0000000E+00  0.1543210E-02
    1      -11.056422
    2      -11.018524
    3       -8.556385
    4       -8.531156
    5       -5.912315
    6       -5.894845
    7        1.211793
    8        1.592764
    9        4.836785
   10        5.027296
   11       13.435272
   12       14.252377
 
  0.3888889E+00  0.2222222E+00  0.0000000E+00  0.1543210E-02
    1      -10.321584
    2      -10.301906
    3       -9.340158
    4       -9.328027
    5       -6.013278
    6       -5.994472
    7        1.788184
    8        2.003336
    9        4.363660
   10        4.416788
   11       14.387708
   12       14.459706
 
  0.4444444E+00  0.2222222E+00  0.0000000E+00  0.1543210E-02
    1      -11.036686
    2      -10.998904
    3       -8.582307
    4       -8.557097
    5       -5.905121
    6       -5.887486
    7        1.227878
    8        1.606218
    9        4.823296
   10        5.014366
   11       13.466059
   12       14.265218
 
  0.5000000E+00  0.2222222E+00  0.0000000E+00  0.1543210E-02
    1      -12.001646
    2      -11.958228
    3       -7.470887
    4       -7.452022
    5       -5.563346
    6       -5.549586
    7        0.257416
    8        0.743061
    9        5.884105
   10        6.074389
   11       12.163370
   12       14.031194
 
 -0.4444444E+00  0.2222222E+00  0.0000000E+00  0.1543210E-02
    1      -12.884206
    2      -12.836325
    3       -6.460622
    4       -6.448764
    5       -4.912805
    6       -4.903648
    7       -0.711542
    8       -0.164300
    9        7.060871
   10        7.226422
   11       10.987932
   12       13.652144
 
 -0.3888889E+00  0.2222222E+00  0.0000000E+00  0.1543210E-02
    1      -13.649612
    2      -13.598225
    3       -5.650054
    4       -5.635747
    5       -3.960188
    6       -3.950324
    7       -1.582814
    8       -0.992543
    9        8.209675
   10        8.372514
   11        9.972878
   12       13.147157
 
 -0.3333333E+00  0.2222222E+00  0.0000000E+00  0.1543210E-02
    1      -14.285829
    2      -14.231702
    3       -4.925524
    4       -4.909046
    5       -2.927539
    6       -2.918116
    7       -2.320693
    8       -1.698765
    9        9.132130
   10        9.287702
   11        9.455584
   12       12.207162
 
 -0.2777778E+00  0.2222222E+00  0.0000000E+00  0.1543210E-02
    1      -14.786157
    2      -14.729749
    3       -4.196525
    4       -4.180358
    5       -2.907361
    6       -2.262569
    7       -2.065933
    8       -2.058483
    9        8.473751
   10       10.266561
   11       10.420697
   12       11.460318
 
 -0.2222222E+00  0.2222222E+00  0.0000000E+00  0.7716049E-03
    1      -15.146296
    2      -15.088228
    3       -3.463820
    4       -3.449493
    5       -3.332527
    6       -2.672289
    7       -1.560592
    8       -1.554075
    9        8.003134
   10       11.076345
   11       11.191274
   12       11.268013
 
  0.2777778E+00  0.2777778E+00  0.0000000E+00  0.7716049E-03
    1      -11.111181
    2      -11.072117
    3       -8.065652
    4       -8.051032
    5       -6.449295
    6       -6.438880
    7        1.218240
    8        1.634892
    9        4.898583
   10        5.085372
   11       13.346746
   12       14.009608
 
  0.3333333E+00  0.2777778E+00  0.0000000E+00  0.1543210E-02
    1      -10.179260
    2      -10.148630
    3       -8.879225
    4       -8.860706
    5       -6.876789
    6       -6.862479
    7        2.146340
    8        2.439599
    9        4.022948
   10        4.182383
   11       13.983270
   12       14.287856
 
  0.3888889E+00  0.2777778E+00  0.0000000E+00  0.1543210E-02
    1      -10.155397
    2      -10.125097
    3       -8.905727
    4       -8.887572
    5       -6.873779
    6       -6.859340
    7        2.163768
    8        2.452690
    9        4.010170
   10        4.168509
   11       13.991044
   12       14.279868
 
  0.4444444E+00  0.2777778E+00  0.0000000E+00  0.1543210E-02
    1      -11.086221
    2      -11.047381
    3       -8.092524
    4       -8.077662
    5       -6.447345
    6       -6.436697
    7        1.241800
    8        1.656886
    9        4.880636
   10        5.070111
   11       13.381161
   12       14.019964
 
  0.5000000E+00  0.2777778E+00  0.0000000E+00  0.1543210E-02
    1      -11.998339
    2      -11.954919
    3       -7.453997
    4       -7.435529
    5       -5.585048
    6       -5.571469
    7        0.262082
    8        0.748047
    9        5.887131
   10        6.076209
   11       12.166637
   12       14.026898
 
 -0.4444444E+00  0.2777778E+00  0.0000000E+00  0.1543210E-02
    1      -12.812400
    2      -12.764924
    3       -6.901643
    4       -6.880027
    5       -4.502072
    6       -4.488724
    7       -0.641843
    8       -0.102830
    9        6.869361
   10        7.080824
   11       11.081141
   12       13.201756
 
 -0.3888889E+00  0.2777778E+00  0.0000000E+00  0.1543210E-02
    1      -13.506672
    2      -13.456114
    3       -6.310370
    4       -6.288245
    5       -3.441852
    6       -3.430940
    7       -1.428661
    8       -0.849233
    9        7.817599
   10        8.049253
   11       10.155993
   12       12.014242
 
 -0.3333333E+00  0.2777778E+00  0.0000000E+00  0.1543210E-02
    1      -14.070825
    2      -14.017688
    3       -5.647158
    4       -5.625921
    5       -2.593306
    6       -2.585014
    7       -2.076544
    8       -1.466907
    9        8.727805
   10        8.958568
   11        9.407449
   12       11.232110
 
 -0.2777778E+00  0.2777778E+00  0.0000000E+00  0.7716049E-03
    1      -14.498567
    2      -14.443509
    3       -4.925093
    4       -4.905960
    5       -2.572221
    6       -2.116179
    7       -2.108997
    8       -1.941113
    9        8.846191
   10        9.568737
   11        9.771983
   12       11.028967
 
  0.3333333E+00  0.3333333E+00  0.0000000E+00  0.7716049E-03
    1       -9.399969
    2       -9.382215
    3       -9.352747
    4       -9.335671
    5       -7.313174
    6       -7.313122
    7        3.009539
    8        3.208393
    9        3.210345
   10        3.421883
   11       13.929510
   12       13.942100
 
  0.3888889E+00  0.3333333E+00  0.0000000E+00  0.1543210E-02
    1      -10.143937
    2      -10.113249
    3       -8.904469
    4       -8.885790
    5       -6.887785
    6       -6.873572
    7        2.176664
    8        2.467419
    9        3.998895
   10        4.162033
   11       13.989767
   12       14.272230
 
  0.4444444E+00  0.3333333E+00  0.0000000E+00  0.1543210E-02
    1      -11.026878
    2      -10.988815
    3       -8.565873
    4       -8.540692
    5       -5.934113
    6       -5.916573
    7        1.241196
    8        1.620825
    9        4.821432
   10        5.012585
   11       13.472099
   12       14.269698
 
  0.5000000E+00  0.3333333E+00  0.0000000E+00  0.1543210E-02
    1      -11.864013
    2      -11.821237
    3       -8.177632
    4       -8.150629
    5       -4.843433
    6       -4.828014
    7        0.354622
    8        0.808739
    9        5.606748
   10        5.852622
   11       12.342292
   12       13.058569
 
 -0.4444444E+00  0.3333333E+00  0.0000000E+00  0.1543210E-02
    1      -12.603939
    2      -12.557601
    3       -7.686087
    4       -7.659218
    5       -3.814264
    6       -3.802314
    7       -0.444384
    8        0.068142
    9        6.392871
   10        6.677809
   11       11.333502
   12       11.843801
 
 -0.3888889E+00  0.3333333E+00  0.0000000E+00  0.1543210E-02
    1      -13.224929
    2      -13.175592
    3       -7.087444
    4       -7.061671
    5       -3.010093
    6       -3.001237
    7       -1.127823
    8       -0.571345
    9        7.193494
   10        7.489601
   11       10.495601
   12       11.031366
 
 -0.3333333E+00  0.3333333E+00  0.0000000E+00  0.7716049E-03
    1      -13.715951
    2      -13.664332
    3       -6.396248
    4       -6.372348
    5       -2.582794
    6       -2.575274
    7       -1.676185
    8       -1.087940
    9        7.991351
   10        8.268817
   11        9.860223
   12       10.803141
 
  0.3888889E+00  0.3888889E+00  0.0000000E+00  0.7716049E-03
    1      -10.284295
    2      -10.264902
    3       -9.351687
    4       -9.339966
    5       -6.041281
    6       -6.022377
    7        1.818577
    8        2.030427
    9        4.352428
   10        4.398991
   11       14.357758
   12       14.385775
 
  0.4444444E+00  0.3888889E+00  0.0000000E+00  0.1543210E-02
    1      -10.883530
    2      -10.850152
    3       -9.329860
    4       -9.303219
    5       -5.009675
    6       -4.993450
    7        1.197483
    8        1.482227
    9        4.721314
   10        4.914097
   11       12.964195
   12       13.134617
 
  0.5000000E+00  0.3888889E+00  0.0000000E+00  0.1543210E-02
    1      -11.607392
    2      -11.566670
    3       -8.979343
    4       -8.949058
    5       -4.039762
    6       -4.027347
    7        0.511854
    8        0.897505
    9        5.213010
   10        5.500382
   11       11.713794
   12       11.823843
 
 -0.4444444E+00  0.3888889E+00  0.0000000E+00  0.1543210E-02
    1      -12.263395
    2      -12.218910
    3       -8.462706
    4       -8.432831
    5       -3.296685
    6       -3.287483
    7       -0.134166
    8        0.329735
    9        5.813477
   10        6.143317
   11       10.865812
   12       10.950052
 
 -0.3888889E+00  0.3888889E+00  0.0000000E+00  0.7716049E-03
    1      -12.808057
    2      -12.760500
    3       -7.821940
    4       -7.793659
    5       -2.931847
    6       -2.924229
    7       -0.690447
    8       -0.171266
    9        6.492389
   10        6.823139
   11       10.595653
   12       10.664948
 
  0.4444444E+00  0.4444444E+00  0.0000000E+00  0.7716049E-03
    1      -10.844871
    2      -10.824131
    3       -9.826342
    4       -9.810316
    5       -4.115413
    6       -4.102738
    7        1.027771
    8        1.245894
    9        4.712648
   10        4.939885
   11       11.675807
   12       11.792921
 
  0.5000000E+00  0.4444444E+00  0.0000000E+00  0.1543210E-02
    1      -11.264497
    2      -11.229484
    3       -9.668598
    4       -9.639444
    5       -3.442341
    6       -3.433265
    7        0.679968
    8        0.965112
    9        4.891037
   10        5.182976
   11       10.791174
   12       10.886101
 
 -0.4444444E+00  0.4444444E+00  0.0000000E+00  0.7716049E-03
    1      -11.803551
    2      -11.762089
    3       -9.145094
    4       -9.113780
    5       -3.146960
    6       -3.139149
    7        0.258988
    8        0.646261
    9        5.277765
   10        5.610539
   11       10.496131
   12       10.583092
 
  0.5000000E+00  0.5000000E+00  0.0000000E+00  0.3858025E-03
    1      -11.032006
    2      -11.010711
    3      -10.007388
    4       -9.990512
    5       -3.219374
    6       -3.211625
    7        0.762153
    8        0.982221
    9        4.769385
   10        5.053989
   11       10.457373
   12       10.547784
 