graphite                                
           1
     2.466141    0.002940    0.000000
    -1.230525    2.137211    0.000000
     0.000000    0.000000    8.042482
   C 
   4
Direct configuration=     1
   0.99981862  0.00018142  0.25000000
   0.00018142  0.99981862  0.75000000
   0.33262049  0.66737949  0.25000000
   0.66737949  0.33262049  0.75000000
Direct configuration=     2
   0.99848197  0.00151807  0.25000000
   0.00151807  0.99848197  0.75000000
   0.33394398  0.66605600  0.25000000
   0.66605600  0.33394398  0.75000000
Direct configuration=     3
   0.99951802  0.00048202  0.25000000
   0.00048202  0.99951802  0.75000000
   0.33291813  0.66708185  0.25000000
   0.66708185  0.33291813  0.75000000
