   12   12  200    1
  0.9117166E+01  0.4595034E-09  0.6095261E-09  0.3906251E-09  0.5000000E-15
  1.000000000000000E-004
  CAR 
 ethylene                                
     24    350     19
 
  0.0000000E+00  0.0000000E+00  0.0000000E+00  0.8680556E-03
    1      -15.372952
    2      -14.919536
    3      -10.352034
    4      -10.334203
    5       -7.416662
    6       -7.319956
    7       -6.789865
    8       -6.333934
    9       -4.731730
   10       -4.097867
   11       -2.991483
   12       -2.650016
   13        1.636459
   14        3.224978
   15        4.289716
   16        5.186434
   17        6.949932
   18        7.839062
   19        7.859964
 
  0.8333333E-01  0.0000000E+00  0.0000000E+00  0.1736111E-02
    1      -15.360935
    2      -14.921508
    3      -10.368017
    4      -10.357603
    5       -7.432097
    6       -7.317855
    7       -6.750106
    8       -6.316165
    9       -4.738338
   10       -4.122089
   11       -2.983724
   12       -2.665043
   13        1.701417
   14        3.252944
   15        4.285403
   16        5.204635
   17        6.969928
   18        7.543387
   19        7.755642
 
  0.1666667E+00  0.0000000E+00  0.0000000E+00  0.1736111E-02
    1      -15.326229
    2      -14.928613
    3      -10.419509
    4      -10.412731
    5       -7.459993
    6       -7.313538
    7       -6.652110
    8       -6.272303
    9       -4.752371
   10       -4.189449
   11       -2.964232
   12       -2.704884
   13        1.886497
   14        3.323176
   15        4.288109
   16        5.257778
   17        6.975795
   18        7.008748
   19        7.478890
 
  0.2500000E+00  0.0000000E+00  0.0000000E+00  0.1736111E-02
    1      -15.272800
    2      -14.943949
    3      -10.499160
    4      -10.476612
    5       -7.473122
    6       -7.312468
    7       -6.531949
    8       -6.225157
    9       -4.758908
   10       -4.286936
   11       -2.940938
   12       -2.757082
   13        2.164750
   14        3.393614
   15        4.338372
   16        5.340658
   17        6.410341
   18        6.894341
   19        7.266754
 
  0.3333333E+00  0.0000000E+00  0.0000000E+00  0.1736111E-02
    1      -15.206900
    2      -14.971293
    3      -10.572195
    4      -10.544887
    5       -7.460645
    6       -7.321640
    7       -6.415229
    8       -6.198192
    9       -4.741639
   10       -4.399158
   11       -2.919704
   12       -2.808462
   13        2.496482
   14        3.405388
   15        4.476897
   16        5.435348
   17        5.918460
   18        6.517696
   19        7.310145
 
  0.4166667E+00  0.0000000E+00  0.0000000E+00  0.1736111E-02
    1      -15.136429
    2      -15.013267
    3      -10.618761
    4      -10.600507
    5       -7.426830
    6       -7.345951
    7       -6.316906
    8       -6.204337
    9       -4.692229
   10       -4.511831
   11       -2.900902
   12       -2.850170
   13        2.832802
   14        3.317776
   15        4.709153
   16        5.350308
   17        5.709231
   18        6.152637
   19        7.387077
 
  0.5000000E+00  0.0000000E+00  0.0000000E+00  0.8680556E-03
    1      -15.069606
    2      -15.069606
    3      -10.628208
    4      -10.628208
    5       -7.384033
    6       -7.384032
    7       -6.245049
    8       -6.245049
    9       -4.612912
   10       -4.612911
   11       -2.879823
   12       -2.879823
   13        3.120950
   14        3.120951
   15        5.013481
   16        5.013481
   17        5.873894
   18        5.873895
   19        7.443817
 
  0.0000000E+00  0.8333333E-01  0.0000000E+00  0.1736111E-02
    1      -15.365899
    2      -14.928045
    3      -10.349846
    4      -10.332848
    5       -7.421219
    6       -7.329909
    7       -6.776613
    8       -6.337978
    9       -4.722148
   10       -4.109926
   11       -2.980830
   12       -2.649760
   13        1.658134
   14        3.193833
   15        4.291115
   16        5.180212
   17        6.918044
   18        7.843802
   19        7.861443
 
  0.8333333E-01  0.8333333E-01  0.0000000E+00  0.3472222E-02
    1      -15.354055
    2      -14.929696
    3      -10.368933
    4      -10.353990
    5       -7.437048
    6       -7.323859
    7       -6.739295
    8       -6.320474
    9       -4.728453
   10       -4.132638
   11       -2.975813
   12       -2.664691
   13        1.722323
   14        3.222903
   15        4.286420
   16        5.199964
   17        6.937731
   18        7.540229
   19        7.771186
 
  0.1666667E+00  0.8333333E-01  0.0000000E+00  0.3472222E-02
    1      -15.319877
    2      -14.935850
    3      -10.425985
    4      -10.405808
    5       -7.462935
    6       -7.314260
    7       -6.645605
    8       -6.277100
    9       -4.741803
   10       -4.196209
   11       -2.963353
   12       -2.704443
   13        1.905329
   14        3.297110
   15        4.288045
   16        5.256182
   17        6.954910
   18        7.017702
   19        7.458851
 
  0.2500000E+00  0.8333333E-01  0.0000000E+00  0.3472222E-02
    1      -15.267351
    2      -14.949680
    3      -10.504409
    4      -10.473854
    5       -7.472361
    6       -7.309866
    7       -6.528682
    8       -6.230072
    9       -4.747909
   10       -4.289205
   11       -2.948525
   12       -2.757191
   13        2.180638
   14        3.375472
   15        4.336071
   16        5.342044
   17        6.419224
   18        6.930784
   19        7.175837
 
  0.3333333E+00  0.8333333E-01  0.0000000E+00  0.3472222E-02
    1      -15.202744
    2      -14.975104
    3      -10.577171
    4      -10.545222
    5       -7.456612
    6       -7.316957
    7       -6.414016
    8       -6.202438
    9       -4.731024
   10       -4.397367
   11       -2.933789
   12       -2.810778
   13        2.508992
   14        3.397537
   15        4.472467
   16        5.444253
   17        5.920009
   18        6.536419
   19        7.241967
 
  0.4166667E+00  0.8333333E-01  0.0000000E+00  0.3472222E-02
    1      -15.133941
    2      -15.014923
    3      -10.623461
    4      -10.603098
    5       -7.420809
    6       -7.339911
    7       -6.317124
    8       -6.207287
    9       -4.682840
   10       -4.506782
   11       -2.916704
   12       -2.857008
   13        2.841799
   14        3.318075
   15        4.707005
   16        5.372369
   17        5.694574
   18        6.161743
   19        7.357197
 
  0.5000000E+00  0.8333333E-01  0.0000000E+00  0.1736111E-02
    1      -15.069097
    2      -15.069096
    3      -10.632208
    4      -10.632208
    5       -7.377431
    6       -7.377430
    7       -6.246574
    8       -6.246573
    9       -4.605384
   10       -4.605384
   11       -2.892268
   12       -2.892268
   13        3.126237
   14        3.126238
   15        5.019964
   16        5.019964
   17        5.873106
   18        5.873107
   19        7.468040
 
  0.0000000E+00  0.1666667E+00  0.0000000E+00  0.1736111E-02
    1      -15.345092
    2      -14.952804
    3      -10.343836
    4      -10.329160
    5       -7.433290
    6       -7.355889
    7       -6.740365
    8       -6.350747
    9       -4.693662
   10       -4.144860
   11       -2.950383
   12       -2.650546
   13        1.722578
   14        3.101490
   15        4.302642
   16        5.153686
   17        6.849996
   18        7.840513
   19        7.882670
 
  0.8333333E-01  0.1666667E+00  0.0000000E+00  0.3472222E-02
    1      -15.333771
    2      -14.953531
    3      -10.368379
    4      -10.347177
    5       -7.449028
    6       -7.341257
    7       -6.708658
    8       -6.333883
    9       -4.699179
   10       -4.163696
   11       -2.952254
   12       -2.665535
   13        1.784582
   14        3.133261
   15        4.297940
   16        5.176988
   17        6.866773
   18        7.540452
   19        7.812434
 
  0.1666667E+00  0.1666667E+00  0.0000000E+00  0.3472222E-02
    1      -15.301183
    2      -14.956967
    3      -10.432095
    4      -10.398523
    5       -7.468381
    6       -7.319320
    7       -6.625818
    8       -6.291708
    9       -4.710838
   10       -4.217330
   11       -2.957571
   12       -2.706110
   13        1.961616
   14        3.217146
   15        4.299394
   16        5.240286
   17        6.887474
   18        7.050623
   19        7.459283
 
  0.2500000E+00  0.1666667E+00  0.0000000E+00  0.3472222E-02
    1      -15.251348
    2      -14.966475
    3      -10.513492
    4      -10.471641
    5       -7.467916
    6       -7.305662
    7       -6.517985
    8       -6.244789
    9       -4.716000
   10       -4.297809
   11       -2.964181
   12       -2.762237
   13        2.228457
   14        3.315805
   15        4.344766
   16        5.332669
   17        6.444510
   18        6.996194
   19        7.051748
 
  0.3333333E+00  0.1666667E+00  0.0000000E+00  0.3472222E-02
    1      -15.190575
    2      -14.986328
    3      -10.587959
    4      -10.548922
    5       -7.443842
    6       -7.306114
    7       -6.409493
    8       -6.215002
    9       -4.700361
   10       -4.393912
   11       -2.966148
   12       -2.823451
   13        2.546975
   14        3.367175
   15        4.476427
   16        5.449137
   17        5.936284
   18        6.553732
   19        7.187104
 
  0.4166667E+00  0.1666667E+00  0.0000000E+00  0.3472222E-02
    1      -15.126707
    2      -15.019879
    3      -10.634996
    4      -10.611388
    5       -7.403418
    6       -7.324358
    7       -6.317170
    8       -6.215949
    9       -4.655900
   10       -4.493311
   11       -2.955458
   12       -2.880923
   13        2.868919
   14        3.314345
   15        4.713926
   16        5.428157
   17        5.654529
   18        6.165381
   19        7.362491
 
  0.5000000E+00  0.1666667E+00  0.0000000E+00  0.1736111E-02
    1      -15.067704
    2      -15.067704
    3      -10.643072
    4      -10.643072
    5       -7.359378
    6       -7.359377
    7       -6.250852
    8       -6.250852
    9       -4.584187
   10       -4.584187
   11       -2.926812
   12       -2.926812
   13        3.140542
   14        3.140543
   15        5.043203
   16        5.043203
   17        5.860423
   18        5.860423
   19        7.543406
 
  0.0000000E+00  0.2500000E+00  0.0000000E+00  0.1736111E-02
    1      -15.311634
    2      -14.991645
    3      -10.335537
    4      -10.324177
    5       -7.448722
    6       -7.389490
    7       -6.688687
    8       -6.373669
    9       -4.647295
   10       -4.199278
   11       -2.904534
   12       -2.656423
   13        1.827913
   14        2.954187
   15        4.339369
   16        5.088931
   17        6.808196
   18        7.781795
   19        7.940561
 
  0.8333333E-01  0.2500000E+00  0.0000000E+00  0.3472222E-02
    1      -15.301174
    2      -14.990960
    3      -10.364470
    4      -10.341045
    5       -7.461643
    6       -7.367611
    7       -6.662828
    8       -6.357504
    9       -4.651899
   10       -4.213422
   11       -2.914414
   12       -2.672176
   13        1.886608
   14        2.989162
   15        4.336888
   16        5.115118
   17        6.819607
   18        7.537033
   19        7.864979
 
  0.1666667E+00  0.2500000E+00  0.0000000E+00  0.3472222E-02
    1      -15.271201
    2      -14.990250
    3      -10.433791
    4      -10.395335
    5       -7.469765
    6       -7.333256
    7       -6.592902
    8       -6.316494
    9       -4.661736
   10       -4.254265
   11       -2.940873
   12       -2.716018
   13        2.054537
   14        3.084580
   15        4.343936
   16        5.184526
   17        6.822869
   18        7.092711
   19        7.514521
 
  0.2500000E+00  0.2500000E+00  0.0000000E+00  0.3472222E-02
    1      -15.225783
    2      -14.993122
    3      -10.520031
    4      -10.474576
    5       -7.455916
    6       -7.307051
    7       -6.497885
    8       -6.268990
    9       -4.666243
   10       -4.316985
   11       -2.974083
   12       -2.779539
   13        2.308331
   14        3.208601
   15        4.393006
   16        5.283196
   17        6.478886
   18        6.869783
   19        7.199115
 
  0.3333333E+00  0.2500000E+00  0.0000000E+00  0.3472222E-02
    1      -15.171280
    2      -15.004349
    3      -10.598565
    4      -10.558062
    5       -7.421849
    6       -7.296478
    7       -6.399579
    8       -6.235357
    9       -4.653171
   10       -4.394160
   11       -2.999264
   12       -2.852286
   13        2.611076
   14        3.302114
   15        4.520966
   16        5.409728
   17        5.979961
   18        6.505638
   19        7.264631
 
  0.4166667E+00  0.2500000E+00  0.0000000E+00  0.3472222E-02
    1      -15.115420
    2      -15.028058
    3      -10.648558
    4      -10.624700
    5       -7.377184
    6       -7.305711
    7       -6.315549
    8       -6.229694
    9       -4.615182
   10       -4.476482
   11       -3.002123
   12       -2.922002
   13        2.913872
   14        3.296415
   15        4.754831
   16        5.501655
   17        5.586452
   18        6.125807
   19        7.456055
 
  0.5000000E+00  0.2500000E+00  0.0000000E+00  0.1736111E-02
    1      -15.065801
    2      -15.065801
    3      -10.657781
    4      -10.657781
    5       -7.334682
    6       -7.334681
    7       -6.256944
    8       -6.256944
    9       -4.553620
   10       -4.553620
   11       -2.975444
   12       -2.975444
   13        3.159714
   14        3.159715
   15        5.091287
   16        5.091288
   17        5.814720
   18        5.814720
   19        7.673756
 
  0.0000000E+00  0.3333333E+00  0.0000000E+00  0.1736111E-02
    1      -15.267347
    2      -15.041301
    3      -10.326988
    4      -10.319405
    5       -7.462145
    6       -7.422489
    7       -6.628837
    8       -6.407744
    9       -4.585276
   10       -4.268520
   11       -2.849628
   12       -2.671916
   13        1.970772
   14        2.766251
   15        4.412498
   16        4.975715
   17        6.844451
   18        7.629318
   19        8.034249
 
  0.8333333E-01  0.3333333E+00  0.0000000E+00  0.3472222E-02
    1      -15.258073
    2      -15.038895
    3      -10.357769
    4      -10.337750
    5       -7.468601
    6       -7.398441
    7       -6.607549
    8       -6.392047
    9       -4.589288
   10       -4.278471
   11       -2.865991
   12       -2.689357
   13        2.025387
   14        2.804522
   15        4.414902
   16        5.001659
   17        6.849480
   18        7.481777
   19        7.925626
 
  0.1666667E+00  0.3333333E+00  0.0000000E+00  0.3472222E-02
    1      -15.231667
    2      -15.033076
    3      -10.430485
    4      -10.397277
    5       -7.462275
    6       -7.356936
    7       -6.548954
    8       -6.351349
    9       -4.598141
   10       -4.307078
   11       -2.910145
   12       -2.738665
   13        2.182090
   14        2.911628
   15        4.434007
   16        5.071414
   17        6.820205
   18        7.111364
   19        7.612492
 
  0.2500000E+00  0.3333333E+00  0.0000000E+00  0.3472222E-02
    1      -15.192279
    2      -15.027716
    3      -10.521294
    4      -10.482891
    5       -7.434660
    6       -7.319124
    7       -6.467579
    8       -6.301844
    9       -4.603402
   10       -4.350909
   11       -2.967854
   12       -2.811590
   13        2.419310
   14        3.061107
   15        4.494404
   16        5.173112
   17        6.518425
   18        6.778176
   19        7.407228
 
  0.3333333E+00  0.3333333E+00  0.0000000E+00  0.3472222E-02
    1      -15.146256
    2      -15.028100
    3      -10.604915
    4      -10.571387
    5       -7.392340
    6       -7.295189
    7       -6.382313
    8       -6.262293
    9       -4.595062
   10       -4.405131
   11       -3.018486
   12       -2.895267
   13        2.700701
   14        3.200614
   15        4.622664
   16        5.305901
   17        6.045216
   18        6.410656
   19        7.466499
 
  0.4166667E+00  0.3333333E+00  0.0000000E+00  0.3472222E-02
    1      -15.101117
    2      -15.039247
    3      -10.659693
    4      -10.640197
    5       -7.346694
    6       -7.291457
    7       -6.310344
    8       -6.247236
    9       -4.567058
   10       -4.464121
   11       -3.041793
   12       -2.972790
   13        2.974668
   14        3.257030
   15        4.844888
   16        5.477209
   17        5.587884
   18        6.037965
   19        7.640142
 
  0.5000000E+00  0.3333333E+00  0.0000000E+00  0.1736111E-02
    1      -15.063894
    2      -15.063893
    3      -10.672331
    4      -10.672331
    5       -7.309922
    6       -7.309921
    7       -6.263345
    8       -6.263344
    9       -4.520931
   10       -4.520931
   11       -3.026010
   12       -3.026009
   13        3.178427
   14        3.178427
   15        5.169941
   16        5.169941
   17        5.724968
   18        5.724969
   19        7.850604
 
  0.0000000E+00  0.4166667E+00  0.0000000E+00  0.1736111E-02
    1      -15.214745
    2      -15.097819
    3      -10.320186
    4      -10.316428
    5       -7.468556
    6       -7.448722
    7       -6.566616
    8       -6.452670
    9       -4.511277
   10       -4.347328
   11       -2.792933
   12       -2.700093
   13        2.145784
   14        2.556915
   15        4.524209
   16        4.826338
   17        6.971635
   18        7.406555
   19        8.157090
 
  0.8333333E-01  0.4166667E+00  0.0000000E+00  0.3472222E-02
    1      -15.206938
    2      -15.093550
    3      -10.349866
    4      -10.338353
    5       -7.465772
    6       -7.428215
    7       -6.548327
    8       -6.436904
    9       -4.515311
   10       -4.354172
   11       -2.812887
   12       -2.719540
   13        2.196012
   14        2.598784
   15        4.533256
   16        4.848536
   17        6.967009
   18        7.339075
   19        8.004654
 
  0.1666667E+00  0.4166667E+00  0.0000000E+00  0.3472222E-02
    1      -15.184960
    2      -15.082192
    3      -10.423001
    4      -10.403852
    5       -7.444463
    6       -7.387011
    7       -6.498089
    8       -6.395105
    9       -4.524928
   10       -4.373240
   11       -2.867633
   12       -2.774507
   13        2.340308
   14        2.717851
   15        4.567937
   16        4.911354
   17        6.887305
   18        7.076171
   19        7.745804
 
  0.2500000E+00  0.4166667E+00  0.0000000E+00  0.3472222E-02
    1      -15.152999
    2      -15.067797
    3      -10.516587
    4      -10.494664
    5       -7.405649
    6       -7.342302
    7       -6.428732
    8       -6.341558
    9       -4.533546
   10       -4.400766
   11       -2.942368
   12       -2.854944
   13        2.558303
   14        2.891625
   15        4.643327
   16        5.010091
   17        6.571755
   18        6.708698
   19        7.656045
 
  0.3333333E+00  0.4166667E+00  0.0000000E+00  0.3472222E-02
    1      -15.117319
    2      -15.056112
    3      -10.604810
    4      -10.585852
    5       -7.359466
    6       -7.306126
    7       -6.357372
    8       -6.293768
    9       -4.533417
   10       -4.432340
   11       -3.014982
   12       -2.944294
   13        2.812712
   14        3.074687
   15        4.775194
   16        5.146280
   17        6.124030
   18        6.309630
   19        7.737102
 
  0.4166667E+00  0.4166667E+00  0.0000000E+00  0.3472222E-02
    1      -15.085073
    2      -15.053012
    3      -10.665101
    4      -10.654146
    5       -7.317923
    6       -7.287596
    7       -6.300176
    8       -6.266557
    9       -4.520144
   10       -4.464753
   11       -3.061480
   12       -3.021199
   13        3.046928
   14        3.197084
   15        4.982229
   16        5.325430
   17        5.688472
   18        5.923457
   19        7.878125
 
  0.5000000E+00  0.4166667E+00  0.0000000E+00  0.1736111E-02
    1      -15.062497
    2      -15.062497
    3      -10.682890
    4      -10.682889
    5       -7.291741
    6       -7.291740
    7       -6.268236
    8       -6.268235
    9       -4.495451
   10       -4.495451
   11       -3.064466
   12       -3.064466
   13        3.191810
   14        3.191811
   15        5.274849
   16        5.274849
   17        5.604067
   18        5.604068
   19        8.031635
 
  0.0000000E+00  0.5000000E+00  0.0000000E+00  0.8680556E-03
    1      -15.156989
    2      -15.156989
    3      -10.316510
    4      -10.316509
    5       -7.464470
    6       -7.464470
    7       -6.506601
    8       -6.506600
    9       -4.430125
   10       -4.430125
   11       -2.741316
   12       -2.741316
   13        2.344988
   14        2.344988
   15        4.667552
   16        4.667552
   17        7.170861
   18        7.170862
   19        8.301762
 
  0.8333333E-01  0.5000000E+00  0.0000000E+00  0.1736111E-02
    1      -15.150888
    2      -15.150887
    3      -10.342779
    4      -10.342778
    5       -7.451852
    6       -7.451852
    7       -6.490073
    8       -6.490072
    9       -4.435051
   10       -4.435051
   11       -2.762023
   12       -2.762023
   13        2.390857
   14        2.390858
   15        4.683641
   16        4.683641
   17        7.146318
   18        7.146318
   19        8.093615
 
  0.1666667E+00  0.5000000E+00  0.0000000E+00  0.1736111E-02
    1      -15.134017
    2      -15.134016
    3      -10.413268
    4      -10.413267
    5       -7.418021
    6       -7.418021
    7       -6.445256
    8       -6.445256
    9       -4.447880
   10       -4.447880
   11       -2.819770
   12       -2.819770
   13        2.522408
   14        2.522408
   15        4.733891
   16        4.733891
   17        6.989113
   18        6.989113
   19        7.900354
 
  0.2500000E+00  0.5000000E+00  0.0000000E+00  0.1736111E-02
    1      -15.110547
    2      -15.110547
    3      -10.506926
    4      -10.506925
    5       -7.373002
    6       -7.373002
    7       -6.385195
    8       -6.385194
    9       -4.463619
   10       -4.463619
   11       -2.901809
   12       -2.901809
   13        2.719116
   14        2.719116
   15        4.823220
   16        4.823220
   17        6.639089
   18        6.639089
   19        7.916445
 
  0.3333333E+00  0.5000000E+00  0.0000000E+00  0.1736111E-02
    1      -15.086546
    2      -15.086545
    3      -10.597952
    4      -10.597952
    5       -7.328847
    6       -7.328847
    7       -6.326693
    8       -6.326693
    9       -4.476592
   10       -4.476591
   11       -2.987951
   12       -2.987951
   13        2.940738
   14        2.940738
   15        4.958756
   16        4.958756
   17        6.213221
   18        6.213222
   19        8.015529
 
  0.4166667E+00  0.5000000E+00  0.0000000E+00  0.1736111E-02
    1      -15.068624
    2      -15.068624
    3      -10.663148
    4      -10.663147
    5       -7.296788
    6       -7.296788
    7       -6.285047
    8       -6.285047
    9       -4.483749
   10       -4.483748
   11       -3.054007
   12       -3.054007
   13        3.123935
   14        3.123935
   15        5.150840
   16        5.150841
   17        5.802654
   18        5.802654
   19        8.092810
 
  0.5000000E+00  0.5000000E+00  0.0000000E+00  0.8680556E-03
    1      -15.061985
    2      -15.061985
    3      -10.686734
    4      -10.686734
    5       -7.285070
    6       -7.285070
    7       -6.270074
    8       -6.270073
    9       -4.485759
   10       -4.485759
   11       -3.078893
   12       -3.078892
   13        3.196635
   14        3.196635
   15        5.353560
   16        5.353560
   17        5.517982
   18        5.517982
   19        8.118141
 
  0.0000000E+00  0.0000000E+00  0.1250000E+00  0.1736111E-02
    1      -15.333815
    2      -14.910652
    3      -10.326429
    4      -10.312931
    5       -7.555230
    6       -7.441616
    7       -6.691791
    8       -6.318233
    9       -4.759686
   10       -4.176780
   11       -3.019331
   12       -2.655656
   13        1.646404
   14        3.164194
   15        4.379159
   16        5.337739
   17        6.801351
   18        7.483583
   19        7.802112
 
  0.8333333E-01  0.0000000E+00  0.1250000E+00  0.1736111E-02
    1      -15.320885
    2      -14.912830
    3      -10.356826
    4      -10.327906
    5       -7.603387
    6       -7.451318
    7       -6.583428
    8       -6.311055
    9       -4.685011
   10       -4.210733
   11       -3.015433
   12       -2.752767
   13        1.684825
   14        3.193299
   15        4.285477
   16        5.284460
   17        6.839207
   18        7.278898
   19        8.029236
 
  0.1666667E+00  0.0000000E+00  0.1250000E+00  0.1736111E-02
    1      -15.286324
    2      -14.919360
    3      -10.414576
    4      -10.380212
    5       -7.629130
    6       -7.451532
    7       -6.456946
    8       -6.281436
    9       -4.632529
   10       -4.294152
   11       -2.996497
   12       -2.865133
   13        1.834232
   14        3.271432
   15        4.225778
   16        5.291630
   17        6.874409
   18        6.973009
   19        7.915000
 
  0.2500000E+00  0.0000000E+00  0.1250000E+00  0.1736111E-02
    1      -15.234170
    2      -14.933373
    3      -10.488219
    4      -10.450104
    5       -7.622744
    6       -7.444929
    7       -6.334950
    8       -6.252846
    9       -4.600891
   10       -4.417449
   11       -2.966890
   12       -2.963352
   13        2.071920
   14        3.371043
   15        4.223849
   16        5.358446
   17        6.665660
   18        6.877021
   19        7.489174
 
  0.3333333E+00  0.0000000E+00  0.1250000E+00  0.1736111E-02
    1      -15.170711
    2      -14.958610
    3      -10.561816
    4      -10.514395
    5       -7.585662
    6       -7.436648
    7       -6.249329
    8       -6.232803
    9       -4.579694
   10       -4.563558
   11       -3.038910
   12       -2.919627
   13        2.367993
   14        3.435398
   15        4.308841
   16        5.476183
   17        6.329035
   18        6.796371
   19        7.213269
 
  0.4166667E+00  0.0000000E+00  0.1250000E+00  0.1736111E-02
    1      -15.103764
    2      -14.997703
    3      -10.618232
    4      -10.554230
    5       -7.528110
    6       -7.432256
    7       -6.284659
    8       -6.159378
    9       -4.712851
   10       -4.555411
   11       -3.073828
   12       -2.867514
   13        2.684679
   14        3.395793
   15        4.504782
   16        5.630705
   17        5.970535
   18        6.622590
   19        7.080576
 
  0.5000000E+00  0.0000000E+00  0.1250000E+00  0.1736111E-02
    1      -15.050480
    2      -15.041273
    3      -10.643069
    4      -10.559643
    5       -7.465815
    6       -7.434799
    7       -6.358431
    8       -6.117703
    9       -4.846065
   10       -4.517846
   11       -3.075771
   12       -2.807308
   13        2.975331
   14        3.222117
   15        4.802464
   16        5.577200
   17        5.874178
   18        6.425059
   19        7.026149
 
 -0.4166667E+00  0.0000000E+00  0.1250000E+00  0.1736111E-02
    1      -15.113313
    2      -14.989680
    3      -10.628465
    4      -10.531061
    5       -7.442856
    6       -7.415489
    7       -6.460118
    8       -6.107432
    9       -4.945205
   10       -4.462835
   11       -3.057030
   12       -2.740329
   13        2.934509
   14        3.190709
   15        5.170368
   16        5.254473
   17        6.152852
   18        6.251210
   19        6.996379
 
 -0.3333333E+00  0.0000000E+00  0.1250000E+00  0.1736111E-02
    1      -15.179666
    2      -14.952304
    3      -10.575783
    4      -10.477963
    5       -7.451726
    6       -7.388602
    7       -6.573928
    8       -6.127790
    9       -4.994566
   10       -4.392314
   11       -3.032587
   12       -2.672288
   13        2.584351
   14        3.298701
   15        4.974265
   16        5.549476
   17        6.131325
   18        6.526486
   19        6.981256
 
 -0.2500000E+00  0.0000000E+00  0.1250000E+00  0.1736111E-02
    1      -15.241657
    2      -14.928936
    3      -10.496638
    4      -10.415688
    5       -7.459199
    6       -7.386657
    7       -6.679150
    8       -6.175523
    9       -4.986975
   10       -4.314332
   11       -3.014816
   12       -2.615032
   13        2.232661
   14        3.304182
   15        4.761229
   16        5.697195
   17        6.277999
   18        6.785096
   19        7.170349
 
 -0.1666667E+00  0.0000000E+00  0.1250000E+00  0.1736111E-02
    1      -15.291674
    2      -14.916642
    3      -10.411157
    4      -10.361115
    5       -7.472531
    6       -7.401975
    7       -6.748172
    8       -6.237475
    9       -4.930976
   10       -4.241907
   11       -3.009381
   12       -2.584718
   13        1.934412
   14        3.249054
   15        4.608566
   16        5.582554
   17        6.709064
   18        6.788624
   19        7.641137
 
 -0.8333333E-01  0.0000000E+00  0.1250000E+00  0.1736111E-02
    1      -15.323664
    2      -14.911564
    3      -10.343268
    4      -10.328479
    5       -7.504927
    6       -7.423414
    7       -6.753924
    8       -6.291638
    9       -4.847565
   10       -4.190853
   11       -3.013856
   12       -2.596405
   13        1.731042
   14        3.188630
   15        4.487961
   16        5.443553
   17        6.781474
   18        7.172457
   19        7.991829
 
  0.0000000E+00  0.8333333E-01  0.1250000E+00  0.3472222E-02
    1      -15.327154
    2      -14.918490
    3      -10.325601
    4      -10.311303
    5       -7.558273
    6       -7.445829
    7       -6.685171
    8       -6.322343
    9       -4.750429
   10       -4.186663
   11       -3.009818
   12       -2.656746
   13        1.667180
   14        3.135049
   15        4.384298
   16        5.333907
   17        6.752842
   18        7.550168