       N       E                     dE             d eps       ncg     rms          rms(c)
DAV:   1     0.913049638495E+02    0.91305E+02   -0.13151E+04 13300   0.148E+03
DAV:   2    -0.607407214536E+02   -0.15205E+03   -0.14905E+03 16926   0.234E+02
DAV:   3    -0.719282424606E+02   -0.11188E+02   -0.11150E+02 16761   0.647E+01
DAV:   4    -0.720809488946E+02   -0.15271E+00   -0.15263E+00 16776   0.906E+00
DAV:   5    -0.720832288719E+02   -0.22800E-02   -0.22798E-02 17541   0.102E+00    0.149E+01
DAV:   6    -0.643938071814E+02    0.76894E+01   -0.12725E+01 13909   0.195E+01    0.685E+00
DAV:   7    -0.631133680238E+02    0.12804E+01   -0.37072E+00 17232   0.110E+01    0.265E+00
DAV:   8    -0.630241013629E+02    0.89267E-01   -0.31450E-01 15569   0.359E+00    0.345E-01
DAV:   9    -0.630198277496E+02    0.42736E-02   -0.37529E-02 15642   0.116E+00    0.143E-01
DAV:  10    -0.630218074357E+02   -0.19797E-02   -0.31050E-03 15313   0.402E-01    0.587E-02
DAV:  11    -0.630222070341E+02   -0.39960E-03   -0.37029E-04 15501   0.161E-01    0.150E-02
DAV:  12    -0.630222296966E+02   -0.22662E-04   -0.28495E-05 16641   0.403E-02    0.367E-03
DAV:  13    -0.630222350366E+02   -0.53400E-05   -0.76321E-06 15295   0.220E-02    0.130E-03
DAV:  14    -0.630222351775E+02   -0.14090E-06   -0.35505E-07 17200   0.452E-03    0.646E-04
DAV:  15    -0.630222352086E+02   -0.31090E-07   -0.85990E-08 15340   0.203E-03    0.136E-04
DAV:  16    -0.630222352054E+02    0.31515E-08   -0.35786E-09 14326   0.487E-04
   1 F= -.63695304E+02 E0= -.63695304E+02  d E =-.636953E+02
       N       E                     dE             d eps       ncg     rms          rms(c)
DAV:   1    -0.610481979045E+02    0.19740E+01   -0.18342E+02 14572   0.101E+02    0.449E+00
DAV:   2    -0.612172171215E+02   -0.16902E+00   -0.65197E+00 18368   0.166E+01    0.301E+00
DAV:   3    -0.611104794315E+02    0.10674E+00   -0.40283E-01 17615   0.414E+00    0.113E+00
DAV:   4    -0.611061289663E+02    0.43505E-02   -0.53046E-02 17286   0.158E+00    0.427E-01
DAV:   5    -0.611065974360E+02   -0.46847E-03   -0.74242E-03 17439   0.629E-01    0.865E-02
DAV:   6    -0.611064293232E+02    0.16811E-03   -0.12931E-03 15296   0.256E-01    0.391E-02
DAV:   7    -0.611064149563E+02    0.14367E-04   -0.17412E-04 17574   0.884E-02    0.123E-02
DAV:   8    -0.611064168194E+02   -0.18632E-05   -0.33028E-05 16080   0.359E-02    0.568E-03
DAV:   9    -0.611064166692E+02    0.15017E-06   -0.39845E-06 15040   0.145E-02    0.173E-03
DAV:  10    -0.611064167103E+02   -0.41024E-07   -0.59551E-07 17559   0.489E-03    0.872E-04
DAV:  11    -0.611064167511E+02   -0.40813E-07   -0.52424E-08 15507   0.170E-03    0.201E-04
DAV:  12    -0.611064167596E+02   -0.84915E-08   -0.60072E-09  8783   0.534E-04
   2 F= -.61795162E+02 E0= -.61795162E+02  d E =0.190014E+01
       N       E                     dE             d eps       ncg     rms          rms(c)
DAV:   1    -0.635960325951E+02   -0.24896E+01   -0.91565E+01 13831   0.673E+01    0.273E+00
DAV:   2    -0.636617704019E+02   -0.65738E-01   -0.23061E+00 18041   0.107E+01    0.212E+00
DAV:   3    -0.636065485156E+02    0.55222E-01   -0.57392E-01 15740   0.477E+00    0.671E-01
DAV:   4    -0.635889911941E+02    0.17557E-01   -0.10701E-01 14848   0.204E+00    0.318E-01
DAV:   5    -0.635892313175E+02   -0.24012E-03   -0.70800E-03 16199   0.614E-01    0.416E-02
DAV:   6    -0.635892384797E+02   -0.71622E-05   -0.57288E-04 17162   0.160E-01    0.280E-02
DAV:   7    -0.635892432430E+02   -0.47633E-05   -0.17624E-04 15537   0.873E-02    0.139E-02
DAV:   8    -0.635892410223E+02    0.22207E-05   -0.40849E-05 15012   0.411E-02    0.378E-03
DAV:   9    -0.635892410706E+02   -0.48277E-07   -0.22129E-06 16353   0.119E-02    0.118E-03
DAV:  10    -0.635892411323E+02   -0.61665E-07   -0.21314E-07 17100   0.313E-03    0.514E-04
DAV:  11    -0.635892411645E+02   -0.32163E-07   -0.33274E-08 16355   0.150E-03    0.138E-04
DAV:  12    -0.635892411609E+02    0.35683E-08   -0.53284E-09  9077   0.526E-04
   3 F= -.64264371E+02 E0= -.64264371E+02  d E =-.569067E+00
       N       E                     dE             d eps       ncg     rms          rms(c)
DAV:   1    -0.637775127344E+02   -0.18827E+00   -0.59001E+01 13300   0.581E+01    0.245E+00
DAV:   2    -0.636424954785E+02    0.13502E+00   -0.80074E-01 17541   0.643E+00    0.125E+00
DAV:   3    -0.636228804650E+02    0.19615E-01   -0.26337E-01 15307   0.290E+00    0.371E-01
DAV:   4    -0.636207127913E+02    0.21677E-02   -0.27495E-02 15238   0.967E-01    0.236E-01
DAV:   5    -0.636209260134E+02   -0.21322E-03   -0.21032E-03 17880   0.337E-01    0.325E-02
DAV:   6    -0.636209205451E+02    0.54684E-05   -0.21122E-04 16489   0.948E-02    0.166E-02
DAV:   7    -0.636209250868E+02   -0.45417E-05   -0.43781E-05 15988   0.459E-02    0.723E-03
DAV:   8    -0.636209237219E+02    0.13649E-05   -0.10553E-05 15581   0.195E-02    0.181E-03
DAV:   9    -0.636209243543E+02   -0.63248E-06   -0.71929E-07 15671   0.593E-03    0.103E-03
DAV:  10    -0.636209243245E+02    0.29824E-07   -0.67275E-08 18065   0.196E-03    0.271E-04
DAV:  11    -0.636209243058E+02    0.18761E-07   -0.31426E-08 15083   0.117E-03    0.186E-04
DAV:  12    -0.636209243087E+02   -0.29290E-08   -0.35006E-09  8885   0.411E-04
   4 F= -.64302199E+02 E0= -.64302199E+02  d E =-.378273E-01
       N       E                     dE             d eps       ncg     rms          rms(c)
DAV:   1    -0.639039329922E+02   -0.28301E+00   -0.14171E+01 13300   0.284E+01    0.106E+00
DAV:   2    -0.638875726138E+02    0.16360E-01   -0.21828E-01 17209   0.356E+00    0.670E-01
DAV:   3    -0.638815755850E+02    0.59970E-02   -0.10283E-01 14954   0.180E+00    0.260E-01
DAV:   4    -0.638786260540E+02    0.29495E-02   -0.14917E-02 14798   0.702E-01    0.118E-01
DAV:   5    -0.638788022445E+02   -0.17619E-03   -0.85103E-04 17528   0.207E-01    0.208E-02
DAV:   6    -0.638787895399E+02    0.12705E-04   -0.61060E-05 15981   0.495E-02    0.101E-02
DAV:   7    -0.638787905323E+02   -0.99249E-06   -0.11741E-05 15292   0.232E-02    0.280E-03
DAV:   8    -0.638787902705E+02    0.26187E-06   -0.20570E-06 17133   0.879E-03    0.916E-04
DAV:   9    -0.638787902628E+02    0.76811E-08   -0.19697E-07 16809   0.296E-03    0.665E-04
DAV:  10    -0.638787902837E+02   -0.20915E-07   -0.55471E-08 15614   0.153E-03    0.976E-05
DAV:  11    -0.638787902757E+02    0.79680E-08   -0.48308E-09  9133   0.528E-04
   5 F= -.64557007E+02 E0= -.64557007E+02  d E =-.292636E+00
       N       E                     dE             d eps       ncg     rms          rms(c)
DAV:   1    -0.637651233809E+02    0.11367E+00   -0.14477E+01 13444   0.281E+01    0.826E-01
DAV:   2    -0.637715358146E+02   -0.64124E-02   -0.21460E-01 17550   0.340E+00    0.614E-01
DAV:   3    -0.637658726200E+02    0.56632E-02   -0.44378E-02 15455   0.143E+00    0.138E-01
DAV:   4    -0.637652051880E+02    0.66743E-03   -0.75839E-03 15055   0.595E-01    0.843E-02
DAV:   5    -0.637652261616E+02   -0.20974E-04   -0.49883E-04 17832   0.162E-01    0.222E-02
DAV:   6    -0.637652247875E+02    0.13740E-05   -0.41837E-05 16558   0.402E-02    0.984E-03
DAV:   7    -0.637652276146E+02   -0.28271E-05   -0.94327E-06 15640   0.207E-02    0.360E-03
DAV:   8    -0.637652273064E+02    0.30820E-06   -0.12129E-06 17438   0.629E-03    0.153E-03
DAV:   9    -0.637652275046E+02   -0.19811E-06   -0.31928E-07 15140   0.389E-03    0.448E-04
DAV:  10    -0.637652274782E+02    0.26371E-07   -0.22726E-08 18288   0.105E-03    0.209E-04
DAV:  11    -0.637652274718E+02    0.64255E-08   -0.43877E-09  9345   0.458E-04
   6 F= -.64443055E+02 E0= -.64443055E+02  d E =0.113952E+00
       N       E                     dE             d eps       ncg     rms          rms(c)
DAV:   1    -0.639080304852E+02   -0.14280E+00   -0.69608E+00 13396   0.197E+01    0.582E-01
DAV:   2    -0.639093917429E+02   -0.13613E-02   -0.91946E-02 17652   0.222E+00    0.421E-01
DAV:   3    -0.639065621455E+02    0.28296E-02   -0.15343E-02 15709   0.849E-01    0.744E-02
DAV:   4    -0.639065591808E+02    0.29648E-05   -0.22248E-03 15235   0.312E-01    0.598E-02
DAV:   5    -0.639065570197E+02    0.21611E-05   -0.15271E-04 17424   0.101E-01    0.101E-02
DAV:   6    -0.639065580782E+02   -0.10585E-05   -0.26151E-05 16467   0.317E-02    0.672E-03
DAV:   7    -0.639065578415E+02    0.23661E-06   -0.45475E-06 15032   0.148E-02    0.214E-03
DAV:   8    -0.639065577714E+02    0.70126E-07   -0.86795E-07 17927   0.541E-03    0.652E-04
DAV:   9    -0.639065577511E+02    0.20350E-07   -0.86641E-08 15096   0.213E-03    0.309E-04
DAV:  10    -0.639065577657E+02   -0.14679E-07   -0.47457E-09 13359   0.533E-04    0.121E-04
DAV:  11    -0.639065577695E+02   -0.37629E-08   -0.24676E-09  8644   0.348E-04
   7 F= -.64584628E+02 E0= -.64584628E+02  d E =-.276206E-01
       N       E                     dE             d eps       ncg     rms          rms(c)
DAV:   1    -0.639396050163E+02   -0.33047E-01   -0.10440E+00 13528   0.823E+00    0.263E-01
DAV:   2    -0.639401574578E+02   -0.55244E-03   -0.12018E-02 17818   0.766E-01    0.176E-01
DAV:   3    -0.639399800153E+02    0.17744E-03   -0.10007E-03 15652   0.203E-01    0.329E-02
DAV:   4    -0.639399944710E+02   -0.14456E-04   -0.74091E-05 16366   0.520E-02    0.144E-02
DAV:   5    -0.639399998714E+02   -0.54003E-05   -0.10438E-05 16714   0.208E-02    0.388E-03
DAV:   6    -0.639400005684E+02   -0.69701E-06   -0.82536E-07 17001   0.597E-03    0.142E-03
DAV:   7    -0.639400008278E+02   -0.25941E-06   -0.19335E-07 16350   0.320E-03    0.394E-04
DAV:   8    -0.639400008195E+02    0.82583E-08   -0.27700E-08 14503   0.116E-03
   8 F= -.64617852E+02 E0= -.64617852E+02  d E =-.332243E-01
       N       E                     dE             d eps       ncg     rms          rms(c)
DAV:   1    -0.639443574736E+02   -0.43566E-02   -0.27936E-01 13579   0.425E+00    0.138E-01
DAV:   2    -0.639445002763E+02   -0.14280E-03   -0.32171E-03 17809   0.396E-01    0.922E-02
DAV:   3    -0.639444544901E+02    0.45786E-04   -0.26898E-04 15670   0.106E-01    0.168E-02
DAV:   4    -0.639444587668E+02   -0.42767E-05   -0.20764E-05 16428   0.272E-02    0.737E-03
DAV:   5    -0.639444604497E+02   -0.16829E-05   -0.24795E-06 16713   0.103E-02    0.198E-03
DAV:   6    -0.639444606936E+02   -0.24383E-06   -0.19755E-07 17044   0.294E-03    0.698E-04
DAV:   7    -0.639444607679E+02   -0.74295E-07   -0.47667E-08 16392   0.159E-03    0.200E-04
DAV:   8    -0.639444607599E+02    0.79639E-08   -0.76915E-09 13785   0.615E-04
   9 F= -.64622201E+02 E0= -.64622201E+02  d E =-.375731E-01
       N       E                     dE             d eps       ncg     rms          rms(c)
DAV:   1    -0.639380156404E+02    0.64451E-02   -0.48299E-01 14538   0.518E+00    0.180E-01
DAV:   2    -0.639389615091E+02   -0.94587E-03   -0.15116E-02 18098   0.833E-01    0.159E-01
DAV:   3    -0.639385948917E+02    0.36662E-03   -0.11563E-03 17160   0.267E-01    0.349E-02
DAV:   4    -0.639386071623E+02   -0.12271E-04   -0.20851E-04 15332   0.961E-02    0.237E-02
DAV:   5    -0.639386045483E+02    0.26140E-05   -0.11588E-05 17115   0.290E-02    0.294E-03
DAV:   6    -0.639386046392E+02   -0.90874E-07   -0.29300E-06 15642   0.109E-02    0.156E-03
DAV:   7    -0.639386045625E+02    0.76744E-07   -0.23499E-07 17053   0.360E-03    0.840E-04
DAV:   8    -0.639386045573E+02    0.51227E-08   -0.58686E-08 15200   0.152E-03
  10 F= -.64616264E+02 E0= -.64616264E+02  d E =0.593641E-02
       N       E                     dE             d eps       ncg     rms          rms(c)
DAV:   1    -0.639455054154E+02   -0.69009E-02   -0.23922E-01 14516   0.364E+00    0.127E-01
DAV:   2    -0.639459498599E+02   -0.44444E-03   -0.72776E-03 18019   0.578E-01    0.111E-01
DAV:   3    -0.639457740998E+02    0.17576E-03   -0.58494E-04 17166   0.190E-01    0.232E-02
DAV:   4    -0.639457803419E+02   -0.62421E-05   -0.10466E-04 15250   0.689E-02    0.164E-02
DAV:   5    -0.639457799623E+02    0.37953E-06   -0.59740E-06 16863   0.209E-02    0.200E-03
DAV:   6    -0.639457799940E+02   -0.31607E-07   -0.14691E-06 15681   0.778E-03    0.113E-03
DAV:   7    -0.639457800270E+02   -0.33044E-07   -0.12463E-07 17015   0.267E-03    0.568E-04
DAV:   8    -0.639457800253E+02    0.16753E-08   -0.33079E-08 12664   0.115E-03
  11 F= -.64623494E+02 E0= -.64623494E+02  d E =-.129338E-02
