ethylene                                
           1
     4.595034    0.000000    0.000000
     0.000000    6.095261    0.000000
     0.000000    0.000000    3.906251
   C    H 
   4   8
Direct configuration=     1
   0.88344002  0.05382000  0.95924997
   0.11656000  0.94617999  0.04075000
   0.61655998  0.55382001  0.54075003
   0.38344002  0.44617999  0.45925000
   0.81309998  0.16980000  0.11850000
   0.18690000  0.83020002  0.88150001
   0.68690002  0.66979998  0.38150001
   0.31309998  0.33020002  0.61849999
   0.75699997  0.02870000  0.73109996
   0.24300000  0.97130001  0.26890001
   0.74300003  0.52869999  0.76890004
   0.25700000  0.47130001  0.23109999
Direct configuration=     2
   0.88001037  0.04559539  0.93658368
   0.11998964  0.95440460  0.06341629
   0.61998963  0.54559540  0.56341632
   0.38001037  0.45440460  0.43658371
   0.79590319  0.19430108  0.14899971
   0.20409680  0.80569893  0.85100030
   0.70409681  0.69430107  0.35100030
   0.29590319  0.30569893  0.64899970
   0.75583877  0.02669332  0.72505608
   0.24416120  0.97330669  0.27494389
   0.74416123  0.52669331  0.77494392
   0.25583880  0.47330669  0.22505611
Direct configuration=     3
   0.88245999  0.05146980  0.95277303
   0.11754003  0.94853019  0.04722694
   0.61754001  0.55146981  0.54722697
   0.38245999  0.44853019  0.45277306
   0.80818596  0.17680123  0.12721536
   0.19181402  0.82319878  0.87278465
   0.69181404  0.67680122  0.37278465
   0.30818596  0.32319878  0.62721535
   0.75666816  0.02812659  0.72937291
   0.24333181  0.97187342  0.27062706
   0.74333184  0.52812658  0.77062709
   0.25666819  0.47187342  0.22937294
Direct configuration=     4
   0.87509068  0.06009247  0.96174839
   0.12490934  0.93990752  0.03825159
   0.62490932  0.56009248  0.53825161
   0.37509068  0.43990752  0.46174842
   0.79795491  0.18776760  0.13748433
   0.20204507  0.81223241  0.86251568
   0.70204509  0.68776759  0.36251568
   0.29795491  0.31223241  0.63748432
   0.75277929  0.02472798  0.71652556
   0.24722068  0.97527203  0.28347441
   0.74722071  0.52472797  0.78347444
   0.25277932  0.47527203  0.21652559
Direct configuration=     5
   0.87872845  0.05583599  0.95731781
   0.12127156  0.94416400  0.04268217
   0.62127155  0.55583600  0.54268219
   0.37872845  0.44416400  0.45731784
   0.80300535  0.18235418  0.13241517
   0.19699463  0.81764583  0.86758484
   0.69699465  0.68235417  0.36758484
   0.30300535  0.31764583  0.63241516
   0.75469898  0.02640566  0.72286750
   0.24530099  0.97359435  0.27713247
   0.74530102  0.52640565  0.77713250
   0.25469901  0.47359435  0.22286753
Direct configuration=     6
   0.88402972  0.05585804  0.96461962
   0.11597030  0.94414195  0.03538035
   0.61597028  0.55585805  0.53538038
   0.38402972  0.44414195  0.46461965
   0.79942287  0.18466719  0.13271304
   0.20057712  0.81533283  0.86728697
   0.70057713  0.68466717  0.36728697
   0.29942287  0.31533283  0.63271303
   0.75542500  0.02586988  0.72268461
   0.24457497  0.97413013  0.27731536
   0.74457500  0.52586987  0.77731539
   0.25542503  0.47413013  0.22268464
Direct configuration=     7
   0.88036371  0.05584279  0.95957017
   0.11963631  0.94415720  0.04042981
   0.61963629  0.55584280  0.54042983
   0.38036371  0.44415720  0.45957020
   0.80190028  0.18306766  0.13250705
   0.19809971  0.81693235  0.86749296
   0.69809972  0.68306765  0.36749296
   0.30190028  0.31693235  0.63250704
   0.75492294  0.02624039  0.72281109
   0.24507703  0.97375962  0.27718888
   0.74507706  0.52624038  0.77718891
   0.25492297  0.47375962  0.22281112
Direct configuration=     8
   0.88039216  0.05675774  0.96164108
   0.11960785  0.94324225  0.03835889
   0.61960784  0.55675775  0.53835892
   0.38039216  0.44324225  0.46164111
   0.79952549  0.18420738  0.13187404
   0.20047449  0.81579264  0.86812597
   0.70047451  0.68420736  0.36812597
   0.29952549  0.31579264  0.63187403
   0.75716525  0.02635162  0.72614458
   0.24283472  0.97364838  0.27385539
   0.74283475  0.52635162  0.77385542
   0.25716528  0.47364838  0.22614461
Direct configuration=     9
   0.88040687  0.05723074  0.96271168
   0.11959314  0.94276924  0.03728829
   0.61959313  0.55723076  0.53728832
   0.38040687  0.44276924  0.46271171
   0.79829780  0.18479658  0.13154680
   0.20170218  0.81520344  0.86845321
   0.70170220  0.68479656  0.36845321
   0.29829780  0.31520344  0.63154679
   0.75832446  0.02640913  0.72786789
   0.24167551  0.97359088  0.27213208
   0.74167554  0.52640912  0.77213211
   0.25832449  0.47359088  0.22786792
Direct configuration=    10
   0.88099041  0.05654871  0.96203789
   0.11900961  0.94345128  0.03796208
   0.61900959  0.55654872  0.53796211
   0.38099041  0.44345128  0.46203792
   0.79729361  0.18555000  0.13193639
   0.20270637  0.81445001  0.86806362
   0.70270639  0.68554999  0.36806362
   0.29729361  0.31445001  0.63193638
   0.75868129  0.02665829  0.72893855
   0.24131868  0.97334172  0.27106142
   0.74131871  0.52665828  0.77106145
   0.25868132  0.47334172  0.22893858
Direct configuration=    11
   0.88057970  0.05702874  0.96251213
   0.11942032  0.94297124  0.03748785
   0.61942030  0.55702876  0.53748787
   0.38057970  0.44297124  0.46251216
   0.79800040  0.18501972  0.13166218
   0.20199959  0.81498030  0.86833783
   0.70199960  0.68501970  0.36833783
   0.29800040  0.31498030  0.63166217
   0.75843014  0.02648292  0.72818498
   0.24156983  0.97351709  0.27181499
   0.74156986  0.52648291  0.77181502
   0.25843017  0.47351709  0.22818501
