  32  32   0   0
  0.9167123E+01  0.4932875E-09  0.4932875E-09  0.1392668E-08  0.5000000E-15
  1.000000000000000E-004
  CAR 
 graphite                                
     15.20002276    -17.24090155  301      4.35850241      1.00000000
    -17.241  0.0000E+00  0.0000E+00
    -17.133  0.0000E+00  0.0000E+00
    -17.025  0.0000E+00  0.0000E+00
    -16.916  0.0000E+00  0.0000E+00
    -16.808  0.0000E+00  0.0000E+00
    -16.700  0.0000E+00  0.0000E+00
    -16.592  0.0000E+00  0.0000E+00
    -16.484  0.0000E+00  0.0000E+00
    -16.376  0.0000E+00  0.0000E+00
    -16.268  0.0000E+00  0.0000E+00
    -16.160  0.0000E+00  0.0000E+00
    -16.051  0.0000E+00  0.0000E+00
    -15.943  0.0000E+00  0.0000E+00
    -15.835  0.0000E+00  0.0000E+00
    -15.727  0.0000E+00  0.0000E+00
    -15.619  0.0000E+00  0.0000E+00
    -15.511  0.0000E+00  0.0000E+00
    -15.403  0.0000E+00  0.0000E+00
    -15.294  0.0000E+00  0.0000E+00
    -15.186  0.1278E+01  0.2707E-01
    -15.078  0.2888E+01  0.2622E+00
    -14.970  0.5160E+01  0.6984E+00
    -14.862  0.4915E+01  0.1226E+01
    -14.754  0.4913E+01  0.1761E+01
    -14.646  0.4957E+01  0.2294E+01
    -14.537  0.4936E+01  0.2830E+01
    -14.429  0.4911E+01  0.3359E+01
    -14.321  0.5013E+01  0.3896E+01
    -14.213  0.4992E+01  0.4437E+01
    -14.105  0.4963E+01  0.4975E+01
    -13.997  0.5716E+01  0.5551E+01
    -13.889  0.6033E+01  0.6186E+01
    -13.781  0.6532E+01  0.6893E+01
    -13.672  0.4966E+01  0.7477E+01
    -13.564  0.1771E+01  0.7763E+01
    -13.456  0.3893E+01  0.8048E+01
    -13.348  0.4483E+01  0.8526E+01
    -13.240  0.4591E+01  0.9015E+01
    -13.132  0.6531E+01  0.9785E+01
    -13.024  0.5524E+01  0.1052E+02
    -12.915  0.4367E+01  0.1100E+02
    -12.807  0.4515E+01  0.1148E+02
    -12.699  0.4626E+01  0.1197E+02
    -12.591  0.4737E+01  0.1248E+02
    -12.483  0.5310E+01  0.1302E+02
    -12.375  0.6195E+01  0.1363E+02
    -12.267  0.5425E+01  0.1425E+02
    -12.158  0.5602E+01  0.1484E+02
    -12.050  0.5127E+01  0.1542E+02
    -11.942  0.4809E+01  0.1595E+02
    -11.834  0.4913E+01  0.1648E+02
    -11.726  0.4997E+01  0.1702E+02
    -11.618  0.5055E+01  0.1756E+02
    -11.510  0.5196E+01  0.1811E+02
    -11.402  0.5543E+01  0.1869E+02
    -11.293  0.5839E+01  0.1931E+02
    -11.185  0.5719E+01  0.1994E+02
    -11.077  0.5671E+01  0.2055E+02
    -10.969  0.5772E+01  0.2117E+02
    -10.861  0.5176E+01  0.2178E+02
    -10.753  0.4861E+01  0.2230E+02
    -10.645  0.5336E+01  0.2286E+02
    -10.536  0.5356E+01  0.2344E+02
    -10.428  0.5479E+01  0.2402E+02
    -10.320  0.5694E+01  0.2463E+02
    -10.212  0.5932E+01  0.2526E+02
    -10.104  0.7592E+01  0.2598E+02
     -9.996  0.9670E+01  0.2701E+02
     -9.888  0.6390E+01  0.2787E+02
     -9.779  0.7296E+01  0.2849E+02
     -9.671  0.9203E+01  0.2924E+02
     -9.563  0.3557E+01  0.2969E+02
     -9.455  0.3188E+01  0.3006E+02
     -9.347  0.2820E+01  0.3038E+02
     -9.239  0.2451E+01  0.3067E+02
     -9.131  0.2451E+01  0.3092E+02
     -9.023  0.3071E+01  0.3125E+02
     -8.914  0.1431E+01  0.3151E+02
     -8.806  0.1687E+01  0.3166E+02
     -8.698  0.2601E+01  0.3189E+02
     -8.590  0.7335E+01  0.3236E+02
     -8.482  0.4355E+01  0.3309E+02
     -8.374  0.3945E+01  0.3352E+02
     -8.266  0.4273E+01  0.3396E+02
     -8.157  0.7664E+01  0.3463E+02
     -8.049  0.6373E+01  0.3539E+02
     -7.941  0.7459E+01  0.3614E+02
     -7.833  0.8532E+01  0.3700E+02
     -7.725  0.7943E+01  0.3795E+02
     -7.617  0.6266E+01  0.3868E+02
     -7.509  0.6008E+01  0.3934E+02
     -7.400  0.5754E+01  0.3998E+02
     -7.292  0.5524E+01  0.4059E+02
     -7.184  0.5336E+01  0.4117E+02
     -7.076  0.5155E+01  0.4174E+02
     -6.968  0.4959E+01  0.4229E+02
     -6.860  0.4848E+01  0.4282E+02
     -6.752  0.4819E+01  0.4334E+02
     -6.644  0.4788E+01  0.4386E+02
     -6.535  0.4616E+01  0.4437E+02
     -6.427  0.4413E+01  0.4486E+02
     -6.319  0.4208E+01  0.4533E+02
     -6.211  0.4035E+01  0.4574E+02
     -6.103  0.4346E+01  0.4619E+02
     -5.995  0.4973E+01  0.4669E+02
     -5.887  0.5836E+01  0.4727E+02
     -5.778  0.6598E+01  0.4795E+02
     -5.670  0.1062E+02  0.4891E+02
     -5.562  0.8373E+01  0.4993E+02
     -5.454  0.6130E+01  0.5072E+02
     -5.346  0.3887E+01  0.5126E+02
     -5.238  0.2691E+01  0.5159E+02
     -5.130  0.3145E+01  0.5189E+02
     -5.021  0.4412E+01  0.5230E+02
     -4.913  0.5719E+01  0.5285E+02
     -4.805  0.7369E+01  0.5355E+02
     -4.697  0.7903E+01  0.5441E+02
     -4.589  0.6699E+01  0.5520E+02
     -4.481  0.5607E+01  0.5586E+02
     -4.373  0.7704E+01  0.5653E+02
     -4.265  0.7212E+01  0.5733E+02
     -4.156  0.6699E+01  0.5809E+02
     -4.048  0.6187E+01  0.5878E+02
     -3.940  0.5943E+01  0.5943E+02
     -3.832  0.6760E+01  0.6009E+02
     -3.724  0.1001E+02  0.6126E+02
     -3.616  0.9322E+01  0.6234E+02
     -3.508  0.7796E+01  0.6326E+02
     -3.399  0.6731E+01  0.6404E+02
     -3.291  0.6844E+01  0.6476E+02
     -3.183  0.7621E+01  0.6554E+02
     -3.075  0.8728E+01  0.6642E+02
     -2.967  0.1064E+02  0.6745E+02
     -2.859  0.1396E+02  0.6884E+02
     -2.751  0.1203E+02  0.7037E+02
     -2.642  0.1241E+02  0.7169E+02
     -2.534  0.1291E+02  0.7310E+02
     -2.426  0.1574E+02  0.7454E+02
     -2.318  0.1238E+02  0.7608E+02
     -2.210  0.1946E+02  0.7762E+02
     -2.102  0.1165E+02  0.7932E+02
     -1.994  0.1757E+02  0.8067E+02
     -1.886  0.1701E+02  0.8280E+02
     -1.777  0.1769E+02  0.8474E+02
     -1.669  0.1472E+02  0.8657E+02
     -1.561  0.1107E+02  0.8794E+02
     -1.453  0.9442E+01  0.8904E+02
     -1.345  0.1135E+02  0.9006E+02
     -1.237  0.8514E+01  0.9102E+02
     -1.129  0.1135E+02  0.9209E+02
     -1.020  0.1292E+02  0.9345E+02
     -0.912  0.1945E+02  0.9494E+02
     -0.804  0.9213E+01  0.9624E+02
     -0.696  0.1035E+02  0.9733E+02
     -0.588  0.1044E+02  0.9849E+02
     -0.480  0.1046E+02  0.9962E+02
     -0.372  0.1086E+02  0.1008E+03
     -0.263  0.9413E+01  0.1019E+03
     -0.155  0.9591E+01  0.1029E+03
     -0.047  0.9546E+01  0.1040E+03
      0.061  0.9455E+01  0.1050E+03
      0.169  0.9171E+01  0.1060E+03
      0.277  0.9154E+01  0.1070E+03
      0.385  0.9548E+01  0.1080E+03
      0.493  0.9368E+01  0.1090E+03
      0.602  0.9481E+01  0.1101E+03
      0.710  0.9151E+01  0.1111E+03
      0.818  0.9210E+01  0.1120E+03
      0.926  0.9454E+01  0.1131E+03
      1.034  0.9452E+01  0.1141E+03
      1.142  0.9753E+01  0.1151E+03
      1.250  0.9845E+01  0.1162E+03
      1.359  0.7024E+01  0.1171E+03
      1.467  0.6367E+01  0.1179E+03
      1.575  0.5638E+01  0.1185E+03
      1.683  0.4715E+01  0.1191E+03
      1.791  0.4041E+01  0.1195E+03
      1.899  0.3826E+01  0.1199E+03
      2.007  0.6873E+01  0.1205E+03
      2.116  0.9866E+01  0.1214E+03
      2.224  0.7092E+01  0.1223E+03
      2.332  0.7951E+01  0.1233E+03
      2.440  0.5842E+01  0.1240E+03
      2.548  0.4857E+01  0.1246E+03
      2.656  0.4146E+01  0.1251E+03
      2.764  0.3538E+01  0.1255E+03
      2.872  0.3206E+01  0.1259E+03
      2.981  0.3043E+01  0.1262E+03
      3.089  0.2782E+01  0.1265E+03
      3.197  0.2330E+01  0.1268E+03
      3.305  0.2026E+01  0.1270E+03
      3.413  0.1796E+01  0.1272E+03
      3.521  0.1559E+01  0.1274E+03
      3.629  0.1319E+01  0.1276E+03
      3.738  0.1084E+01  0.1277E+03
      3.846  0.8490E+00  0.1278E+03
      3.954  0.6317E+00  0.1279E+03
      4.062  0.4419E+00  0.1279E+03
      4.170  0.2680E+00  0.1280E+03
      4.278  0.1073E+00  0.1280E+03
      4.386  0.2150E-01  0.1280E+03
      4.495  0.1425E+00  0.1280E+03
      4.603  0.2768E+00  0.1280E+03
      4.711  0.4282E+00  0.1281E+03
      4.819  0.6007E+00  0.1281E+03
      4.927  0.8128E+00  0.1282E+03
      5.035  0.1070E+01  0.1283E+03
      5.143  0.1455E+01  0.1284E+03
      5.251  0.1835E+01  0.1286E+03
      5.360  0.2204E+01  0.1288E+03
      5.468  0.2633E+01  0.1291E+03
      5.576  0.2811E+01  0.1294E+03
      5.684  0.3509E+01  0.1297E+03
      5.792  0.4403E+01  0.1302E+03
      5.900  0.7854E+01  0.1309E+03
      6.008  0.8231E+01  0.1319E+03
      6.117  0.8403E+01  0.1328E+03
      6.225  0.8512E+01  0.1337E+03
      6.333  0.6733E+01  0.1346E+03
      6.441  0.6241E+01  0.1353E+03
      6.549  0.6149E+01  0.1359E+03
      6.657  0.5505E+01  0.1366E+03
      6.765  0.4994E+01  0.1371E+03
      6.874  0.4405E+01  0.1376E+03
      6.982  0.3734E+01  0.1381E+03
      7.090  0.3619E+01  0.1385E+03
      7.198  0.3984E+01  0.1389E+03
      7.306  0.4509E+01  0.1393E+03
      7.414  0.4755E+01  0.1398E+03
      7.522  0.4574E+01  0.1403E+03
      7.630  0.4431E+01  0.1408E+03
      7.739  0.4280E+01  0.1413E+03
      7.847  0.4132E+01  0.1417E+03
      7.955  0.3981E+01  0.1422E+03
      8.063  0.3817E+01  0.1426E+03
      8.171  0.3670E+01  0.1430E+03
      8.279  0.3561E+01  0.1434E+03
      8.387  0.3490E+01  0.1438E+03
      8.496  0.3700E+01  0.1442E+03
      8.604  0.3876E+01  0.1446E+03
      8.712  0.3959E+01  0.1450E+03
      8.820  0.4035E+01  0.1454E+03
      8.928  0.4189E+01  0.1459E+03
      9.036  0.4258E+01  0.1463E+03
      9.144  0.4305E+01  0.1468E+03
      9.253  0.4245E+01  0.1473E+03
      9.361  0.4102E+01  0.1477E+03
      9.469  0.4091E+01  0.1482E+03
      9.577  0.4076E+01  0.1486E+03
      9.685  0.4075E+01  0.1490E+03
      9.793  0.4179E+01  0.1495E+03
      9.901  0.4360E+01  0.1499E+03
     10.009  0.4465E+01  0.1504E+03
     10.118  0.4546E+01  0.1509E+03
     10.226  0.4779E+01  0.1514E+03
     10.334  0.5768E+01  0.1520E+03
     10.442  0.5034E+01  0.1526E+03
     10.550  0.4848E+01  0.1531E+03
     10.658  0.4849E+01  0.1536E+03
     10.766  0.7446E+01  0.1542E+03
     10.875  0.3812E+01  0.1547E+03
     10.983  0.4090E+01  0.1551E+03
     11.091  0.3555E+01  0.1555E+03
     11.199  0.3461E+01  0.1559E+03
     11.307  0.2854E+01  0.1563E+03
     11.415  0.3797E+01  0.1566E+03
     11.523  0.4349E+01  0.1570E+03
     11.632  0.5391E+01  0.1575E+03
     11.740  0.7627E+01  0.1583E+03
     11.848  0.1104E+02  0.1593E+03
     11.956  0.1260E+02  0.1606E+03
     12.064  0.1407E+02  0.1620E+03
     12.172  0.1312E+02  0.1635E+03
     12.280  0.1066E+02  0.1648E+03
     12.388  0.8064E+01  0.1658E+03
     12.497  0.5679E+01  0.1665E+03
     12.605  0.4753E+01  0.1671E+03
     12.713  0.3285E+01  0.1675E+03
     12.821  0.1969E+01  0.1678E+03
     12.929  0.1099E+01  0.1679E+03
     13.037  0.1452E+00  0.1680E+03
     13.145  0.5513E-02  0.1680E+03
     13.254  0.0000E+00  0.1680E+03
     13.362  0.0000E+00  0.1680E+03
     13.470  0.0000E+00  0.1680E+03
     13.578  0.0000E+00  0.1680E+03
     13.686  0.0000E+00  0.1680E+03
     13.794  0.0000E+00  0.1680E+03
     13.902  0.0000E+00  0.1680E+03
     14.011  0.0000E+00  0.1680E+03
     14.119  0.0000E+00  0.1680E+03
     14.227  0.0000E+00  0.1680E+03
     14.335  0.0000E+00  0.1680E+03
     14.443  0.0000E+00  0.1680E+03
     14.551  0.0000E+00  0.1680E+03
     14.659  0.0000E+00  0.1680E+03
     14.767  0.0000E+00  0.1680E+03
     14.876  0.0000E+00  0.1680E+03
     14.984  0.0000E+00  0.1680E+03
     15.092  0.0000E+00  0.1680E+03
     15.200  0.0000E+00  0.1680E+03
