  32  32   0   0
  0.9306161E+01  0.4934311E-09  0.4934311E-09  0.1412406E-08  0.5000000E-15
  1.000000000000000E-004
  CAR 
 graphite                                
     15.04616005    -17.34621260  301      4.23350251      1.00000000
    -17.346  0.0000E+00  0.0000E+00
    -17.238  0.0000E+00  0.0000E+00
    -17.130  0.0000E+00  0.0000E+00
    -17.022  0.0000E+00  0.0000E+00
    -16.914  0.0000E+00  0.0000E+00
    -16.806  0.0000E+00  0.0000E+00
    -16.698  0.0000E+00  0.0000E+00
    -16.590  0.0000E+00  0.0000E+00
    -16.482  0.0000E+00  0.0000E+00
    -16.374  0.0000E+00  0.0000E+00
    -16.266  0.0000E+00  0.0000E+00
    -16.158  0.0000E+00  0.0000E+00
    -16.051  0.0000E+00  0.0000E+00
    -15.943  0.0000E+00  0.0000E+00
    -15.835  0.0000E+00  0.0000E+00
    -15.727  0.0000E+00  0.0000E+00
    -15.619  0.0000E+00  0.0000E+00
    -15.511  0.0000E+00  0.0000E+00
    -15.403  0.0000E+00  0.0000E+00
    -15.295  0.1241E+01  0.2480E-01
    -15.187  0.3089E+01  0.2711E+00
    -15.079  0.5046E+01  0.7442E+00
    -14.971  0.4948E+01  0.1268E+01
    -14.863  0.4897E+01  0.1800E+01
    -14.755  0.4981E+01  0.2336E+01
    -14.647  0.4902E+01  0.2871E+01
    -14.539  0.4915E+01  0.3399E+01
    -14.431  0.5034E+01  0.3937E+01
    -14.323  0.4997E+01  0.4478E+01
    -14.215  0.4963E+01  0.5015E+01
    -14.107  0.5746E+01  0.5590E+01
    -13.999  0.6222E+01  0.6231E+01
    -13.891  0.6500E+01  0.6926E+01
    -13.783  0.5469E+01  0.7524E+01
    -13.675  0.1820E+01  0.7775E+01
    -13.567  0.4032E+01  0.8078E+01
    -13.459  0.4560E+01  0.8568E+01
    -13.351  0.4287E+01  0.9052E+01
    -13.243  0.7047E+01  0.9841E+01
    -13.135  0.4285E+01  0.1057E+02
    -13.027  0.4370E+01  0.1103E+02
    -12.919  0.4504E+01  0.1151E+02
    -12.811  0.4611E+01  0.1200E+02
    -12.703  0.4720E+01  0.1251E+02
    -12.595  0.5402E+01  0.1305E+02
    -12.487  0.6103E+01  0.1368E+02
    -12.379  0.5359E+01  0.1429E+02
    -12.271  0.5640E+01  0.1488E+02
    -12.163  0.5121E+01  0.1546E+02
    -12.055  0.4809E+01  0.1599E+02
    -11.947  0.4908E+01  0.1651E+02
    -11.840  0.4987E+01  0.1705E+02
    -11.732  0.5045E+01  0.1759E+02
    -11.624  0.5175E+01  0.1814E+02
    -11.516  0.5589E+01  0.1872E+02
    -11.408  0.5822E+01  0.1935E+02
    -11.300  0.5696E+01  0.1997E+02
    -11.192  0.5645E+01  0.2058E+02
    -11.084  0.5761E+01  0.2119E+02
    -10.976  0.5151E+01  0.2181E+02
    -10.868  0.5110E+01  0.2233E+02
    -10.760  0.5407E+01  0.2290E+02
    -10.652  0.5380E+01  0.2348E+02
    -10.544  0.5504E+01  0.2407E+02
    -10.436  0.5724E+01  0.2467E+02
    -10.328  0.5959E+01  0.2530E+02
    -10.220  0.8060E+01  0.2603E+02
    -10.112  0.9352E+01  0.2709E+02
    -10.004  0.6095E+01  0.2792E+02
     -9.896  0.7463E+01  0.2853E+02
     -9.788  0.3907E+01  0.2931E+02
     -9.680  0.3538E+01  0.2972E+02
     -9.572  0.3169E+01  0.3008E+02
     -9.464  0.2800E+01  0.3040E+02
     -9.356  0.2431E+01  0.3068E+02
     -9.248  0.2471E+01  0.3093E+02
     -9.140  0.3106E+01  0.3127E+02
     -9.032  0.1414E+01  0.3152E+02
     -8.924  0.1683E+01  0.3167E+02
     -8.816  0.2609E+01  0.3190E+02
     -8.708  0.7322E+01  0.3237E+02
     -8.600  0.4320E+01  0.3311E+02
     -8.492  0.3955E+01  0.3353E+02
     -8.384  0.4284E+01  0.3397E+02
     -8.276  0.8429E+01  0.3466E+02
     -8.168  0.6436E+01  0.3541E+02
     -8.060  0.7535E+01  0.3617E+02
     -7.952  0.8588E+01  0.3704E+02
     -7.844  0.7854E+01  0.3799E+02
     -7.736  0.6268E+01  0.3870E+02
     -7.629  0.6011E+01  0.3936E+02
     -7.521  0.5756E+01  0.4000E+02
     -7.413  0.5525E+01  0.4061E+02
     -7.305  0.5338E+01  0.4119E+02
     -7.197  0.5156E+01  0.4176E+02
     -7.089  0.4959E+01  0.4231E+02
     -6.981  0.4854E+01  0.4283E+02
     -6.873  0.4824E+01  0.4336E+02
     -6.765  0.4792E+01  0.4387E+02
     -6.657  0.4616E+01  0.4439E+02
     -6.549  0.4411E+01  0.4487E+02
     -6.441  0.4297E+01  0.4534E+02
     -6.333  0.4024E+01  0.4576E+02
     -6.225  0.4317E+01  0.4620E+02
     -6.117  0.4947E+01  0.4670E+02
     -6.009  0.5845E+01  0.4728E+02
     -5.901  0.6550E+01  0.4795E+02
     -5.793  0.1060E+02  0.4891E+02
     -5.685  0.8369E+01  0.4994E+02
     -5.577  0.6139E+01  0.5072E+02
     -5.469  0.3908E+01  0.5126E+02
     -5.361  0.2713E+01  0.5159E+02
     -5.253  0.3153E+01  0.5190E+02
     -5.145  0.4418E+01  0.5230E+02
     -5.037  0.5708E+01  0.5285E+02
     -4.929  0.7333E+01  0.5355E+02
     -4.821  0.7909E+01  0.5440E+02
     -4.713  0.6707E+01  0.5519E+02
     -4.605  0.5596E+01  0.5585E+02
     -4.497  0.7707E+01  0.5653E+02
     -4.389  0.7198E+01  0.5734E+02
     -4.281  0.6689E+01  0.5809E+02
     -4.173  0.6180E+01  0.5878E+02
     -4.065  0.5672E+01  0.5942E+02
     -3.957  0.6427E+01  0.6004E+02
     -3.849  0.9231E+01  0.6116E+02
     -3.741  0.1006E+02  0.6224E+02
     -3.633  0.7926E+01  0.6320E+02
     -3.525  0.6643E+01  0.6398E+02
     -3.417  0.6672E+01  0.6468E+02
     -3.310  0.7600E+01  0.6546E+02
     -3.202  0.8631E+01  0.6633E+02
     -3.094  0.1055E+02  0.6735E+02
     -2.986  0.1368E+02  0.6872E+02
     -2.878  0.1244E+02  0.7026E+02
     -2.770  0.1297E+02  0.7160E+02
     -2.662  0.1334E+02  0.7306E+02
     -2.554  0.1644E+02  0.7453E+02
     -2.446  0.1205E+02  0.7609E+02
     -2.338  0.1984E+02  0.7756E+02
     -2.230  0.1215E+02  0.7927E+02
     -2.122  0.1718E+02  0.8063E+02
     -2.014  0.1705E+02  0.8278E+02
     -1.906  0.1746E+02  0.8470E+02
     -1.798  0.1481E+02  0.8653E+02
     -1.690  0.1104E+02  0.8793E+02
     -1.582  0.8855E+01  0.8899E+02
     -1.474  0.1236E+02  0.8999E+02
     -1.366  0.8479E+01  0.9100E+02
     -1.258  0.1081E+02  0.9204E+02
     -1.150  0.1274E+02  0.9339E+02
     -1.042  0.1603E+02  0.9485E+02
     -0.934  0.9206E+01  0.9618E+02
     -0.826  0.1065E+02  0.9726E+02
     -0.718  0.1097E+02  0.9844E+02
     -0.610  0.1039E+02  0.9958E+02
     -0.502  0.1073E+02  0.1008E+03
     -0.394  0.9767E+01  0.1018E+03
     -0.286  0.9678E+01  0.1029E+03
     -0.178  0.9435E+01  0.1039E+03
     -0.070  0.9323E+01  0.1050E+03
      0.038  0.9214E+01  0.1060E+03
      0.146  0.9079E+01  0.1069E+03
      0.254  0.9581E+01  0.1079E+03
      0.362  0.9469E+01  0.1090E+03
      0.470  0.9389E+01  0.1100E+03
      0.578  0.9242E+01  0.1110E+03
      0.686  0.9219E+01  0.1120E+03
      0.794  0.9457E+01  0.1130E+03
      0.901  0.9346E+01  0.1140E+03
      1.009  0.9830E+01  0.1151E+03
      1.117  0.9990E+01  0.1162E+03
      1.225  0.7244E+01  0.1171E+03
      1.333  0.6302E+01  0.1178E+03
      1.441  0.5713E+01  0.1185E+03
      1.549  0.4757E+01  0.1190E+03
      1.657  0.4177E+01  0.1195E+03
      1.765  0.3651E+01  0.1199E+03
      1.873  0.6383E+01  0.1204E+03
      1.981  0.9967E+01  0.1213E+03
      2.089  0.8388E+01  0.1223E+03
      2.197  0.7696E+01  0.1233E+03
      2.305  0.5719E+01  0.1240E+03
      2.413  0.4826E+01  0.1246E+03
      2.521  0.4153E+01  0.1251E+03
      2.629  0.3548E+01  0.1255E+03
      2.737  0.3205E+01  0.1258E+03
      2.845  0.3025E+01  0.1262E+03
      2.953  0.2786E+01  0.1265E+03
      3.061  0.2359E+01  0.1268E+03
      3.169  0.2053E+01  0.1270E+03
      3.277  0.1822E+01  0.1272E+03
      3.385  0.1582E+01  0.1274E+03
      3.493  0.1341E+01  0.1276E+03
      3.601  0.1100E+01  0.1277E+03
      3.709  0.8603E+00  0.1278E+03
      3.817  0.6353E+00  0.1279E+03
      3.925  0.4453E+00  0.1279E+03
      4.033  0.2748E+00  0.1280E+03
      4.141  0.1193E+00  0.1280E+03
      4.249  0.1033E-01  0.1280E+03
      4.357  0.1280E+00  0.1280E+03
      4.465  0.2601E+00  0.1280E+03
      4.573  0.4105E+00  0.1281E+03
      4.681  0.5853E+00  0.1281E+03
      4.789  0.8091E+00  0.1282E+03
      4.897  0.1057E+01  0.1283E+03
      5.005  0.1428E+01  0.1284E+03
      5.112  0.1819E+01  0.1286E+03
      5.220  0.2202E+01  0.1288E+03
      5.328  0.2673E+01  0.1291E+03
      5.436  0.2718E+01  0.1294E+03
      5.544  0.3400E+01  0.1297E+03
      5.652  0.4263E+01  0.1301E+03
      5.760  0.6758E+01  0.1308E+03
      5.868  0.7955E+01  0.1318E+03
      5.976  0.8672E+01  0.1327E+03
      6.084  0.8991E+01  0.1336E+03
      6.192  0.6843E+01  0.1345E+03
      6.300  0.6413E+01  0.1352E+03
      6.408  0.6035E+01  0.1359E+03
      6.516  0.5573E+01  0.1365E+03
      6.624  0.5137E+01  0.1371E+03
      6.732  0.4530E+01  0.1376E+03
      6.840  0.3843E+01  0.1380E+03
      6.948  0.3639E+01  0.1384E+03
      7.056  0.3952E+01  0.1388E+03
      7.164  0.4491E+01  0.1393E+03
      7.272  0.4756E+01  0.1398E+03
      7.380  0.4555E+01  0.1403E+03
      7.488  0.4412E+01  0.1408E+03
      7.596  0.4264E+01  0.1413E+03
      7.704  0.4116E+01  0.1417E+03
      7.812  0.3979E+01  0.1421E+03
      7.920  0.3820E+01  0.1426E+03
      8.028  0.3666E+01  0.1430E+03
      8.136  0.3564E+01  0.1434E+03
      8.244  0.3685E+01  0.1437E+03
      8.352  0.3918E+01  0.1442E+03
      8.460  0.3994E+01  0.1446E+03
      8.568  0.4069E+01  0.1450E+03
      8.676  0.4140E+01  0.1455E+03
      8.784  0.4275E+01  0.1459E+03
      8.892  0.4290E+01  0.1464E+03
      9.000  0.4353E+01  0.1469E+03
      9.108  0.4448E+01  0.1473E+03
      9.216  0.4227E+01  0.1478E+03
      9.324  0.4215E+01  0.1482E+03
      9.431  0.4199E+01  0.1487E+03
      9.539  0.4171E+01  0.1492E+03
      9.647  0.4290E+01  0.1496E+03
      9.755  0.4477E+01  0.1501E+03
      9.863  0.4532E+01  0.1506E+03
      9.971  0.4797E+01  0.1511E+03
     10.079  0.4839E+01  0.1516E+03
     10.187  0.5093E+01  0.1521E+03
     10.295  0.4949E+01  0.1527E+03
     10.403  0.5041E+01  0.1532E+03
     10.511  0.5236E+01  0.1538E+03
     10.619  0.7163E+01  0.1544E+03
     10.727  0.4255E+01  0.1549E+03
     10.835  0.3735E+01  0.1553E+03
     10.943  0.3584E+01  0.1557E+03
     11.051  0.3249E+01  0.1561E+03
     11.159  0.3502E+01  0.1564E+03
     11.267  0.4016E+01  0.1568E+03
     11.375  0.4258E+01  0.1573E+03
     11.483  0.4670E+01  0.1578E+03
     11.591  0.8023E+01  0.1585E+03
     11.699  0.1045E+02  0.1596E+03
     11.807  0.1240E+02  0.1608E+03
     11.915  0.1411E+02  0.1622E+03
     12.023  0.1246E+02  0.1637E+03
     12.131  0.1079E+02  0.1649E+03
     12.239  0.8419E+01  0.1660E+03
     12.347  0.4943E+01  0.1667E+03
     12.455  0.4339E+01  0.1672E+03
     12.563  0.2948E+01  0.1676E+03
     12.671  0.1669E+01  0.1678E+03
     12.779  0.8866E+00  0.1679E+03
     12.887  0.2178E+00  0.1680E+03
     12.995  0.7042E-02  0.1680E+03
     13.103  0.0000E+00  0.1680E+03
     13.211  0.0000E+00  0.1680E+03
     13.319  0.0000E+00  0.1680E+03
     13.427  0.0000E+00  0.1680E+03
     13.535  0.0000E+00  0.1680E+03
     13.642  0.0000E+00  0.1680E+03
     13.750  0.0000E+00  0.1680E+03
     13.858  0.0000E+00  0.1680E+03
     13.966  0.0000E+00  0.1680E+03
     14.074  0.0000E+00  0.1680E+03
     14.182  0.0000E+00  0.1680E+03
     14.290  0.0000E+00  0.1680E+03
     14.398  0.0000E+00  0.1680E+03
     14.506  0.0000E+00  0.1680E+03
     14.614  0.0000E+00  0.1680E+03
     14.722  0.0000E+00  0.1680E+03
     14.830  0.0000E+00  0.1680E+03
     14.938  0.0000E+00  0.1680E+03
     15.046  0.0000E+00  0.1680E+03
