  20  20   0   0
  0.1229030E+02  0.6264179E-09  0.6264179E-09  0.6264179E-09  0.5000000E-15
  1.000000000000000E-004
  CAR 
 diamond                                 
      9.08813205    -20.67189115  301      0.89320688      1.00000000
    -20.672  0.0000E+00  0.0000E+00
    -20.573  0.0000E+00  0.0000E+00
    -20.473  0.0000E+00  0.0000E+00
    -20.374  0.0000E+00  0.0000E+00
    -20.275  0.0000E+00  0.0000E+00
    -20.176  0.0000E+00  0.0000E+00
    -20.077  0.0000E+00  0.0000E+00
    -19.977  0.0000E+00  0.0000E+00
    -19.878  0.0000E+00  0.0000E+00
    -19.779  0.0000E+00  0.0000E+00
    -19.680  0.0000E+00  0.0000E+00
    -19.581  0.0000E+00  0.0000E+00
    -19.481  0.0000E+00  0.0000E+00
    -19.382  0.0000E+00  0.0000E+00
    -19.283  0.0000E+00  0.0000E+00
    -19.184  0.0000E+00  0.0000E+00
    -19.085  0.0000E+00  0.0000E+00
    -18.985  0.0000E+00  0.0000E+00
    -18.886  0.0000E+00  0.0000E+00
    -18.787  0.0000E+00  0.0000E+00
    -18.688  0.0000E+00  0.0000E+00
    -18.589  0.0000E+00  0.1000E-01
    -18.489  0.0000E+00  0.1000E-01
    -18.390  0.0000E+00  0.1000E-01
    -18.291  0.0000E+00  0.1000E-01
    -18.192  0.0000E+00  0.1000E-01
    -18.093  0.0000E+00  0.1000E-01
    -17.993  0.0000E+00  0.1000E-01
    -17.894  0.0000E+00  0.1000E-01
    -17.795  0.0000E+00  0.1000E-01
    -17.696  0.0000E+00  0.1000E-01
    -17.597  0.0000E+00  0.1000E-01
    -17.497  0.1314E+00  0.1509E-01
    -17.398  0.0000E+00  0.2000E-01
    -17.299  0.0000E+00  0.2000E-01
    -17.200  0.0000E+00  0.2000E-01
    -17.101  0.0000E+00  0.2000E-01
    -17.001  0.0000E+00  0.2000E-01
    -16.902  0.0000E+00  0.2000E-01
    -16.803  0.0000E+00  0.2000E-01
    -16.704  0.0000E+00  0.2000E-01
    -16.605  0.0000E+00  0.2000E-01
    -16.505  0.0000E+00  0.2000E-01
    -16.406  0.4204E-01  0.2328E-01
    -16.307  0.3735E-01  0.2718E-01
    -16.208  0.0000E+00  0.3000E-01
    -16.109  0.0000E+00  0.3000E-01
    -16.009  0.0000E+00  0.3000E-01
    -15.910  0.0000E+00  0.3000E-01
    -15.811  0.0000E+00  0.3000E-01
    -15.712  0.0000E+00  0.3000E-01
    -15.613  0.0000E+00  0.3000E-01
    -15.513  0.0000E+00  0.3000E-01
    -15.414  0.0000E+00  0.3000E-01
    -15.315  0.2312E-01  0.3025E-01
    -15.216  0.3666E-01  0.3379E-01
    -15.117  0.4112E-01  0.3772E-01
    -15.017  0.0000E+00  0.4000E-01
    -14.918  0.0000E+00  0.4000E-01
    -14.819  0.0000E+00  0.4000E-01
    -14.720  0.5074E-04  0.4000E-01
    -14.621  0.0000E+00  0.5000E-01
    -14.521  0.0000E+00  0.5000E-01
    -14.422  0.0000E+00  0.5000E-01
    -14.323  0.0000E+00  0.5000E-01
    -14.224  0.0000E+00  0.5000E-01
    -14.125  0.1773E-01  0.5018E-01
    -14.025  0.5410E-01  0.5956E-01
    -13.926  0.0000E+00  0.6000E-01
    -13.827  0.0000E+00  0.6000E-01
    -13.728  0.0000E+00  0.6000E-01
    -13.629  0.0000E+00  0.6000E-01
    -13.529  0.0000E+00  0.6000E-01
    -13.430  0.0000E+00  0.6000E-01
    -13.331  0.4624E-01  0.6145E-01
    -13.232  0.5496E-01  0.6665E-01
    -13.133  0.0000E+00  0.7000E-01
    -13.033  0.0000E+00  0.7000E-01
    -12.934  0.0000E+00  0.7000E-01
    -12.835  0.0000E+00  0.7000E-01
    -12.736  0.0000E+00  0.7000E-01
    -12.637  0.0000E+00  0.7000E-01
    -12.537  0.0000E+00  0.7000E-01
    -12.438  0.9936E-02  0.7009E-01
    -12.339  0.7406E-01  0.7476E-01
    -12.240  0.3335E-02  0.7998E-01
    -12.141  0.0000E+00  0.8000E-01
    -12.041  0.0000E+00  0.8000E-01
    -11.942  0.0000E+00  0.8000E-01
    -11.843  0.0000E+00  0.8000E-01
    -11.744  0.0000E+00  0.8000E-01
    -11.645  0.0000E+00  0.8000E-01
    -11.545  0.0000E+00  0.8000E-01
    -11.446  0.0000E+00  0.8000E-01
    -11.347  0.0000E+00  0.8000E-01
    -11.248  0.0000E+00  0.8000E-01
    -11.149  0.0000E+00  0.8000E-01
    -11.049  0.9952E-01  0.8561E-01
    -10.950  0.0000E+00  0.9000E-01
    -10.851  0.0000E+00  0.9000E-01
    -10.752  0.2388E-01  0.9084E-01
    -10.653  0.4310E-01  0.9455E-01
    -10.553  0.3894E-01  0.9869E-01
    -10.454  0.0000E+00  0.1000E+00
    -10.355  0.0000E+00  0.1000E+00
    -10.256  0.0000E+00  0.1000E+00
    -10.157  0.1051E-01  0.1001E+00
    -10.057  0.5119E-01  0.1090E+00
     -9.958  0.0000E+00  0.1100E+00
     -9.859  0.0000E+00  0.1100E+00
     -9.760  0.0000E+00  0.1100E+00
     -9.661  0.0000E+00  0.1100E+00
     -9.561  0.4159E-02  0.1101E+00
     -9.462  0.5443E-01  0.1126E+00
     -9.363  0.3981E-02  0.1200E+00
     -9.264  0.0000E+00  0.1200E+00
     -9.165  0.0000E+00  0.1200E+00
     -9.065  0.0000E+00  0.1200E+00
     -8.966  0.8008E-02  0.1202E+00
     -8.867  0.1887E+00  0.1244E+00
     -8.768  0.1267E-02  0.1300E+00
     -8.669  0.1574E-01  0.1301E+00
     -8.569  0.5314E-01  0.1362E+00
     -8.470  0.1357E-01  0.1397E+00
     -8.371  0.0000E+00  0.1400E+00
     -8.272  0.0000E+00  0.1400E+00
     -8.173  0.0000E+00  0.1400E+00
     -8.073  0.4265E-03  0.1400E+00
     -7.974  0.4682E-01  0.1429E+00
     -7.875  0.4371E-01  0.1472E+00
     -7.776  0.5400E-02  0.1500E+00
     -7.677  0.0000E+00  0.1500E+00
     -7.577  0.0000E+00  0.1500E+00
     -7.478  0.1395E-01  0.1502E+00
     -7.379  0.8444E-01  0.1595E+00
     -7.280  0.4534E-03  0.1600E+00
     -7.181  0.5225E-01  0.1620E+00
     -7.081  0.4705E-01  0.1679E+00
     -6.982  0.1047E-03  0.1700E+00
     -6.883  0.5758E-01  0.1715E+00
     -6.784  0.2100E-01  0.1797E+00
     -6.685  0.0000E+00  0.1800E+00
     -6.585  0.0000E+00  0.1800E+00
     -6.486  0.0000E+00  0.1800E+00
     -6.387  0.5351E-02  0.1801E+00
     -6.288  0.7047E-01  0.1832E+00
     -6.189  0.9779E-02  0.1899E+00
     -6.089  0.0000E+00  0.1900E+00
     -5.990  0.0000E+00  0.1900E+00
     -5.891  0.0000E+00  0.1900E+00
     -5.792  0.0000E+00  0.1900E+00
     -5.693  0.0000E+00  0.1900E+00
     -5.593  0.3307E-01  0.1911E+00
     -5.494  0.6449E-01  0.1970E+00
     -5.395  0.1338E-02  0.2000E+00
     -5.296  0.2882E-01  0.2004E+00
     -5.197  0.5716E-01  0.2092E+00
     -5.097  0.0000E+00  0.2100E+00
     -4.998  0.0000E+00  0.2100E+00
     -4.899  0.9561E-02  0.2103E+00
     -4.800  0.2579E-01  0.2121E+00
     -4.701  0.3473E-01  0.2152E+00
     -4.601  0.2382E-01  0.2183E+00
     -4.502  0.7077E-02  0.2197E+00
     -4.403  0.2668E-02  0.2201E+00
     -4.304  0.1561E-01  0.2209E+00
     -4.205  0.4085E-01  0.2238E+00
     -4.105  0.3431E-01  0.2294E+00
     -4.006  0.0000E+00  0.2300E+00
     -3.907  0.3288E-01  0.2307E+00
     -3.808  0.7432E-01  0.2364E+00
     -3.709  0.1313E-03  0.2400E+00
     -3.609  0.1168E-02  0.2400E+00
     -3.510  0.1710E-01  0.2407E+00
     -3.411  0.4431E-01  0.2440E+00
     -3.312  0.3239E-01  0.2482E+00
     -3.213  0.5793E-02  0.2499E+00
     -3.113  0.5029E-02  0.2501E+00
     -3.014  0.6218E-01  0.2524E+00
     -2.915  0.2516E-01  0.2594E+00
     -2.816  0.7666E-01  0.2622E+00
     -2.717  0.3548E-01  0.2685E+00
     -2.617  0.3618E-02  0.2700E+00
     -2.518  0.1983E-01  0.2706E+00
     -2.419  0.3895E-01  0.2743E+00
     -2.320  0.2511E-01  0.2783E+00
     -2.221  0.9152E-02  0.2797E+00
     -2.121  0.3157E-01  0.2817E+00
     -2.022  0.8913E-01  0.2879E+00
     -1.923  0.1695E-03  0.2900E+00
     -1.824  0.1339E-01  0.2903E+00
     -1.725  0.5600E-01  0.2938E+00
     -1.625  0.3109E-01  0.2984E+00
     -1.526  0.2244E-01  0.3004E+00
     -1.427  0.4992E-01  0.3044E+00
     -1.328  0.2770E-01  0.3090E+00
     -1.229  0.0000E+00  0.3100E+00
     -1.129  0.0000E+00  0.3100E+00
     -1.030  0.0000E+00  0.3100E+00
     -0.931  0.1105E+00  0.3148E+00
     -0.832  0.2238E-02  0.3200E+00
     -0.733  0.0000E+00  0.3200E+00
     -0.633  0.0000E+00  0.3200E+00
     -0.534  0.0000E+00  0.3200E+00
     -0.435  0.0000E+00  0.3200E+00
     -0.336  0.3838E-01  0.3210E+00
     -0.237  0.4892E-01  0.3267E+00
     -0.137  0.1502E-01  0.3297E+00
     -0.038  0.0000E+00  0.3300E+00
      0.061  0.0000E+00  0.3300E+00
      0.160  0.0000E+00  0.3300E+00
      0.259  0.0000E+00  0.3300E+00
      0.359  0.0000E+00  0.3300E+00
      0.458  0.0000E+00  0.3300E+00
      0.557  0.0000E+00  0.3300E+00
      0.656  0.3074E-01  0.3308E+00
      0.755  0.5799E-01  0.3358E+00
      0.855  0.1293E-01  0.3398E+00
      0.954  0.8535E-03  0.3400E+00
      1.053  0.1339E-01  0.3405E+00
      1.152  0.3087E-01  0.3429E+00
      1.251  0.2325E-01  0.3456E+00
      1.351  0.1852E-01  0.3478E+00
      1.450  0.1181E-01  0.3493E+00
      1.549  0.0000E+00  0.3500E+00
      1.648  0.0000E+00  0.3500E+00
      1.747  0.0000E+00  0.3500E+00
      1.847  0.0000E+00  0.3500E+00
      1.946  0.0000E+00  0.3500E+00
      2.045  0.0000E+00  0.3500E+00
      2.144  0.4816E-05  0.3500E+00
      2.243  0.2256E-02  0.3501E+00
      2.343  0.1511E-01  0.3509E+00
      2.442  0.3617E-01  0.3534E+00
      2.541  0.4631E-01  0.3581E+00
      2.640  0.2289E-03  0.3600E+00
      2.739  0.0000E+00  0.3600E+00
      2.839  0.0000E+00  0.3600E+00
      2.938  0.5381E-02  0.3601E+00
      3.037  0.3304E-01  0.3617E+00
      3.136  0.4420E-01  0.3659E+00
      3.235  0.1801E-01  0.3701E+00
      3.335  0.4390E-01  0.3733E+00
      3.434  0.4086E-01  0.3781E+00
      3.533  0.3179E-01  0.3814E+00
      3.632  0.5267E-01  0.3862E+00
      3.731  0.9541E-02  0.3899E+00
      3.831  0.0000E+00  0.3900E+00
      3.930  0.0000E+00  0.3900E+00
      4.029  0.0000E+00  0.3900E+00
      4.128  0.0000E+00  0.3900E+00
      4.227  0.0000E+00  0.3900E+00
      4.327  0.0000E+00  0.3900E+00
      4.426  0.9119E-02  0.3901E+00
      4.525  0.8598E-01  0.3978E+00
      4.624  0.7745E-02  0.4001E+00
      4.723  0.7423E-01  0.4046E+00
      4.823  0.2756E-01  0.4094E+00
      4.922  0.0000E+00  0.4100E+00
      5.021  0.0000E+00  0.4100E+00
      5.120  0.0000E+00  0.4100E+00
      5.219  0.0000E+00  0.4100E+00
      5.319  0.0000E+00  0.4100E+00
      5.418  0.1644E-01  0.4104E+00
      5.517  0.2434E-01  0.4127E+00
      5.616  0.3359E-01  0.4155E+00
      5.715  0.3181E-01  0.4189E+00
      5.815  0.1455E-01  0.4215E+00
      5.914  0.2456E-01  0.4234E+00
      6.013  0.3744E-01  0.4265E+00
      6.112  0.1074E-01  0.4295E+00
      6.211  0.3682E-01  0.4314E+00
      6.311  0.6471E-01  0.4368E+00
      6.410  0.6697E-02  0.4399E+00
      6.509  0.3951E-01  0.4411E+00
      6.608  0.6334E-01  0.4474E+00
      6.707  0.9036E-02  0.4505E+00
      6.807  0.3971E-01  0.4527E+00
      6.906  0.3575E-01  0.4567E+00
      7.005  0.1612E-01  0.4594E+00
      7.104  0.0000E+00  0.4600E+00
      7.203  0.0000E+00  0.4600E+00
      7.303  0.0000E+00  0.4600E+00
      7.402  0.0000E+00  0.4600E+00
      7.501  0.0000E+00  0.4600E+00
      7.600  0.0000E+00  0.4600E+00
      7.699  0.0000E+00  0.4600E+00
      7.799  0.0000E+00  0.4600E+00
      7.898  0.0000E+00  0.4600E+00
      7.997  0.0000E+00  0.4600E+00
      8.096  0.0000E+00  0.4600E+00
      8.195  0.0000E+00  0.4600E+00
      8.295  0.0000E+00  0.4600E+00
      8.394  0.0000E+00  0.4600E+00
      8.493  0.0000E+00  0.4600E+00
      8.592  0.0000E+00  0.4600E+00
      8.691  0.0000E+00  0.4600E+00
      8.791  0.0000E+00  0.4600E+00
      8.890  0.0000E+00  0.4600E+00
      8.989  0.0000E+00  0.4600E+00
      9.088  0.0000E+00  0.4600E+00
