  80  80   0   0
  0.9416364E+01  0.1154967E-08  0.8078620E-09  0.8073590E-09  0.5000000E-15
  1.000000000000000E-004
  CAR 
 diamond                                 
      8.82011377    -16.69806349  301     -6.04422449      1.00000000
    -16.698  0.0000E+00  0.0000E+00
    -16.613  0.0000E+00  0.0000E+00
    -16.528  0.0000E+00  0.0000E+00
    -16.443  0.0000E+00  0.0000E+00
    -16.358  0.0000E+00  0.0000E+00
    -16.273  0.0000E+00  0.0000E+00
    -16.188  0.0000E+00  0.0000E+00
    -16.103  0.0000E+00  0.0000E+00
    -16.018  0.0000E+00  0.0000E+00
    -15.933  0.0000E+00  0.0000E+00
    -15.847  0.0000E+00  0.0000E+00
    -15.762  0.0000E+00  0.0000E+00
    -15.677  0.0000E+00  0.0000E+00
    -15.592  0.0000E+00  0.0000E+00
    -15.507  0.0000E+00  0.0000E+00
    -15.422  0.0000E+00  0.0000E+00
    -15.337  0.0000E+00  0.0000E+00
    -15.252  0.0000E+00  0.0000E+00
    -15.167  0.0000E+00  0.0000E+00
    -15.082  0.0000E+00  0.0000E+00
    -14.997  0.0000E+00  0.0000E+00
    -14.912  0.0000E+00  0.0000E+00
    -14.827  0.0000E+00  0.0000E+00
    -14.742  0.0000E+00  0.0000E+00
    -14.657  0.3092E-01  0.4695E-03
    -14.572  0.7349E-01  0.4971E-02
    -14.486  0.1292E+00  0.1503E-01
    -14.401  0.2859E+00  0.2595E-01
    -14.316  0.3972E+00  0.4522E-01
    -14.231  0.6381E+00  0.8676E-01
    -14.146  0.7140E+00  0.1256E+00
    -14.061  0.0000E+00  0.1600E+00
    -13.976  0.0000E+00  0.1600E+00
    -13.891  0.0000E+00  0.1600E+00
    -13.806  0.0000E+00  0.1600E+00
    -13.721  0.0000E+00  0.1600E+00
    -13.636  0.0000E+00  0.1600E+00
    -13.551  0.0000E+00  0.1600E+00
    -13.466  0.0000E+00  0.1600E+00
    -13.381  0.0000E+00  0.1600E+00
    -13.296  0.0000E+00  0.1600E+00
    -13.211  0.0000E+00  0.1600E+00
    -13.126  0.0000E+00  0.1600E+00
    -13.040  0.0000E+00  0.1600E+00
    -12.955  0.0000E+00  0.1600E+00
    -12.870  0.0000E+00  0.1600E+00
    -12.785  0.0000E+00  0.1600E+00
    -12.700  0.0000E+00  0.1600E+00
    -12.615  0.0000E+00  0.1600E+00
    -12.530  0.0000E+00  0.1600E+00
    -12.445  0.0000E+00  0.1600E+00
    -12.360  0.0000E+00  0.1600E+00
    -12.275  0.0000E+00  0.1600E+00
    -12.190  0.0000E+00  0.1600E+00
    -12.105  0.0000E+00  0.1600E+00
    -12.020  0.0000E+00  0.1600E+00
    -11.935  0.0000E+00  0.1600E+00
    -11.850  0.0000E+00  0.1600E+00
    -11.765  0.0000E+00  0.1600E+00
    -11.679  0.0000E+00  0.1600E+00
    -11.594  0.0000E+00  0.1600E+00
    -11.509  0.0000E+00  0.1600E+00
    -11.424  0.0000E+00  0.1600E+00
    -11.339  0.0000E+00  0.1600E+00
    -11.254  0.0000E+00  0.1600E+00
    -11.169  0.0000E+00  0.1600E+00
    -11.084  0.0000E+00  0.1600E+00
    -10.999  0.0000E+00  0.1600E+00
    -10.914  0.0000E+00  0.1600E+00
    -10.829  0.0000E+00  0.1600E+00
    -10.744  0.0000E+00  0.1600E+00
    -10.659  0.0000E+00  0.1600E+00
    -10.574  0.0000E+00  0.1600E+00
    -10.489  0.0000E+00  0.1600E+00
    -10.404  0.0000E+00  0.1600E+00
    -10.319  0.0000E+00  0.1600E+00
    -10.233  0.0000E+00  0.1600E+00
    -10.148  0.0000E+00  0.1600E+00
    -10.063  0.0000E+00  0.1600E+00
     -9.978  0.0000E+00  0.1600E+00
     -9.893  0.0000E+00  0.1600E+00
     -9.808  0.0000E+00  0.1600E+00
     -9.723  0.0000E+00  0.1600E+00
     -9.638  0.0000E+00  0.1600E+00
     -9.553  0.0000E+00  0.1600E+00
     -9.468  0.0000E+00  0.1600E+00
     -9.383  0.0000E+00  0.1600E+00
     -9.298  0.0000E+00  0.1600E+00
     -9.213  0.0000E+00  0.1600E+00
     -9.128  0.0000E+00  0.1600E+00
     -9.043  0.0000E+00  0.1600E+00
     -8.958  0.0000E+00  0.1600E+00
     -8.872  0.0000E+00  0.1600E+00
     -8.787  0.0000E+00  0.1600E+00
     -8.702  0.0000E+00  0.1600E+00
     -8.617  0.0000E+00  0.1600E+00
     -8.532  0.0000E+00  0.1600E+00
     -8.447  0.0000E+00  0.1600E+00
     -8.362  0.0000E+00  0.1600E+00
     -8.277  0.0000E+00  0.1600E+00
     -8.192  0.0000E+00  0.1600E+00
     -8.107  0.0000E+00  0.1600E+00
     -8.022  0.0000E+00  0.1600E+00
     -7.937  0.0000E+00  0.1600E+00
     -7.852  0.0000E+00  0.1600E+00
     -7.767  0.0000E+00  0.1600E+00
     -7.682  0.0000E+00  0.1600E+00
     -7.597  0.0000E+00  0.1600E+00
     -7.512  0.3796E-02  0.1600E+00
     -7.426  0.4896E-01  0.1620E+00
     -7.341  0.1858E+00  0.1722E+00
     -7.256  0.3435E+00  0.1948E+00
     -7.171  0.3367E+00  0.2305E+00
     -7.086  0.2843E+00  0.2533E+00
     -7.001  0.2792E+00  0.2796E+00
     -6.916  0.1492E+00  0.2985E+00
     -6.831  0.2355E+00  0.3166E+00
     -6.746  0.2982E+00  0.3407E+00
     -6.661  0.3676E+00  0.3667E+00
     -6.576  0.3450E+00  0.3935E+00
     -6.491  0.5102E+00  0.4379E+00
     -6.406  0.4163E+00  0.4770E+00
     -6.321  0.9931E+00  0.5386E+00
     -6.236  0.4027E+00  0.5953E+00
     -6.151  0.2637E+00  0.6305E+00
     -6.065  0.1495E-05  0.6400E+00
     -5.980  0.0000E+00  0.6400E+00
     -5.895  0.0000E+00  0.6400E+00
     -5.810  0.0000E+00  0.6400E+00
     -5.725  0.0000E+00  0.6400E+00
     -5.640  0.0000E+00  0.6400E+00
     -5.555  0.0000E+00  0.6400E+00
     -5.470  0.0000E+00  0.6400E+00
     -5.385  0.0000E+00  0.6400E+00
     -5.300  0.0000E+00  0.6400E+00
     -5.215  0.0000E+00  0.6400E+00
     -5.130  0.0000E+00  0.6400E+00
     -5.045  0.0000E+00  0.6400E+00
     -4.960  0.0000E+00  0.6400E+00
     -4.875  0.0000E+00  0.6400E+00
     -4.790  0.0000E+00  0.6400E+00
     -4.705  0.0000E+00  0.6400E+00
     -4.619  0.0000E+00  0.6400E+00
     -4.534  0.0000E+00  0.6400E+00
     -4.449  0.0000E+00  0.6400E+00
     -4.364  0.0000E+00  0.6400E+00
     -4.279  0.0000E+00  0.6400E+00
     -4.194  0.0000E+00  0.6400E+00
     -4.109  0.0000E+00  0.6400E+00
     -4.024  0.0000E+00  0.6400E+00
     -3.939  0.0000E+00  0.6400E+00
     -3.854  0.0000E+00  0.6400E+00
     -3.769  0.0000E+00  0.6400E+00
     -3.684  0.0000E+00  0.6400E+00
     -3.599  0.0000E+00  0.6400E+00
     -3.514  0.0000E+00  0.6400E+00
     -3.429  0.0000E+00  0.6400E+00
     -3.344  0.0000E+00  0.6400E+00
     -3.258  0.0000E+00  0.6400E+00
     -3.173  0.0000E+00  0.6400E+00
     -3.088  0.0000E+00  0.6400E+00
     -3.003  0.0000E+00  0.6400E+00
     -2.918  0.0000E+00  0.6400E+00
     -2.833  0.0000E+00  0.6400E+00
     -2.748  0.0000E+00  0.6400E+00
     -2.663  0.0000E+00  0.6400E+00
     -2.578  0.0000E+00  0.6400E+00
     -2.493  0.0000E+00  0.6400E+00
     -2.408  0.0000E+00  0.6400E+00
     -2.323  0.0000E+00  0.6400E+00
     -2.238  0.0000E+00  0.6400E+00
     -2.153  0.0000E+00  0.6400E+00
     -2.068  0.0000E+00  0.6400E+00
     -1.983  0.0000E+00  0.6400E+00
     -1.898  0.0000E+00  0.6400E+00
     -1.812  0.0000E+00  0.6400E+00
     -1.727  0.0000E+00  0.6400E+00
     -1.642  0.0000E+00  0.6400E+00
     -1.557  0.0000E+00  0.6400E+00
     -1.472  0.0000E+00  0.6400E+00
     -1.387  0.0000E+00  0.6400E+00
     -1.302  0.0000E+00  0.6400E+00
     -1.217  0.0000E+00  0.6400E+00
     -1.132  0.0000E+00  0.6400E+00
     -1.047  0.0000E+00  0.6400E+00
     -0.962  0.0000E+00  0.6400E+00
     -0.877  0.0000E+00  0.6400E+00
     -0.792  0.0000E+00  0.6400E+00
     -0.707  0.0000E+00  0.6400E+00
     -0.622  0.0000E+00  0.6400E+00
     -0.537  0.0000E+00  0.6400E+00
     -0.451  0.0000E+00  0.6400E+00
     -0.366  0.0000E+00  0.6400E+00
     -0.281  0.0000E+00  0.6400E+00
     -0.196  0.0000E+00  0.6400E+00
     -0.111  0.0000E+00  0.6400E+00
     -0.026  0.0000E+00  0.6400E+00
      0.059  0.0000E+00  0.6400E+00
      0.144  0.0000E+00  0.6400E+00
      0.229  0.0000E+00  0.6400E+00
      0.314  0.0000E+00  0.6400E+00
      0.399  0.0000E+00  0.6400E+00
      0.484  0.0000E+00  0.6400E+00
      0.569  0.0000E+00  0.6400E+00
      0.654  0.0000E+00  0.6400E+00
      0.739  0.0000E+00  0.6400E+00
      0.824  0.0000E+00  0.6400E+00
      0.909  0.0000E+00  0.6400E+00
      0.995  0.0000E+00  0.6400E+00
      1.080  0.0000E+00  0.6400E+00
      1.165  0.0000E+00  0.6400E+00
      1.250  0.0000E+00  0.6400E+00
      1.335  0.0000E+00  0.6400E+00
      1.420  0.0000E+00  0.6400E+00
      1.505  0.0000E+00  0.6400E+00
      1.590  0.0000E+00  0.6400E+00
      1.675  0.6963E-05  0.6400E+00
      1.760  0.1096E-02  0.6400E+00
      1.845  0.3668E-02  0.6402E+00
      1.930  0.6772E-02  0.6407E+00
      2.015  0.8417E-02  0.6413E+00
      2.100  0.9563E-02  0.6421E+00
      2.185  0.1096E-01  0.6430E+00
      2.270  0.1247E-01  0.6440E+00
      2.356  0.1448E-01  0.6451E+00
      2.441  0.1746E-01  0.6465E+00
      2.526  0.2184E-01  0.6481E+00
      2.611  0.2695E-01  0.6502E+00
      2.696  0.3202E-01  0.6527E+00
      2.781  0.2621E-01  0.6552E+00
      2.866  0.2031E-01  0.6572E+00
      2.951  0.2113E-01  0.6589E+00
      3.036  0.2342E-01  0.6608E+00
      3.121  0.3567E-01  0.6632E+00
      3.206  0.5867E-01  0.6671E+00
      3.291  0.9419E-01  0.6739E+00
      3.376  0.4730E-01  0.6800E+00
      3.461  0.7211E-01  0.6848E+00
      3.546  0.1123E+00  0.6932E+00
      3.631  0.9819E-01  0.7022E+00
      3.716  0.1288E+00  0.7115E+00
      3.802  0.4901E-01  0.7186E+00
      3.887  0.6210E-01  0.7236E+00
      3.972  0.1226E+00  0.7308E+00
      4.057  0.7102E-01  0.7399E+00
      4.142  0.9072E-01  0.7465E+00
      4.227  0.1166E+00  0.7554E+00
      4.312  0.1263E+00  0.7657E+00
      4.397  0.1271E+00  0.7755E+00
      4.482  0.1679E+00  0.7873E+00
      4.567  0.1278E+00  0.8003E+00
      4.652  0.1343E+00  0.8109E+00
      4.737  0.1744E+00  0.8244E+00
      4.822  0.8537E-01  0.8355E+00
      4.907  0.8316E-01  0.8413E+00
      4.992  0.1756E+00  0.8549E+00
      5.077  0.1243E+00  0.8655E+00
      5.163  0.1686E+00  0.8790E+00
      5.248  0.1822E+00  0.8929E+00
      5.333  0.1724E+00  0.9085E+00
      5.418  0.9683E-01  0.9182E+00
      5.503  0.1100E+00  0.9281E+00
      5.588  0.1068E+00  0.9373E+00
      5.673  0.8522E-01  0.9448E+00
      5.758  0.1118E+00  0.9533E+00
      5.843  0.2011E+00  0.9660E+00
      5.928  0.1521E+00  0.9821E+00
      6.013  0.1380E+00  0.9935E+00
      6.098  0.1902E+00  0.1008E+01
      6.183  0.1395E+00  0.1022E+01
      6.268  0.9302E-01  0.1032E+01
      6.353  0.7884E-01  0.1039E+01
      6.438  0.6873E-01  0.1046E+01
      6.523  0.5615E-01  0.1051E+01
      6.609  0.4344E-01  0.1056E+01
      6.694  0.2055E-01  0.1058E+01
      6.779  0.1146E-01  0.1060E+01
      6.864  0.0000E+00  0.1060E+01
      6.949  0.0000E+00  0.1060E+01
      7.034  0.0000E+00  0.1060E+01
      7.119  0.0000E+00  0.1060E+01
      7.204  0.0000E+00  0.1060E+01
      7.289  0.0000E+00  0.1060E+01
      7.374  0.0000E+00  0.1060E+01
      7.459  0.0000E+00  0.1060E+01
      7.544  0.0000E+00  0.1060E+01
      7.629  0.0000E+00  0.1060E+01
      7.714  0.0000E+00  0.1060E+01
      7.799  0.0000E+00  0.1060E+01
      7.884  0.0000E+00  0.1060E+01
      7.970  0.0000E+00  0.1060E+01
      8.055  0.0000E+00  0.1060E+01
      8.140  0.0000E+00  0.1060E+01
      8.225  0.0000E+00  0.1060E+01
      8.310  0.0000E+00  0.1060E+01
      8.395  0.0000E+00  0.1060E+01
      8.480  0.0000E+00  0.1060E+01
      8.565  0.0000E+00  0.1060E+01
      8.650  0.0000E+00  0.1060E+01
      8.735  0.0000E+00  0.1060E+01
      8.820  0.0000E+00  0.1060E+01
