  72  72   0   0
  0.1046263E+02  0.1154967E-08  0.8078620E-09  0.8073590E-09  0.5000000E-15
  1.000000000000000E-004
  CAR 
 diamond                                 
      8.29388232    -16.64414083  301     -1.90992549      1.00000000
    -16.644  0.0000E+00  0.0000E+00
    -16.561  0.0000E+00  0.0000E+00
    -16.478  0.0000E+00  0.0000E+00
    -16.395  0.0000E+00  0.0000E+00
    -16.312  0.0000E+00  0.0000E+00
    -16.229  0.0000E+00  0.0000E+00
    -16.145  0.0000E+00  0.0000E+00
    -16.062  0.0000E+00  0.0000E+00
    -15.979  0.0000E+00  0.0000E+00
    -15.896  0.0000E+00  0.0000E+00
    -15.813  0.0000E+00  0.0000E+00
    -15.730  0.0000E+00  0.0000E+00
    -15.647  0.0000E+00  0.0000E+00
    -15.563  0.0000E+00  0.0000E+00
    -15.480  0.0000E+00  0.0000E+00
    -15.397  0.0000E+00  0.0000E+00
    -15.314  0.0000E+00  0.0000E+00
    -15.231  0.0000E+00  0.0000E+00
    -15.148  0.0000E+00  0.0000E+00
    -15.065  0.0000E+00  0.0000E+00
    -14.982  0.0000E+00  0.0000E+00
    -14.898  0.0000E+00  0.0000E+00
    -14.815  0.0000E+00  0.0000E+00
    -14.732  0.0000E+00  0.0000E+00
    -14.649  0.0000E+00  0.0000E+00
    -14.566  0.6585E-01  0.2667E-02
    -14.483  0.2436E+00  0.1336E-01
    -14.400  0.4493E+00  0.2859E-01
    -14.317  0.3596E+00  0.5642E-01
    -14.233  0.2043E+00  0.7577E-01
    -14.150  0.5803E-05  0.8000E-01
    -14.067  0.1742E+00  0.8574E-01
    -13.984  0.6229E-01  0.1199E+00
    -13.901  0.7753E-01  0.1597E+00
    -13.818  0.0000E+00  0.1600E+00
    -13.735  0.0000E+00  0.1600E+00
    -13.652  0.0000E+00  0.1600E+00
    -13.568  0.0000E+00  0.1600E+00
    -13.485  0.0000E+00  0.1600E+00
    -13.402  0.0000E+00  0.1600E+00
    -13.319  0.0000E+00  0.1600E+00
    -13.236  0.0000E+00  0.1600E+00
    -13.153  0.0000E+00  0.1600E+00
    -13.070  0.0000E+00  0.1600E+00
    -12.987  0.0000E+00  0.1600E+00
    -12.903  0.0000E+00  0.1600E+00
    -12.820  0.0000E+00  0.1600E+00
    -12.737  0.0000E+00  0.1600E+00
    -12.654  0.0000E+00  0.1600E+00
    -12.571  0.0000E+00  0.1600E+00
    -12.488  0.0000E+00  0.1600E+00
    -12.405  0.0000E+00  0.1600E+00
    -12.322  0.0000E+00  0.1600E+00
    -12.238  0.0000E+00  0.1600E+00
    -12.155  0.0000E+00  0.1600E+00
    -12.072  0.0000E+00  0.1600E+00
    -11.989  0.0000E+00  0.1600E+00
    -11.906  0.0000E+00  0.1600E+00
    -11.823  0.0000E+00  0.1600E+00
    -11.740  0.0000E+00  0.1600E+00
    -11.657  0.0000E+00  0.1600E+00
    -11.573  0.0000E+00  0.1600E+00
    -11.490  0.0000E+00  0.1600E+00
    -11.407  0.0000E+00  0.1600E+00
    -11.324  0.0000E+00  0.1600E+00
    -11.241  0.0000E+00  0.1600E+00
    -11.158  0.0000E+00  0.1600E+00
    -11.075  0.0000E+00  0.1600E+00
    -10.992  0.0000E+00  0.1600E+00
    -10.908  0.0000E+00  0.1600E+00
    -10.825  0.0000E+00  0.1600E+00
    -10.742  0.0000E+00  0.1600E+00
    -10.659  0.0000E+00  0.1600E+00
    -10.576  0.0000E+00  0.1600E+00
    -10.493  0.0000E+00  0.1600E+00
    -10.410  0.0000E+00  0.1600E+00
    -10.327  0.0000E+00  0.1600E+00
    -10.243  0.0000E+00  0.1600E+00
    -10.160  0.0000E+00  0.1600E+00
    -10.077  0.0000E+00  0.1600E+00
     -9.994  0.0000E+00  0.1600E+00
     -9.911  0.0000E+00  0.1600E+00
     -9.828  0.0000E+00  0.1600E+00
     -9.745  0.0000E+00  0.1600E+00
     -9.661  0.0000E+00  0.1600E+00
     -9.578  0.0000E+00  0.1600E+00
     -9.495  0.0000E+00  0.1600E+00
     -9.412  0.0000E+00  0.1600E+00
     -9.329  0.0000E+00  0.1600E+00
     -9.246  0.0000E+00  0.1600E+00
     -9.163  0.0000E+00  0.1600E+00
     -9.080  0.0000E+00  0.1600E+00
     -8.996  0.0000E+00  0.1600E+00
     -8.913  0.0000E+00  0.1600E+00
     -8.830  0.0000E+00  0.1600E+00
     -8.747  0.0000E+00  0.1600E+00
     -8.664  0.0000E+00  0.1600E+00
     -8.581  0.0000E+00  0.1600E+00
     -8.498  0.0000E+00  0.1600E+00
     -8.415  0.0000E+00  0.1600E+00
     -8.331  0.0000E+00  0.1600E+00
     -8.248  0.0000E+00  0.1600E+00
     -8.165  0.0000E+00  0.1600E+00
     -8.082  0.1313E-01  0.1602E+00
     -7.999  0.7651E-01  0.1634E+00
     -7.916  0.2678E+00  0.1792E+00
     -7.833  0.3816E+00  0.2087E+00
     -7.750  0.3862E+00  0.2396E+00
     -7.666  0.2897E+00  0.2647E+00
     -7.583  0.1621E+00  0.2842E+00
     -7.500  0.9981E-01  0.2929E+00
     -7.417  0.1581E+00  0.3021E+00
     -7.334  0.1806E+00  0.3169E+00
     -7.251  0.0000E+00  0.3200E+00
     -7.168  0.0000E+00  0.3200E+00
     -7.085  0.1414E-01  0.3202E+00
     -7.001  0.1564E+00  0.3259E+00
     -6.918  0.3578E+00  0.3470E+00
     -6.835  0.2959E+00  0.3733E+00
     -6.752  0.3518E+00  0.4064E+00
     -6.669  0.2809E+00  0.4437E+00
     -6.586  0.3388E+00  0.4857E+00
     -6.503  0.2907E+00  0.5136E+00
     -6.420  0.3398E+00  0.5431E+00
     -6.336  0.7391E-01  0.5588E+00
     -6.253  0.0000E+00  0.5600E+00
     -6.170  0.0000E+00  0.5600E+00
     -6.087  0.0000E+00  0.5600E+00
     -6.004  0.0000E+00  0.5600E+00
     -5.921  0.0000E+00  0.5600E+00
     -5.838  0.0000E+00  0.5600E+00
     -5.755  0.0000E+00  0.5600E+00
     -5.671  0.0000E+00  0.5600E+00
     -5.588  0.0000E+00  0.5600E+00
     -5.505  0.0000E+00  0.5600E+00
     -5.422  0.0000E+00  0.5600E+00
     -5.339  0.0000E+00  0.5600E+00
     -5.256  0.0000E+00  0.5600E+00
     -5.173  0.0000E+00  0.5600E+00
     -5.090  0.0000E+00  0.5600E+00
     -5.006  0.0000E+00  0.5600E+00
     -4.923  0.0000E+00  0.5600E+00
     -4.840  0.0000E+00  0.5600E+00
     -4.757  0.0000E+00  0.5600E+00
     -4.674  0.0000E+00  0.5600E+00
     -4.591  0.0000E+00  0.5600E+00
     -4.508  0.0000E+00  0.5600E+00
     -4.425  0.0000E+00  0.5600E+00
     -4.341  0.0000E+00  0.5600E+00
     -4.258  0.0000E+00  0.5600E+00
     -4.175  0.0000E+00  0.5600E+00
     -4.092  0.0000E+00  0.5600E+00
     -4.009  0.0000E+00  0.5600E+00
     -3.926  0.0000E+00  0.5600E+00
     -3.843  0.0000E+00  0.5600E+00
     -3.759  0.0000E+00  0.5600E+00
     -3.676  0.0000E+00  0.5600E+00
     -3.593  0.0000E+00  0.5600E+00
     -3.510  0.0000E+00  0.5600E+00
     -3.427  0.0000E+00  0.5600E+00
     -3.344  0.0000E+00  0.5600E+00
     -3.261  0.0000E+00  0.5600E+00
     -3.178  0.0000E+00  0.5600E+00
     -3.094  0.0000E+00  0.5600E+00
     -3.011  0.0000E+00  0.5600E+00
     -2.928  0.0000E+00  0.5600E+00
     -2.845  0.0000E+00  0.5600E+00
     -2.762  0.0000E+00  0.5600E+00
     -2.679  0.0000E+00  0.5600E+00
     -2.596  0.0000E+00  0.5600E+00
     -2.513  0.1817E-02  0.5600E+00
     -2.429  0.2222E-01  0.5610E+00
     -2.346  0.5902E-01  0.5640E+00
     -2.263  0.1145E+00  0.5710E+00
     -2.180  0.1168E+00  0.5810E+00
     -2.097  0.8699E-01  0.5891E+00
     -2.014  0.7745E-01  0.5962E+00
     -1.931  0.0000E+00  0.6000E+00
     -1.848  0.5868E-01  0.6015E+00
     -1.764  0.6959E-01  0.6071E+00
     -1.681  0.6961E-01  0.6129E+00
     -1.598  0.8042E-01  0.6188E+00
     -1.515  0.1275E+00  0.6277E+00
     -1.432  0.1158E+00  0.6382E+00
     -1.349  0.0000E+00  0.6400E+00
     -1.266  0.0000E+00  0.6400E+00
     -1.183  0.0000E+00  0.6400E+00
     -1.099  0.0000E+00  0.6400E+00
     -1.016  0.0000E+00  0.6400E+00
     -0.933  0.0000E+00  0.6400E+00
     -0.850  0.0000E+00  0.6400E+00
     -0.767  0.0000E+00  0.6400E+00
     -0.684  0.0000E+00  0.6400E+00
     -0.601  0.0000E+00  0.6400E+00
     -0.518  0.0000E+00  0.6400E+00
     -0.434  0.0000E+00  0.6400E+00
     -0.351  0.0000E+00  0.6400E+00
     -0.268  0.0000E+00  0.6400E+00
     -0.185  0.0000E+00  0.6400E+00
     -0.102  0.0000E+00  0.6400E+00
     -0.019  0.0000E+00  0.6400E+00
      0.064  0.0000E+00  0.6400E+00
      0.147  0.0000E+00  0.6400E+00
      0.231  0.0000E+00  0.6400E+00
      0.314  0.0000E+00  0.6400E+00
      0.397  0.0000E+00  0.6400E+00
      0.480  0.0000E+00  0.6400E+00
      0.563  0.0000E+00  0.6400E+00
      0.646  0.0000E+00  0.6400E+00
      0.729  0.0000E+00  0.6400E+00
      0.812  0.0000E+00  0.6400E+00
      0.896  0.0000E+00  0.6400E+00
      0.979  0.0000E+00  0.6400E+00
      1.062  0.0000E+00  0.6400E+00
      1.145  0.0000E+00  0.6400E+00
      1.228  0.0000E+00  0.6400E+00
      1.311  0.0000E+00  0.6400E+00
      1.394  0.0000E+00  0.6400E+00
      1.477  0.0000E+00  0.6400E+00
      1.561  0.0000E+00  0.6400E+00
      1.644  0.6210E-03  0.6400E+00
      1.727  0.2742E-02  0.6401E+00
      1.810  0.5637E-02  0.6405E+00
      1.893  0.7973E-02  0.6411E+00
      1.976  0.9235E-02  0.6418E+00
      2.059  0.1043E-01  0.6426E+00
      2.143  0.1196E-01  0.6435E+00
      2.226  0.1365E-01  0.6446E+00
      2.309  0.1622E-01  0.6458E+00
      2.392  0.1969E-01  0.6473E+00
      2.475  0.2554E-01  0.6492E+00
      2.558  0.3177E-01  0.6515E+00
      2.641  0.3170E-01  0.6543E+00
      2.724  0.2427E-01  0.6566E+00
      2.808  0.2126E-01  0.6585E+00
      2.891  0.2225E-01  0.6603E+00
      2.974  0.3416E-01  0.6625E+00
      3.057  0.6504E-01  0.6665E+00
      3.140  0.1096E+00  0.6736E+00
      3.223  0.3549E-01  0.6812E+00
      3.306  0.1047E+00  0.6859E+00
      3.389  0.7681E-01  0.6953E+00
      3.473  0.6853E-01  0.7009E+00
      3.556  0.7690E-01  0.7072E+00
      3.639  0.7196E-01  0.7136E+00
      3.722  0.4965E-01  0.7185E+00
      3.805  0.3937E-01  0.7220E+00
      3.888  0.6816E-01  0.7263E+00
      3.971  0.1066E+00  0.7334E+00
      4.054  0.8144E-01  0.7413E+00
      4.138  0.8510E-01  0.7479E+00
      4.221  0.1000E+00  0.7556E+00
      4.304  0.7790E-01  0.7636E+00
      4.387  0.1115E+00  0.7709E+00
      4.470  0.1673E+00  0.7832E+00
      4.553  0.9098E-01  0.7966E+00
      4.636  0.7190E-01  0.8010E+00
      4.719  0.1505E+00  0.8103E+00
      4.803  0.1179E+00  0.8236E+00
      4.886  0.1101E+00  0.8332E+00
      4.969  0.6824E-01  0.8394E+00
      5.052  0.1981E+00  0.8507E+00
      5.135  0.1540E+00  0.8668E+00
      5.218  0.9872E-01  0.8757E+00
      5.301  0.1348E+00  0.8862E+00
      5.384  0.1162E+00  0.8975E+00
      5.468  0.7813E-01  0.9048E+00
      5.551  0.1053E+00  0.9137E+00
      5.634  0.1123E+00  0.9211E+00
      5.717  0.1988E+00  0.9394E+00
      5.800  0.1064E+00  0.9501E+00
      5.883  0.1132E+00  0.9600E+00
      5.966  0.9062E-01  0.9683E+00
      6.049  0.5666E-01  0.9742E+00
      6.133  0.3845E-01  0.9783E+00
      6.216  0.5277E-02  0.9799E+00
      6.299  0.0000E+00  0.9800E+00
      6.382  0.0000E+00  0.9800E+00
      6.465  0.0000E+00  0.9800E+00
      6.548  0.0000E+00  0.9800E+00
      6.631  0.0000E+00  0.9800E+00
      6.714  0.0000E+00  0.9800E+00
      6.798  0.0000E+00  0.9800E+00
      6.881  0.0000E+00  0.9800E+00
      6.964  0.0000E+00  0.9800E+00
      7.047  0.0000E+00  0.9800E+00
      7.130  0.0000E+00  0.9800E+00
      7.213  0.0000E+00  0.9800E+00
      7.296  0.0000E+00  0.9800E+00
      7.379  0.0000E+00  0.9800E+00
      7.463  0.0000E+00  0.9800E+00
      7.546  0.0000E+00  0.9800E+00
      7.629  0.0000E+00  0.9800E+00
      7.712  0.0000E+00  0.9800E+00
      7.795  0.0000E+00  0.9800E+00
      7.878  0.0000E+00  0.9800E+00
      7.961  0.0000E+00  0.9800E+00
      8.045  0.0000E+00  0.9800E+00
      8.128  0.0000E+00  0.9800E+00
      8.211  0.0000E+00  0.9800E+00
      8.294  0.0000E+00  0.9800E+00
