    2    2  200    1
  0.6078360E+01  0.2580935E-09  0.2580935E-09  0.2580935E-09  0.5000000E-15
  1.000000000000000E-004
  CAR 
 graphite                                
      8    194      8
 
  0.0000000E+00  0.0000000E+00  0.0000000E+00  0.8680556E-03
    1      -11.789972
    2        8.777237
    3        8.777238
    4        8.777238
    5       14.177404
    6       14.177405
    7       14.177405
    8       20.556663
 
  0.8333333E-01  0.6938894E-17  0.3469447E-17  0.3472222E-02
    1      -11.606762
    2        7.615550
    3        8.478906
    4        8.478907
    5       14.568547
    6       14.568548
    7       14.811233
    8       20.770152
 
  0.1666667E+00  0.0000000E+00  0.6938894E-17  0.3472222E-02
    1      -11.059688
    2        5.206244
    3        7.825833
    4        7.825834
    5       15.426776
    6       15.426777
    7       15.724575
    8       21.397269
 
  0.2500000E+00  0.2775558E-16  0.2775558E-16  0.6944444E-02
    1      -10.158050
    2        2.503553
    3        7.147458
    4        7.147458
    5       16.243733
    6       16.243734
    7       16.279861
    8       22.287945
 
  0.3333333E+00  0.2775558E-16  0.1387779E-16  0.3472222E-02
    1       -8.926113
    2       -0.139898
    3        6.606392
    4        6.606392
    5       16.550433
    6       16.731495
    7       16.731497
    8       23.136838
 
  0.4166667E+00  0.0000000E+00  0.0000000E+00  0.3472222E-02
    1       -7.450783
    2       -2.501859
    3        6.266725
    4        6.266726
    5       16.671586
    6       16.910595
    7       16.910597
    8       23.663954
 
  0.5000000E+00  0.5551115E-16  0.5551115E-16  0.3472222E-02
    1       -6.401706
    2       -3.852420
    3        6.151525
    4        6.151526
    5       16.706571
    6       16.943676
    7       16.943678
    8       23.820595
 
  0.8333333E-01  0.8333333E-01  0.6938894E-17  0.1736111E-02
    1      -11.545718
    2        7.938091
    3        7.938092
    4        8.157878
    5       13.983482
    6       15.219429
    7       15.219429
    8       20.756786
 
  0.1666667E+00  0.8333333E-01  0.0000000E+00  0.3472222E-02
    1      -11.119978
    2        6.025971
    3        7.190320
    4        7.864979
    5       14.251043
    6       16.186738
    7       16.218262
    8       21.002905
 
  0.2500000E+00  0.8333333E-01  0.1387779E-16  0.1041667E-01
    1      -10.336329
    2        3.458476
    3        6.513278
    4        7.243851
    5       15.047614
    6       16.874467
    7       17.113665
    8       21.473864
 
  0.3333333E+00  0.8333333E-01  0.2775558E-16  0.6944444E-02
    1       -9.212468
    2        0.819227
    3        6.034788
    4        6.542229
    5       15.781757
    6       17.231066
    7       17.612642
    8       22.170618
 
  0.4166667E+00  0.8333333E-01  0.2775558E-16  0.3472222E-02
    1       -7.802217
    2       -1.638512
    3        5.803382
    4        5.939885
    5       16.222341
    6       17.394987
    7       17.693143
    8       23.030334
 
  0.5000000E+00  0.8333333E-01  0.5551115E-16  0.1041667E-01
    1       -6.421643
    2       -3.509604
    3        5.519884
    4        5.829679
    5       16.495526
    6       17.453427
    7       17.525987
    8       23.653127
 
 -0.4166667E+00  0.8333333E-01  0.4163336E-16  0.6944444E-02
    1       -6.816608
    2       -3.014267
    3        5.326011
    4        6.102238
    5       16.725182
    6       17.248445
    7       17.456227
    8       23.650442
 
 -0.3333333E+00  0.8333333E-01 -0.2775558E-16  0.3472222E-02
    1       -8.297565
    2       -0.848536
    3        5.382659
    4        6.591539
    5       16.850650
    6       16.864691
    7       17.401655
    8       23.032786
 
 -0.2500000E+00  0.8333333E-01 -0.1387779E-16  0.1041667E-01
    1       -9.623405
    2        1.696653
    3        5.698525
    4        7.242742
    5       16.225737
    6       16.787520
    7       17.130946
    8       22.196874
 
 -0.1666667E+00  0.8333333E-01  0.1040834E-16  0.6944444E-02
    1      -10.636814
    2        4.339221
    3        6.265596
    4        7.945824
    5       15.386229
    6       16.343924
    7       16.477055
    8       21.514408
 
 -0.8333333E-01  0.8333333E-01  0.7131302E-17  0.1736111E-02
    1      -11.302268
    2        6.631788
    3        7.163005
    4        8.469478
    5       14.664282
    6       15.370169
    7       15.681717
    8       21.035388
 
  0.1666667E+00  0.1666667E+00  0.1387779E-16  0.1736111E-02
    1      -10.816637
    2        6.389638
    3        6.389639
    4        6.547290
    5       13.526043
    6       17.360296
    7       17.360296
    8       20.438690
 
  0.2500000E+00  0.1666667E+00  0.8326673E-16  0.1041667E-01
    1      -10.154383
    2        4.322606
    3        5.684702
    4        6.211548
    5       13.763993
    6       18.315943
    7       18.427905
    8       19.967478
 
  0.3333333E+00  0.1666667E+00  0.5551115E-16  0.3472222E-02
    1       -9.146851
    2        1.881778
    3        5.201543
    4        5.501878
    5       14.545402
    6       18.801646
    7       19.094798
    8       20.031216
 
  0.4166667E+00  0.1666667E+00  0.0000000E+00  0.6944444E-02
    1       -7.830942
    2       -0.538364
    3        4.709524
    4        4.992495
    5       15.186841
    6       19.044983
    7       19.250888
    8       20.910834
 
  0.5000000E+00  0.1666667E+00  0.2775558E-16  0.1041667E-01
    1       -6.367379
    2       -2.628242
    3        4.038280
    4        5.070417
    5       15.597334
    6       19.019992
    7       19.127480
    8       22.382284
 
 -0.4166667E+00  0.1666667E+00 -0.1387779E-16  0.3472222E-02
    1       -5.988783
    2       -3.088302
    3        3.586368
    4        5.421857
    5       16.001419
    6       18.563509
    7       19.118142
    8       23.390110
 
 -0.3333333E+00  0.1666667E+00 -0.4857226E-16  0.6944444E-02
    1       -7.349860
    2       -1.255034
    3        3.408005
    4        6.006764
    5       16.460210
    6       17.924991
    7       19.027658
    8       22.827406
 
 -0.2500000E+00  0.1666667E+00 -0.6938894E-17  0.1041667E-01
    1       -8.744552
    2        1.106075
    3        3.549514
    4        6.746024
    5       16.837225
    6       17.066671
    7       18.648835
    8       21.793300
 
 -0.1666667E+00  0.1666667E+00  0.1426260E-16  0.1736111E-02
    1       -9.858772
    2        3.306608
    3        4.278689
    4        7.485734
    5       16.087379
    6       16.893955
    7       17.628085
    8       21.451281
 
  0.2500000E+00  0.2500000E+00  0.2775558E-16  0.5208333E-02
    1       -9.614827
    2        4.336022
    3        4.935681
    4        4.935681
    5       13.052336
    6       18.522003
    7       19.746815
    8       19.746816
 
  0.3333333E+00  0.2500000E+00  0.5551115E-16  0.1041667E-01
    1       -8.728239
    2        2.562229
    3        4.303914
    4        4.407552
    5       13.360634
    6       17.738089
    7       20.660743
    8       20.704423
 
  0.4166667E+00  0.2500000E+00  0.2775558E-16  0.1041667E-01
    1       -7.522038
    2        0.489405
    3        3.339603
    4        4.162409
    5       14.118915
    6       18.067319
    7       21.080728
    8       21.089463
 
  0.5000000E+00  0.2500000E+00  0.5551115E-16  0.2083333E-01
    1       -6.090046
    2       -1.526383
    3        2.397085
    4        4.220329
    5       14.636825
    6       19.644303
    7       20.930151
    8       21.243162
 
 -0.4166667E+00  0.2500000E+00  0.2081668E-16  0.1041667E-01
    1       -5.114537
    2       -2.677132
    3        1.689300
    4        4.572570
    5       15.090075
    6       20.369143
    7       21.022343
    8       22.016925
 
 -0.3333333E+00  0.2500000E+00  0.1040834E-16  0.1041667E-01
    1       -6.134000
    2       -1.390669
    3        1.321535
    4        5.180611
    5       15.673968
    6       19.482876
    7       21.049407
    8       22.681906
 
 -0.2500000E+00  0.2500000E+00  0.1736592E-16  0.1041667E-01
    1       -7.550752
    2        0.409084
    3        1.639628
    4        5.960586
    5       16.337302
    6       18.309804
    7       20.409783
    8       21.700291
 
  0.3333333E+00  0.3333333E+00  0.5551115E-16  0.1736111E-02
    1       -7.964129
    2        1.786948
    3        3.817408
    4        3.817408
    5       12.776232
    6       16.254378
    7       22.025667
    8       22.025667
 
  0.4166667E+00  0.3333333E+00  0.0000000E+00  0.3472222E-02
    1       -6.875672
    2        0.351589
    3        2.970199
    4        3.507589
    5       13.212599
    6       15.772347
    7       22.746939
    8       22.767082
 
  0.5000000E+00  0.3333333E+00  0.1110223E-15  0.1041667E-01
    1       -5.524420
    2       -1.106288
    3        1.627236
    4        3.507258
    5       13.864032
    6       16.795415
    7       22.764666
    8       23.018813
 
 -0.4166667E+00  0.3333333E+00  0.6938894E-17  0.6944444E-02
    1       -4.267598
    2       -2.273013
    3        0.444432
    4        3.814530
    5       14.309857
    6       19.077692
    7       22.151638
    8       23.009826
 
 -0.3333333E+00  0.3333333E+00 -0.7198016E-18  0.1736111E-02
    1       -4.795869
    2       -1.749050
    3        0.019915
    4        4.397721
    5       14.900428
    6       21.007529
    7       21.497028
    8       22.726760
 
  0.4166667E+00  0.4166667E+00  0.5551115E-16  0.1736111E-02
    1       -5.906487
    2       -0.894178
    3        3.122188
    4        3.122188
    5       12.850019
    6       14.502743
    7       23.823449
    8       23.823450
 
  0.5000000E+00  0.4166667E+00  0.5551115E-16  0.1041667E-01
    1       -4.657556
    2       -2.179941
    3        2.375390
    4        3.045630
    5       13.393785
    6       14.482679
    7       24.077298
    8       24.177568
 
 -0.4166667E+00  0.4166667E+00  0.7833899E-16  0.1736111E-02
    1       -3.470231
    2       -3.068949
    3        1.073517
    4        3.284226
    5       13.787047
    6       16.349428
    7       23.478997
    8       23.945455
 
  0.5000000E+00  0.5000000E+00  0.5551115E-16  0.2604167E-02
    1       -3.512470
    2       -3.512470
    3        2.886860
    4        2.886860
    5       13.390795
    6       13.390795
    7       24.551223
    8       24.551223
 
  0.0000000E+00  0.0000000E+00  0.1250000E+00  0.1736111E-02
    1      -11.378329
    2        6.484459
    3        8.172174
    4        8.172174
    5       14.973754
    6       14.973755
    7       15.301329
    8       21.036467
 
  0.8333333E-01  0.6938894E-17  0.1250000E+00  0.3472222E-02
    1      -11.378182
    2        7.143876
    3        7.568384
    4        8.046676
    5       14.012375
    6       15.705863
    7       15.709419
    8       20.848496
 
  0.1666667E+00  0.0000000E+00  0.1250000E+00  0.3472222E-02
    1      -11.013609
    2        6.314869
    3        6.790468
    4        7.309351
    5       13.781295
    6       16.755189
    7       16.773602
    8       20.731291
 
  0.2500000E+00  0.2775558E-16  0.1250000E+00  0.5208333E-02
    1      -10.290368
    2        3.927026
    3        6.102479
    4        6.824758
    5       14.380486
    6       17.549604
    7       17.744112
    8       20.758984
 
  0.3333333E+00  0.2775558E-16  0.1250000E+00  0.3472222E-02
    1       -9.223908
    2        1.353898
    3        5.628597
    4        6.096999
    5       15.180533
    6       17.963816
    7       18.309380
    8       21.166335
 
  0.4166667E+00  0.0000000E+00  0.1250000E+00  0.3472222E-02
    1       -7.858266
    2       -1.107355
    3        5.391664
    4        5.418050
    5       15.726288
    6       18.151349
    7       18.406347
    8       22.127452
 
  0.5000000E+00  0.5551115E-16  0.1250000E+00  0.5208333E-02
    1       -6.415145
    2       -3.119583
    3        4.840915
    4        5.481438
    5       16.078982
    6       18.188972
    7       18.212214
    8       23.226018
 
 -0.4166667E+00  0.0000000E+00  0.1250000E+00  0.3472222E-02
    1       -6.418576
    2       -3.111648
    3        4.512502
    4        5.805021
    5       16.417618
    6       17.811262
    7       18.203735
    8       23.588911
 
 -0.3333333E+00 -0.2775558E-16  0.1250000E+00  0.3472222E-02
    1       -7.861380
    2       -1.090414
    3        4.445153
    4        6.352122
    5       16.746078
    6       17.292847
    7       18.122682
    8       22.914183
 
 -0.2500000E+00 -0.2775558E-16  0.1250000E+00  0.5208333E-02
    1       -9.225769
    2        1.376176
    3        4.662347
    4        7.053176
    5       16.561363
    6       16.909536
    7       17.806782
    8       21.990080
 
 -0.1666667E+00  0.0000000E+00  0.1250000E+00  0.3472222E-02
    1      -10.291386
    2        3.904544
    3        5.209986
    4        7.773066
    5       15.668369
    6       16.736232
    7       16.984844
    8       21.480421
 
 -0.8333333E-01 -0.6938894E-17  0.1250000E+00  0.3472222E-02
    1      -11.014110
    2        5.593110
    3        6.645321
    4        8.251161
    5       14.977890
    6       15.874701
    7       16.118399
    8       21.251058
 
  0.8333333E-01  0.8333333E-01  0.1250000E+00  0.1736111E-02
    1      -11.500063
    2        7.224181
    3        7.920956
    4        8.554020
    5       14.514198
    6       14.931499
    7       15.185220
    8       20.872865
 
  0.1666667E+00  0.8333333E-01  0.1250000E+00  0.3472222E-02
    1      -11.256653
    2        6.420091
    3        7.265602
    4        8.270432
    5       14.458328
    6       15.684504
    7       15.822026
    8       21.027701
 
  0.2500000E+00  0.8333333E-01  0.1250000E+00  0.6944444E-02
    1      -10.651619
    2        4.742700
    3        5.915014
    4        7.884278
    5       15.010061
    6       16.625491
    7       16.723368
    8       21.281803
 
  0.3333333E+00  0.8333333E-01  0.1250000E+00  0.3472222E-02
    1       -9.696270
    2        2.192287
    3        5.288658
    4        7.203482
    5       15.871492
    6       17.009611
    7       17.589722
    8       21.729049
 
  0.4166667E+00  0.8333333E-01  0.1250000E+00  0.3472222E-02
    1       -8.420429
    2       -0.355540
    3        4.951581
    4        6.505657
    5       16.568769
    6       17.044452
    7       18.012131
    8       22.552556
 
  0.5000000E+00  0.8333333E-01  0.1250000E+00  0.6944444E-02
    1       -6.940537
    2       -2.602715
    3        4.873708
    4        5.953769
    5       16.801033
    6       17.046441
    7       18.170792
    8       23.414004
 
 -0.4166667E+00  0.8333333E-01  0.1250000E+00  0.3472222E-02
    1       -6.190851
    2       -3.549367
    3        5.000307
    4        5.666993
    5       16.537961
    6       17.313396
    7       18.242188
    8       23.598751
 
 -0.3333333E+00  0.8333333E-01  0.1250000E+00  0.3472222E-02
    1       -7.436154
    2       -1.916648
    3        5.174021
    4        5.816235
    5       16.234008
    6       17.492746
    7       18.253904
    8       22.895081
 
 -0.2500000E+00  0.8333333E-01  0.1250000E+00  0.6944444E-02
    1       -8.876944
    2        0.467028
    3        5.405003
    4        6.360782
    5       15.781784
    6       17.506360
    7       18.120604
    8       21.909286
 
 -0.1666667E+00  0.8333333E-01  0.1250000E+00  0.3472222E-02
    1      -10.051974
    2        3.054578
    3        5.841257
    4        7.058881
    5       15.043001
    6       17.266506
    7       17.640778
    8       21.246554
 
 -0.8333333E-01  0.8333333E-01  0.1250000E+00  0.3472222E-02
    1      -10.892759
    2        5.570134
    3        6.507929
    4        7.677766
    5       14.251308
    6       16.674035
    7       16.738569
    8       20.959427
 
  0.1666667E+00  0.1666667E+00  0.1250000E+00  0.1736111E-02
    1      -11.135349
    2        5.638303
    3        7.551380
    4        8.060181
    5       14.838770
    6       15.749997
    7       15.797662
    8       21.229844
 
  0.3333333E+00  0.1666667E+00  0.1250000E+00  0.3472222E-02
    1       -9.814010
    2        3.089247
    3        4.486689
    4        7.327492
    5       15.806754
    6       17.054035
    7       17.870213
    8       21.319418
 
  0.4166667E+00  0.1666667E+00  0.1250000E+00  0.3472222E-02
    1       -8.644354
    2        0.627511
    3        4.029757
    4        6.583998
    5       16.705847
    6       17.029669
    7       18.631456
    8       21.881198
 
  0.5000000E+00  0.1666667E+00  0.1250000E+00  0.6944444E-02
    1       -7.212106
    2       -1.717729
    3        3.921425
    4        5.898128
    5       16.685861
    6       17.398756
    7       18.934178
    8       22.947709
 
 -0.4166667E+00  0.1666667E+00  0.1250000E+00  0.3472222E-02
    1       -5.975048
    2       -3.337961
    3        4.083524
    4        5.410573
    5       16.292280
    6       17.834016
    7       19.077853
    8       23.443948
 
 -0.3333333E+00  0.1666667E+00  0.1250000E+00  0.3472222E-02
    1       -6.713480
    2       -2.416258
    3        4.426262
    4        5.242733
    5       15.927780
    6       18.127787
    7       19.140482
    8       22.578405
 
 -0.2500000E+00  0.1666667E+00  0.1250000E+00  0.6944444E-02
    1       -8.185698
    2       -0.211245
    3        4.763815
    4        5.560009
    5       15.500208
    6       18.262658
    7       19.064607
    8       21.289351
 
 -0.1666667E+00  0.1666667E+00  0.1250000E+00  0.3472222E-02
    1       -9.457154
    2        2.267627
    3        5.144848
    4        6.225482
    5       14.806205
    6       18.143788
    7       18.707450
    8       20.506109
 
 -0.8333333E-01  0.1666667E+00  0.1250000E+00  0.3472222E-02
    1      -10.409932
    2        4.716149
    3        5.741096
    4        6.871015
    5       14.012249
    6       17.673506
    7       17.888890
    8       20.447187
 
  0.3333333E+00  0.2500000E+00  0.1250000E+00  0.6944444E-02
    1       -9.574318
    2        3.095448
    3        4.457621
    4        6.360513
    5       14.636528
    6       18.188065
    7       19.049972
    8       20.075400
 
  0.4166667E+00  0.2500000E+00  0.1250000E+00  0.6944444E-02
    1       -8.520447
    2        1.582343
    3        3.167299
    4        5.689046
    5       15.576280
    6       18.227466
    7       19.825669
    8       20.350312
 
  0.5000000E+00  0.2500000E+00  0.1250000E+00  0.1041667E-01
    1       -7.175371
    2       -0.623172
    3        2.833443
    4        4.957509
    5       16.420748
    6       17.925378
    7       20.334657
    8       21.433637
 
 -0.4166667E+00  0.2500000E+00  0.1250000E+00  0.6944444E-02
    1       -5.762048
    2       -2.535652
    3        2.774625
    4        4.475123
    5       16.800618
    6       17.662398
    7       20.863955
    8       22.552376
 
  0.3333333E+00  0.3333333E+00  0.1250000E+00  0.1736111E-02
    1       -8.981424
    2        2.333538
    3        4.786621
    4        4.858445
    5       13.919902
    6       18.742250
    7       19.834991
    8       19.911141
 
  0.4166667E+00  0.3333333E+00  0.1250000E+00  0.3472222E-02
    1       -8.049021
    2        1.499373
    3        3.221310
    4        4.455207
    5       14.317317
    6       18.006041
    7       20.086260
    8       21.446471
 
  0.5000000E+00  0.3333333E+00  0.1250000E+00  0.6944444E-02
    1       -6.811550
    2        0.164134
    3        2.147582
    4        3.731274
    5       15.403133
    6       18.089591
    7       19.953543
    8       22.505109
 
 -0.4166667E+00  0.3333333E+00  0.1250000E+00  0.3472222E-02
    1       -5.392176
    2       -1.553728
    3        1.575363
    4        3.315889
    5       16.121042
    6       19.215061
    7       19.934372
    8       22.716633
 
 -0.3333333E+00  0.3333333E+00  0.1250000E+00  0.3472222E-02
    1       -4.710796
    2       -2.304445
    3        1.134303
    4        3.480923
    5       16.587628
    6       19.014421
    7       21.600148
    8       21.997128
 
 -0.2500000E+00  0.3333333E+00  0.1250000E+00  0.6944444E-02
    1       -5.900965
    2       -0.915231
    3        1.010294
    4        4.080218
    5       17.157633
    6       18.188066
    7       20.700724
    8       22.472682
 
 -0.1666667E+00  0.3333333E+00  0.1250000E+00  0.3472222E-02
    1       -7.275547
    2        0.233466
    3        1.986647
    4        4.901414
    5       16.764300
    6       17.813951
    7       20.111280
    8       21.566230
 
 -0.8333333E-01  0.3333333E+00  0.1250000E+00  0.3472222E-02
    1       -8.408135
    2        0.728250
    3        3.963419
    4        5.649728
    5       15.498881
    6       18.252819
    7       19.649163
    8       20.596939
 
  0.4166667E+00  0.4166667E+00  0.1250000E+00  0.1736111E-02
    1       -7.240519
    2        0.651742
    3        2.960724
    4        3.805509
    5       13.633224
    6       16.816694
    7       21.968081
    8       21.982358
 
  0.5000000E+00  0.4166667E+00  0.1250000E+00  0.6944444E-02
    1       -6.122189
    2       -0.392343
    3        2.291174
    4        3.068204
    5       14.247589
    6       16.308196
    7       22.004245
    8       23.324381
 
 -0.4166667E+00  0.4166667E+00  0.1250000E+00  0.3472222E-02
    1       -4.771687
    2       -1.542790
    3        1.486377
    4        2.406870
    5       15.456168
    6       16.885530
    7       21.749580
    8       23.477360
 
 -0.3333333E+00  0.4166667E+00  0.1250000E+00  0.3472222E-02
    1       -3.704962
    2       -2.378012
    3        0.412966
    4        2.651420
    5       15.973005
    6       19.140308
    7       21.247424
    8       22.360778
 
 -0.2500000E+00  0.4166667E+00  0.1250000E+00  0.6944444E-02
    1       -4.561053
    2       -1.820676
    3        0.380242
    4        3.308286
    5       16.530205
    6       19.675012
    7       21.473816
    8       21.660428
 
 -0.1666667E+00  0.4166667E+00  0.1250000E+00  0.3472222E-02
    1       -5.842783
    2       -1.710405
    3        1.857721
    4        4.205850
    5       17.088891
    6       17.834668
    7       21.048363
    8       22.332431
 
 -0.8333333E-01  0.4166667E+00  0.1250000E+00  0.3472222E-02
    1       -6.981860
    2       -1.557789
    3        3.717623
    4        5.068837
    5       16.074059
    6       18.034251
    7       19.970665
    8       21.843501
 
  0.5000000E+00  0.5000000E+00  0.1250000E+00  0.5208333E-02
    1       -5.128077
    2       -1.541697
    3        1.921448
    4        3.240752
    5       13.585695
    6       15.524807
    7       23.510380
    8       23.696662
 
 -0.4166667E+00  0.5000000E+00  0.1250000E+00  0.6944444E-02
    1       -3.885220
    2       -2.694114
    3        1.836950
    4        2.554296
    5       14.436063
    6       15.334631
    7       23.509049
    8       23.896692
 
 -0.3333333E+00  0.5000000E+00  0.1250000E+00  0.6944444E-02
    1       -3.683440
    2       -2.571240
    3        1.332445
    4        2.157432
    5       15.529017
    6       16.575132
    7       22.563098
    8       23.227679
 
 -0.2500000E+00  0.5000000E+00  0.1250000E+00  0.1041667E-01
    1       -4.471016
    2       -1.963401
    3        0.885018
    4        2.857590
    5       16.023552
    6       19.243783
    7       20.493112
    8       22.766757
 
 -0.1666667E+00  0.5000000E+00  0.1250000E+00  0.6944444E-02
    1       -5.116373
    2       -2.598858
    3        2.018452
    4        3.860695
    5       16.690653
    6       18.271689
    7       21.426989
    8       22.335569
 
 -0.8333333E-01  0.5000000E+00  0.1250000E+00  0.6944444E-02
    1       -5.757081
    2       -3.140048
    3        3.530619
    4        4.904432
    5       16.451562
    6       17.717648
    7       20.070300
    8       23.056024
 
 -0.4166667E+00 -0.4166667E+00  0.1250000E+00  0.1736111E-02
    1       -3.969293
    2       -2.747238
    3        1.735455
    4        3.126252
    5       13.610138
    6       15.228509
    7       23.879936
    8       24.133414
 
 -0.3333333E+00 -0.4166667E+00  0.1250000E+00  0.3472222E-02
    1       -5.033615
    2       -1.514838
    3        1.990905
    4        2.717385
    5       14.325740
    6       15.707760
    7       22.852308
    8       23.823426
 
 -0.2500000E+00 -0.4166667E+00  0.1250000E+00  0.6944444E-02
    1       -5.824735
    2       -0.626015
    3        1.767661
    4        2.936129
    5       15.400936
    6       17.410154
    7       20.851089
    8       23.225477
 
 -0.1666667E+00 -0.4166667E+00  0.1250000E+00  0.3472222E-02
    1       -6.311493
    2       -1.121736
    3        2.238543
    4        4.052967
    5       16.257748
    6       18.599651
    7       20.113604
    8       22.136918
 
 -0.8333333E-01 -0.4166667E+00  0.1250000E+00  0.3472222E-02
    1       -6.495944
    2       -2.213420
    3        3.380684
    4        5.220768
    5       16.794207
    6       17.371544
    7       19.960265
    8       22.776660
 
 -0.3333333E+00 -0.3333333E+00  0.1250000E+00  0.1736111E-02
    1       -6.225182
    2       -0.383953
    3        2.317558
    4        3.468234
    5       13.582372
    6       16.068520
    7       22.841426
    8       22.937996
 
 -0.2500000E+00 -0.3333333E+00  0.1250000E+00  0.6944444E-02
    1       -7.131572
    2        0.616617
    3        2.712206
    4        3.647739
    5       14.244592
    6       17.083055
    7       21.062185
    8       22.491401
 
 -0.1666667E+00 -0.3333333E+00  0.1250000E+00  0.3472222E-02
    1       -7.714118
    2        0.878908
    3        2.615265
    4        4.692432
    5       15.465715
    6       18.758624
    7       19.234573
    8       21.484522
 
 -0.8333333E-01 -0.3333333E+00  0.1250000E+00  0.3472222E-02
    1       -7.957879
    2       -0.040896
    3        3.419497
    4        5.850158
    5       16.587920
    6       17.382009
    7       19.677999
    8       21.514339
 
 -0.2500000E+00 -0.2500000E+00  0.1250000E+00  0.5208333E-02
    1       -8.162083
    2        1.537675
    3        3.841452
    4        4.247621
    5       13.747454
    6       17.733502
    7       20.919745
    8       20.972051
 
 -0.1666667E+00 -0.2500000E+00  0.1250000E+00  0.6944444E-02
    1       -8.865439
    2        2.305155
    3        3.804576
    4        5.400890
    5       14.454095
    6       19.013651
    7       19.130965
    8       20.287654
 
 -0.8333333E-01 -0.2500000E+00  0.1250000E+00  0.6944444E-02
    1       -9.222340
    2        2.314186
    3        3.796282
    4        6.602475
    5       15.709233
    6       17.566988
    7       19.042589
    8       20.736055
 
 -0.1666667E+00 -0.1666667E+00  0.1250000E+00  0.1736111E-02
    1       -9.692361
    2        3.116546
    3        5.410908
    4        5.886601
    5       14.137363
    6       18.605138
    7       18.824867
    8       19.907758
 
 -0.8333333E-01 -0.1666667E+00  0.1250000E+00  0.3472222E-02
    1      -10.170861
    2        3.905450
    3        5.169475
    4        7.222308
    5       14.838007
    6       17.342571
    7       17.846997
    8       20.888293
 
 -0.8333333E-01 -0.8333333E-01  0.1250000E+00  0.1736111E-02
    1      -10.772163
    2        4.772712
    3        6.832394
    4        7.581984
    5       14.624521
    6       16.579864
    7       16.702503
    8       21.212789
 
  0.1666667E+00  0.8333333E-01  0.2500000E+00  0.3472222E-02
    1      -10.575904
    2        4.937764
    3        5.681554
    4        7.496610
    5       14.467080
    6       17.071643
    7       17.300099
    8       20.908102
 
  0.3333333E+00  0.8333333E-01  0.2500000E+00  0.6944444E-02
    1       -9.379829
    2        3.234550
    3        4.272740
    4        5.717838
    5       14.038477
    6       18.947698
    7       19.226835
    8       19.729576
 
  0.4166667E+00  0.8333333E-01  0.2500000E+00  0.6944444E-02
    1       -8.271832
    2        1.219010
    3        3.512890
    4        5.051957
    5       14.907121
    6       19.073747
    7       19.179953
    8       20.735877
 
  0.5000000E+00  0.8333333E-01  0.2500000E+00  0.2083333E-01
    1       -6.887732
    2       -0.987197
    3        3.102529
    4        4.499405
    5       15.590559
    6       18.911036
    7       20.108319
    8       21.355203
 
 -0.4166667E+00  0.8333333E-01  0.2500000E+00  0.1388889E-01
    1       -5.548613
    2       -2.725693
    3        2.712559
    4        4.414510
    5       16.028343
    6       18.573331
    7       20.894364
    8       22.319742
 
 -0.3333333E+00  0.8333333E-01  0.2500000E+00  0.6944444E-02
    1       -5.941514
    2       -2.231267
    3        2.408399
    4        4.788580
    5       16.494195
    6       18.102998
    7       20.805235
    8       22.739198
 
 -0.2500000E+00  0.8333333E-01  0.2500000E+00  0.2083333E-01
    1       -7.383178
    2       -0.212891
    3        2.362161
    4        5.456853
    5       17.014631
    6       17.383121
    7       20.467104
    8       21.521312
 
 -0.1666667E+00  0.8333333E-01  0.2500000E+00  0.6944444E-02
    1       -8.682572
    2        1.779313
    3        2.930003
    4        6.243074
    5       16.254856
    6       17.493300
    7       19.756391
    8       20.642590
 
 -0.8333333E-01  0.8333333E-01  0.2500000E+00  0.6944444E-02
    1       -9.679926
    2        2.684425
    3        4.848706
    4        6.883398
    5       15.277820
    6       17.499656
    7       18.307542
    8       20.970580
 
  0.4166667E+00  0.3333333E+00  0.2500000E+00  0.6944444E-02
    1       -8.457579
    2        0.180868
    3        4.462016
    4        6.164500