   20   20  200    1
  0.1229030E+02  0.6264179E-09  0.6264179E-09  0.6264179E-09  0.5000000E-15
  1.000000000000000E-004
  CAR 
 diamond                                 
     68     36     46
