   80   80  200    1
  0.9416364E+01  0.1154967E-08  0.8078620E-09  0.8073589E-09  0.5000000E-15
  1.000000000000000E-004
  CAR 
 diamond                                 
    128     27    106
 
  0.0000000E+00  0.0000000E+00  0.0000000E+00  0.1562500E-01
    1      -14.697638
    2      -14.430175
    3      -14.407515
    4      -14.315202
    5      -14.295927
    6      -14.288235
    7      -14.259204
    8      -14.256649
    9      -14.249725
   10      -14.249468
   11      -14.243595
   12      -14.143226
   13      -14.122106
   14      -14.118027
   15      -14.106492
   16      -14.087236
   17       -7.531815
   18       -7.468474
   19       -7.407532
   20       -7.390230
   21       -7.381302
   22       -7.354824
   23       -7.228570
   24       -7.199806
   25       -7.147271
   26       -7.012889
   27       -7.000328
   28       -6.990971
   29       -6.899363
   30       -6.877905
   31       -6.856349
   32       -6.851200
   33       -6.790631
   34       -6.757790
   35       -6.751578
   36       -6.703532
   37       -6.691308
   38       -6.597028
   39       -6.590078
   40       -6.543857
   41       -6.518455
   42       -6.506817
   43       -6.500838
   44       -6.498566
   45       -6.470287
   46       -6.420100
   47       -6.405101
   48       -6.394711
   49       -6.373464
   50       -6.306233
   51       -6.300391
   52       -6.286474
   53       -6.282476
   54       -6.281559
   55       -6.268751
   56       -6.261622
   57       -6.254629
   58       -6.254519
   59       -6.199916
   60       -6.194372
   61       -6.189554
   62       -6.170486
   63       -6.130347
   64       -6.061845
   65        1.667620
   66        2.964449
   67        3.016027
   68        3.184400
   69        3.330375
   70        3.363679
   71        3.601197
   72        3.796197
   73        3.849875
   74        3.974854
   75        3.991466
   76        4.010633
   77        4.034190
   78        4.176674
   79        4.259336
   80        4.269539
   81        4.483487
   82        4.603321
   83        4.848646
   84        4.963173
   85        5.084837
   86        5.102182
   87        5.209520
   88        5.255217
   89        5.273926
   90        5.470856
   91        5.528946
   92        5.614207
   93        5.700745
   94        5.719639
   95        5.936849
   96        5.955760
   97        5.963681
   98        6.027007
   99        6.086547
  100        6.089438
  101        6.107503
  102        6.123776
  103        6.186504
  104        6.248756
  105        6.608028
  106        6.728313
 
  0.2500000E+00  0.0000000E+00  0.0000000E+00  0.3125000E-01
    1      -14.677444
    2      -14.529466
    3      -14.308732
    4      -14.303392
    5      -14.294796
    6      -14.289371
    7      -14.269623
    8      -14.256388
    9      -14.250908
   10      -14.248619
   11      -14.244475
   12      -14.132079
   13      -14.131937
   14      -14.121477
   15      -14.118384
   16      -14.093586
   17       -7.495656
   18       -7.431682
   19       -7.396931
   20       -7.371661
   21       -7.335984
   22       -7.288554
   23       -7.269747
   24       -7.241083
   25       -7.240394
   26       -7.102613
   27       -7.078094
   28       -7.018081
   29       -7.009228
   30       -6.983587
   31       -6.864056
   32       -6.769716
   33       -6.742165
   34       -6.735369
   35       -6.645786
   36       -6.624397
   37       -6.596616
   38       -6.576829
   39       -6.572260
   40       -6.531068
   41       -6.525038
   42       -6.498465
   43       -6.487082
   44       -6.475160
   45       -6.450041
   46       -6.449220
   47       -6.441905
   48       -6.365978
   49       -6.353856
   50       -6.311954
   51       -6.286893
   52       -6.286485
   53       -6.282238
   54       -6.271767
   55       -6.255998
   56       -6.255479
   57       -6.252248
   58       -6.251063
   59       -6.240948
   60       -6.231999
   61       -6.218800
   62       -6.183937
   63       -6.145357
   64       -6.114879
   65        1.774122
   66        2.510405
   67        3.258746
   68        3.372814
   69        3.404061
   70        3.436195
   71        3.603240
   72        3.717486
   73        3.846642
   74        3.857962
   75        3.881484
   76        3.971407
   77        4.139520
   78        4.196271
   79        4.245859
   80        4.329400
   81        4.535357
   82        4.557053
   83        4.701560
   84        4.919896
   85        5.095879
   86        5.108413
   87        5.177667
   88        5.219564
   89        5.416148
   90        5.422964
   91        5.472952
   92        5.556384
   93        5.556781
   94        5.870503
   95        5.875038
   96        5.877907
   97        6.006138
   98        6.016719
   99        6.107569
  100        6.139641
  101        6.150394
  102        6.172646
  103        6.255878
  104        6.394444
  105        6.537436
  106        6.775168
 
  0.5000000E+00  0.0000000E+00  0.0000000E+00  0.1562500E-01
    1      -14.619077
    2      -14.619075
    3      -14.292107
    4      -14.292106
    5      -14.291259
    6      -14.291257
    7      -14.253686
    8      -14.253683
    9      -14.246540
   10      -14.246539
   11      -14.202060
   12      -14.202059
   13      -14.119999
   14      -14.119997
   15      -14.110739
   16      -14.110739
   17       -7.395934
   18       -7.395933
   19       -7.356668
   20       -7.356668
   21       -7.333470
   22       -7.333468
   23       -7.252176
   24       -7.252175
   25       -7.206103
   26       -7.206102
   27       -7.161300
   28       -7.161299
   29       -7.072072
   30       -7.072071
   31       -6.711922
   32       -6.711920
   33       -6.673225
   34       -6.673223
   35       -6.664743
   36       -6.664742
   37       -6.645948
   38       -6.645947
   39       -6.520252
   40       -6.520250
   41       -6.494512
   42       -6.494511
   43       -6.422138
   44       -6.422137
   45       -6.395874
   46       -6.395873
   47       -6.363294
   48       -6.363293
   49       -6.339328
   50       -6.339327
   51       -6.306775
   52       -6.306775
   53       -6.285674
   54       -6.285671
   55       -6.284567
   56       -6.284567
   57       -6.260984
   58       -6.260982
   59       -6.222737
   60       -6.222737
   61       -6.220474
   62       -6.220473
   63       -6.189907
   64       -6.189906
   65        2.073896
   66        2.073897
   67        3.461509
   68        3.461511
   69        3.560760
   70        3.560761
   71        3.604786
   72        3.604786
   73        3.633732
   74        3.633733
   75        3.940747
   76        3.940747
   77        4.215573
   78        4.215574
   79        4.374423
   80        4.374424
   81        4.491525
   82        4.491527
   83        4.688580
   84        4.688582
   85        5.143868
   86        5.143868
   87        5.252910
   88        5.252912
   89        5.310317
   90        5.310319
   91        5.443876
   92        5.443877
   93        5.723223
   94        5.723224
   95        5.825862
   96        5.825863
   97        6.150509
   98        6.150511
   99        6.159020
  100        6.159020
  101        6.159527
  102        6.159528
  103        6.469706
  104        6.469707
  105        6.537565
  106        6.537566
 
  0.0000000E+00  0.2500000E+00  0.0000000E+00  0.3125000E-01
    1      -14.659602
    2      -14.416014
    3      -14.410229
    4      -14.385382
    5      -14.309954
    6      -14.297898
    7      -14.273896
    8      -14.242215
    9      -14.237101
   10      -14.234524
   11      -14.178672
   12      -14.157059
   13      -14.139117
   14      -14.130048
   15      -14.108789
   16      -14.100309
   17       -7.512479
   18       -7.373579
   19       -7.338319
   20       -7.326627
   21       -7.322718
   22       -7.307527
   23       -7.284234
   24       -7.170574
   25       -7.151587
   26       -6.994504
   27       -6.990009
   28       -6.943824
   29       -6.935315
   30       -6.908280
   31       -6.886027
   32       -6.865583
   33       -6.856079
   34       -6.804486
   35       -6.777139
   36       -6.709525
   37       -6.613406
   38       -6.592353
   39       -6.587637
   40       -6.578919
   41       -6.558562
   42       -6.529284
   43       -6.502778
   44       -6.464842
   45       -6.407636
   46       -6.398950
   47       -6.382203
   48       -6.379879
   49       -6.357924
   50       -6.352534
   51       -6.338523
   52       -6.327860
   53       -6.308841
   54       -6.301393
   55       -6.289843
   56       -6.289174
   57       -6.277146
   58       -6.274799
   59       -6.228673
   60       -6.221303
   61       -6.209434
   62       -6.180384
   63       -6.116205
   64       -6.097223
   65        1.888052
   66        3.077097
   67        3.166189
   68        3.270346
   69        3.341921
   70        3.366040
   71        3.522881
   72        3.737946
   73        3.804543
   74        3.974237
   75        3.998092
   76        4.042814
   77        4.131755
   78        4.167484
   79        4.343616
   80        4.604163
   81        4.647588
   82        4.689990
   83        4.693981
   84        4.733107
   85        4.876545
   86        4.970958
   87        5.215251
   88        5.305742
   89        5.350479
   90        5.350705
   91        5.420439
   92        5.455720
   93        5.461625
   94        5.614274
   95        5.781089
   96        5.843008
   97        6.012668
   98        6.038584
   99        6.050413
  100        6.050769
  101        6.061286
  102        6.076441
  103        6.154111
  104        6.209871
  105        6.249481
  106        6.753843
 
  0.2500000E+00  0.2500000E+00  0.0000000E+00  0.6250000E-01
    1      -14.640544
    2      -14.501467
    3      -14.406592
    4      -14.341597
    5      -14.291525
    6      -14.290227
    7      -14.250695
    8      -14.243346
    9      -14.241126
   10      -14.235684
   11      -14.184729
   12      -14.145856
   13      -14.138175
   14      -14.131477
   15      -14.131311
   16      -14.106586
   17       -7.478682
   18       -7.374723
   19       -7.353606
   20       -7.305313
   21       -7.293747
   22       -7.255367
   23       -7.245997
   24       -7.244997
   25       -7.200342
   26       -7.083330
   27       -7.056564
   28       -7.015437
   29       -7.004712
   30       -6.939940
   31       -6.876555
   32       -6.770761
   33       -6.766786
   34       -6.706452
   35       -6.683722
   36       -6.677855
   37       -6.673930
   38       -6.643676
   39       -6.571477
   40       -6.544904
   41       -6.522374
   42       -6.502923
   43       -6.501966
   44       -6.484606
   45       -6.428256
   46       -6.411848
   47       -6.394643
   48       -6.380853
   49       -6.372610
   50       -6.356589
   51       -6.350963
   52       -6.325046
   53       -6.324073
   54       -6.313784
   55       -6.304548
   56       -6.303748
   57       -6.271107
   58       -6.249295
   59       -6.235608
   60       -6.227666
   61       -6.186522
   62       -6.178142
   63       -6.132616
   64       -6.098322
   65        1.984968
   66        2.667108
   67        3.269908
   68        3.325721
   69        3.408498
   70        3.433975
   71        3.656247
   72        3.714989
   73        3.824264
   74        3.943082
   75        3.963008
   76        4.025969
   77        4.196550
   78        4.224759
   79        4.410909
   80        4.493927
   81        4.583796
   82        4.624071
   83        4.683959
   84        4.695802
   85        4.958792
   86        4.972523
   87        5.158251
   88        5.259193
   89        5.312486
   90        5.364167
   91        5.386667
   92        5.389346
   93        5.520618
   94        5.759473
   95        5.783627
   96        5.869087
   97        5.890471
   98        5.972701
   99        5.984581
  100        6.030533
  101        6.106658
  102        6.134507
  103        6.228798
  104        6.229972
  105        6.266595
  106        6.663751
 
  0.5000000E+00  0.2500000E+00  0.0000000E+00  0.3125000E-01
    1      -14.585571
    2      -14.585570
    3      -14.380015
    4      -14.380013
    5      -14.273932
    6      -14.273930
    7      -14.238471
    8      -14.238471
    9      -14.207731
   10      -14.207729
   11      -14.196599
   12      -14.196597
   13      -14.134399
   14      -14.134397
   15      -14.123784
   16      -14.123783
   17       -7.388337
   18       -7.388336
   19       -7.339440
   20       -7.339439
   21       -7.305132
   22       -7.305132
   23       -7.204301
   24       -7.204300
   25       -7.129272
   26       -7.129271
   27       -7.123436
   28       -7.123435
   29       -7.042867
   30       -7.042865
   31       -6.794054
   32       -6.794054
   33       -6.707046
   34       -6.707046
   35       -6.626452
   36       -6.626452
   37       -6.589077
   38       -6.589077
   39       -6.530730
   40       -6.530729
   41       -6.506219
   42       -6.506218
   43       -6.495710
   44       -6.495710
   45       -6.485097
   46       -6.485096
   47       -6.418351
   48       -6.418351
   49       -6.383032
   50       -6.383031
   51       -6.335396
   52       -6.335395
   53       -6.331073
   54       -6.331071
   55       -6.322415
   56       -6.322414
   57       -6.226722
   58       -6.226721
   59       -6.215736
   60       -6.215735
   61       -6.183016
   62       -6.183015
   63       -6.130643
   64       -6.130643
   65        2.260227
   66        2.260228
   67        3.281436
   68        3.281437
   69        3.592923
   70        3.592925
   71        3.601674
   72        3.601674
   73        3.841664
   74        3.841664
   75        4.107719
   76        4.107720
   77        4.268587
   78        4.268588
   79        4.376050
   80        4.376050
   81        4.567220
   82        4.567222
   83        4.633870
   84        4.633872
   85        5.050276
   86        5.050278
   87        5.175850
   88        5.175850
   89        5.269936
   90        5.269937
   91        5.304888
   92        5.304889
   93        5.704600
   94        5.704601
   95        5.837194
   96        5.837195
   97        5.967497
   98        5.967497
   99        6.001246
  100        6.001247
  101        6.067660
  102        6.067662
  103        6.316683
  104        6.316683
  105        6.485829
  106        6.485955
 
  0.0000000E+00  0.5000000E+00  0.0000000E+00  0.1562500E-01
    1      -14.555889
    2      -14.555889
    3      -14.360951
    4      -14.360951
    5      -14.330660
    6      -14.330660
    7      -14.260761
    8      -14.260761
    9      -14.197980
   10      -14.197980
   11      -14.188868
   12      -14.188868
   13      -14.125602
   14      -14.125602
   15      -14.124804
   16      -14.124804
   17       -7.425774
   18       -7.425774
   19       -7.238806
   20       -7.238806
   21       -7.193814
   22       -7.193814
   23       -7.171558
   24       -7.171558
   25       -7.108451
   26       -7.108451
   27       -7.106867
   28       -7.106867
   29       -7.010704
   30       -7.010704
   31       -6.854185
   32       -6.854185
   33       -6.724149
   34       -6.724149
   35       -6.713130
   36       -6.713130
   37       -6.624166
   38       -6.624166
   39       -6.589408
   40       -6.589408
   41       -6.514475
   42       -6.514475
   43       -6.513436
   44       -6.513436
   45       -6.474093
   46       -6.474093
   47       -6.461341
   48       -6.461341
   49       -6.333967
   50       -6.333967
   51       -6.329859
   52       -6.329859
   53       -6.308757
   54       -6.308757
   55       -6.292226
   56       -6.292226
   57       -6.274190
   58       -6.274190
   59       -6.248243
   60       -6.248243
   61       -6.207960
   62       -6.207960
   63       -6.127985
   64       -6.127985
   65        2.476552
   66        2.476552
   67        3.312999
   68        3.312999
   69        3.509316
   70        3.509316
   71        3.692626
   72        3.692626
   73        3.871827
   74        3.871827
   75        4.198218
   76        4.198218
   77        4.313891
   78        4.313891
   79        4.353213
   80        4.353213
   81        4.385319
   82        4.385319
   83        4.858838
   84        4.858838
   85        5.008660
   86        5.008660
   87        5.079364
   88        5.079364
   89        5.186873
   90        5.186873
   91        5.295631
   92        5.295631
   93        5.575953
   94        5.575953
   95        5.734508
   96        5.734508
   97        5.834608
   98        5.834608
   99        5.874954
  100        5.874954
  101        6.226746
  102        6.226746
  103        6.303467
  104        6.303477
  105        6.379462
  106        6.380029
 
  0.2500000E+00  0.5000000E+00  0.0000000E+00  0.3125000E-01
    1      -14.540349
    2      -14.540349
    3      -14.428633
    4      -14.428633
    5      -14.261802
    6      -14.261802
    7      -14.255270
    8      -14.255270
    9      -14.219533
   10      -14.219533
   11      -14.167267
   12      -14.167267
   13      -14.141930
   14      -14.141930
   15      -14.130794
   16      -14.130794
   17       -7.403907
   18       -7.403907
   19       -7.277387
   20       -7.277387
   21       -7.218170
   22       -7.218170
   23       -7.204448
   24       -7.204448
   25       -7.131074
   26       -7.131074
   27       -7.026540
   28       -7.026540
   29       -6.977853
   30       -6.977853
   31       -6.792551
   32       -6.792551
   33       -6.732219
   34       -6.732219
   35       -6.732063
   36       -6.732063
   37       -6.650082
   38       -6.650082
   39       -6.595693
   40       -6.595693
   41       -6.534001
   42       -6.534001
   43       -6.475160
   44       -6.475160
   45       -6.474367
   46       -6.474367
   47       -6.463007
   48       -6.463007
   49       -6.392617
   50       -6.392617
   51       -6.363826
   52       -6.363826
   53       -6.337336
   54       -6.337336
   55       -6.329987
   56       -6.329987
   57       -6.246208
   58       -6.246208
   59       -6.194367
   60       -6.194367
   61       -6.166079
   62       -6.166079
   63       -6.128292
   64       -6.128292
   65        2.542089
   66        2.542089
   67        3.028447
   68        3.028447
   69        3.712676
   70        3.712676
   71        3.738708
   72        3.738708
   73        3.910893
   74        3.910893
   75        4.187359
   76        4.187359
   77        4.323013
   78        4.323013
   79        4.357745
   80        4.357745
   81        4.425279
   82        4.425279
   83        4.710331
   84        4.710331
   85        4.974373
   86        4.974373
   87        5.119283
   88        5.119283
   89        5.271388
   90        5.271388
   91        5.305139
   92        5.305139
   93        5.539068
   94        5.539068
   95        5.784072
   96        5.784072
   97        5.799827
   98        5.799827
   99        5.891655
  100        5.891655
  101        6.162772
  102        6.162773
  103        6.259145
  104        6.259308
  105        6.289738
  106        6.290565
 
  0.5000000E+00  0.5000000E+00  0.0000000E+00  0.1562500E-01
    1      -14.495815
    2      -14.495815
    3      -14.495814
    4      -14.495814
    5      -14.241193
    6      -14.241193
    7      -14.241191
    8      -14.241191
    9      -14.190279
   10      -14.190279
   11      -14.190278
   12      -14.190278
   13      -14.145489
   14      -14.145489
   15      -14.145488
   16      -14.145488
   17       -7.346540
   18       -7.346540
   19       -7.346539
   20       -7.346539
   21       -7.235120
   22       -7.235120
   23       -7.235119
   24       -7.235119
   25       -7.078992
   26       -7.078992
   27       -7.078990
   28       -7.078990
   29       -6.818438
   30       -6.818438
   31       -6.818437
   32       -6.818437
   33       -6.742134
   34       -6.742134
   35       -6.742134
   36       -6.742134
   37       -6.633310
   38       -6.633310
   39       -6.633309
   40       -6.633309
   41       -6.536302
   42       -6.536302
   43       -6.536302
   44       -6.536301
   45       -6.446785
   46       -6.446785
   47       -6.446784
   48       -6.446784
   49       -6.386016
   50       -6.386016
   51       -6.386016
   52       -6.386015
   53       -6.368645
   54       -6.368645
   55       -6.368645
   56       -6.368645
   57       -6.202635
   58       -6.202635
   59       -6.202633
   60       -6.202633
   61       -6.128393
   62       -6.128393
   63       -6.128393
   64       -6.128393
   65        2.733055
   66        2.733055
   67        2.733056
   68        2.733056
   69        3.752875
   70        3.752875
   71        3.752875
   72        3.752875
   73        4.113704
   74        4.113704
   75        4.113705
   76        4.113705
   77        4.336074
   78        4.336074
   79        4.336075
   80        4.336075
   81        4.538765
   82        4.538766
   83        4.538766
   84        4.538766
   85        5.029443
   86        5.029443
   87        5.029444
   88        5.029444
   89        5.298203
   90        5.298203
   91        5.298205
   92        5.298205
   93        5.650565
   94        5.650565
   95        5.650566
   96        5.650566
   97        5.900922
   98        5.900922
   99        5.900923
  100        5.900923
  101        6.167758
  102        6.167758
  103        6.167807
  104        6.167908
  105        6.257743
  106        6.257743
 
  0.0000000E+00  0.0000000E+00  0.2500000E+00  0.3125000E-01
    1      -14.658831
    2      -14.415978
    3      -14.404511
    4      -14.386307
    5      -14.279697
    6      -14.274664
    7      -14.272867
    8      -14.268466
    9      -14.240649
   10      -14.231136
   11      -14.207668
   12      -14.165273
   13      -14.142423
   14      -14.138026
   15      -14.102858
   16      -14.095127
   17       -7.429082
   18       -7.418737
   19       -7.363834
   20       -7.330922
   21       -7.318252
   22       -7.265912
   23       -7.200335
   24       -7.142762
   25       -7.099880
   26       -7.034167
   27       -7.008690
   28       -6.994633
   29       -6.993619
   30       -6.993176
   31       -6.890662
   32       -6.835564
   33       -6.799414
   34       -6.794255
   35       -6.699344
   36       -6.691930
   37       -6.676525
   38       -6.601833
   39       -6.528267
   40       -6.524262
   41       -6.521475
   42       -6.512946
   43       -6.507241
   44       -6.496045
   45       -6.405746
   46       -6.395585
   47       -6.393808
   48       -6.388098
   49       -6.382728
   50       -6.377535
   51       -6.336631
   52       -6.325663
   53       -6.323517
   54       -6.317327
   55       -6.311207
   56       -6.304241
   57       -6.292760
   58       -6.287861
   59       -6.250546
   60       -6.242944
   61       -6.225808
   62       -6.180632
   63       -6.150131
   64       -6.098644
   65        1.885037
   66        3.115359
   67        3.152618
   68        3.240131
   69        3.342401
   70        3.399206
   71        3.519695
   72        3.708511
   73        3.831960
   74        3.987991
   75        4.036427
   76        4.155186
   77        4.163375
   78        4.299889
   79        4.401767
   80        4.539014
   81        4.631551
   82        4.776286
   83        4.854329
   84        5.001059
   85        5.005809
   86        5.053102
   87        5.143315
   88        5.145237
   89        5.225315
   90        5.313763
   91        5.350892
   92        5.362893
   93        5.464654
   94        5.493892
   95        5.537436
   96        5.912001
   97        5.938137
   98        5.974501
   99        6.066600
  100        6.141468
  101        6.258401
  102        6.328012
  103        6.328711
  104        6.596529
  105        6.722911
  106        6.745848
 
  0.2500000E+00  0.0000000E+00  0.2500000E+00  0.6250000E-01
    1      -14.639613
    2      -14.499387
    3      -14.404940
    4      -14.327673
    5      -14.290060
    6      -14.270942
    7      -14.269574
    8      -14.241675
    9      -14.232856
   10      -14.231866
   11      -14.208554
   12      -14.156011
   13      -14.141764
   14      -14.138872
   15      -14.125991
   16      -14.104822
   17       -7.417210
   18       -7.386999
   19       -7.338444
   20       -7.308300
   21       -7.297658
   22       -7.241294
   23       -7.222476
   24       -7.205790
   25       -7.154928
   26       -7.076100
   27       -7.052386
   28       -7.047092
   29       -7.042063
   30       -6.977417
   31       -6.872615
   32       -6.812425
   33       -6.785548
   34       -6.677620
   35       -6.674616
   36       -6.668680
   37       -6.657945
   38       -6.576600
   39       -6.572961
   40       -6.557005
   41       -6.516219
   42       -6.502282
   43       -6.488381
   44       -6.466812
   45       -6.440281
   46       -6.432163
   47       -6.402751
   48       -6.392104
   49       -6.371325
   50       -6.365572
   51       -6.329962
   52       -6.329745
   53       -6.327888
   54       -6.321578
   55       -6.303012
   56       -6.290912
   57       -6.286079
   58       -6.258754
   59       -6.252501
   60       -6.250593
   61       -6.233171
   62       -6.200214
   63       -6.172983
   64       -6.106219
   65        1.981867
   66        2.666957
   67        3.236770
   68        3.312363
   69        3.426129
   70        3.529153
   71        3.574759
   72        3.830854
   73        3.889083
   74        3.900728
   75        3.922964
   76        4.164686
   77        4.249658
   78        4.287991
   79        4.442944
   80        4.498995
   81        4.675733
   82        4.703033
   83        4.723166
   84        4.926728
   85        4.953667
   86        4.998302
   87        5.114731
   88        5.138461
   89        5.155297
   90        5.285159
   91        5.445430
   92        5.451390
   93        5.461689
   94        5.551149
   95        5.720210
   96        5.827454
   97        5.853728
   98        6.068389
   99        6.095991
  100        6.123078
  101        6.145680
  102        6.332195
  103        6.395903
  104        6.468950
  105        6.611535
  106        6.709212
 
  0.5000000E+00  0.0000000E+00  0.2500000E+00  0.3125000E-01
    1      -14.584220
    2      -14.584218
    3      -14.373653
    4      -14.373651
    5      -14.272414
    6      -14.272413
    7      -14.236837
    8      -14.236834
    9      -14.213702
   10      -14.213701
   11      -14.191367
   12      -14.191366
   13      -14.140127
   14      -14.140125
   15      -14.129996
   16      -14.129995
   17       -7.369739
   18       -7.369739
   19       -7.304455
   20       -7.304453
   21       -7.255485
   22       -7.255484
   23       -7.207920
   24       -7.207919
   25       -7.200732
   26       -7.200731
   27       -7.074541
   28       -7.074540
   29       -7.060640
   30       -7.060639
   31       -6.763139
   32       -6.763139
   33       -6.735007
   34       -6.735007
   35       -6.666389
   36       -6.666389
   37       -6.613185
   38       -6.613183
   39       -6.544917
   40       -6.544916
   41       -6.490201
   42       -6.490200
   43       -6.455114
   44       -6.455114
   45       -6.452302
   46       -6.452302
   47       -6.413499
   48       -6.413499
   49       -6.381557
   50       -6.381557
   51       -6.332548
   52       -6.332546
   53       -6.317251
   54       -6.317250
   55       -6.303304
   56       -6.303303
   57       -6.273217
   58       -6.273216
   59       -6.248526
   60       -6.248524
   61       -6.219097
   62       -6.219096
   63       -6.150130
   64       -6.150130
   65        2.257270
   66        2.257271
   67        3.248488
   68        3.248489
   69        3.632747
   70        3.632749
   71        3.689665
   72        3.689665
   73        3.806629
   74        3.806629
   75        4.170918
   76        4.170919
   77        4.290982
   78        4.290982
   79        4.480766
   80        4.480766
   81        4.549080
   82        4.549081
   83        4.809508
   84        4.809509
   85        4.993191
   86        4.993192
   87        5.106883
   88        5.106884
   89        5.116534
   90        5.116534
   91        5.417176
   92        5.417177
   93        5.647569
   94        5.647569
   95        5.787411
   96        5.787411
   97        6.002826
   98        6.002827
   99        6.081032
  100        6.081032
  101        6.239794
  102        6.239795
  103        6.380675
  104        6.380676
  105        6.582636
  106        6.582637
 
  0.0000000E+00  0.2500000E+00  0.2500000E+00  0.6250000E-01
    1      -14.622085
    2      -14.392238
    3      -14.390031
    4      -14.381119
    5      -14.364522
    6      -14.288959
    7      -14.269271
    8      -14.259718
    9      -14.254849
   10      -14.217420
   11      -14.208296
   12      -14.161760
   13      -14.159565
   14      -14.118316
   15      -14.104795
   16      -14.101686
   17       -7.412239
   18       -7.328103
   19       -7.292237
   20       -7.278210
   21       -7.265309
   22       -7.224715
   23       -7.219000
   24       -7.112858
   25       -7.054189
   26       -7.053334
   27       -6.969811
   28       -6.957688
   29       -6.952986
   30       -6.918558
   31       -6.915361
   32       -6.892481
   33       -6.856889
   34       -6.836607
   35       -6.813717
   36       -6.708134
   37       -6.691352
   38       -6.600008
   39       -6.566053
   40       -6.545836
   41       -6.544803
   42       -6.494727
   43       -6.483213
   44       -6.470452
   45       -6.464427