   80   80  200    1
  0.9416364E+01  0.1154967E-08  0.8078620E-09  0.8073589E-09  0.5000000E-15
  1.000000000000000E-004
  CAR 
 diamond                                 
    128     27    106
 
  0.0000000E+00  0.0000000E+00  0.0000000E+00  0.1562500E-01
    1      -14.698063
    2      -14.430286
    3      -14.408293
    4      -14.315989
    5      -14.296083
    6      -14.288391
    7      -14.259986
    8      -14.257493
    9      -14.250553
   10      -14.249514
   11      -14.243645
   12      -14.143386
   13      -14.122990
   14      -14.118912
   15      -14.106953
   16      -14.087391
   17       -7.531260
   18       -7.469743
   19       -7.406553
   20       -7.389903
   21       -7.383734
   22       -7.355463
   23       -7.227051
   24       -7.199426
   25       -7.146192
   26       -7.012940
   27       -6.998317
   28       -6.991891
   29       -6.898546
   30       -6.877536
   31       -6.859126
   32       -6.848336
   33       -6.791953
   34       -6.757770
   35       -6.755621
   36       -6.706124
   37       -6.695541
   38       -6.600394
   39       -6.589370
   40       -6.542248
   41       -6.517566
   42       -6.510220
   43       -6.500308
   44       -6.498360
   45       -6.473342
   46       -6.417458
   47       -6.404966
   48       -6.396388
   49       -6.371095
   50       -6.308092
   51       -6.299565
   52       -6.286607
   53       -6.282694
   54       -6.282107
   55       -6.268647
   56       -6.261129
   57       -6.254425
   58       -6.253036
   59       -6.197564
   60       -6.197234
   61       -6.189659
   62       -6.169100
   63       -6.129306
   64       -6.065234
   65        1.667657
   66        2.962672
   67        3.015772
   68        3.185867
   69        3.329494
   70        3.364028
   71        3.600052
   72        3.797391
   73        3.850414
   74        3.976646
   75        3.990384
   76        4.010962
   77        4.033796
   78        4.177191
   79        4.260304
   80        4.270398
   81        4.485736
   82        4.600453
   83        4.848353
   84        4.963560
   85        5.085306
   86        5.101046
   87        5.208994
   88        5.255684
   89        5.271631
   90        5.471266
   91        5.528043
   92        5.614425
   93        5.700917
   94        5.721827
   95        5.938776
   96        5.953932
   97        5.966348
   98        6.025997
   99        6.087035
  100        6.092353
  101        6.106327
  102        6.123400
  103        6.187754
  104        6.248311
  105        6.608038
  106        6.728276
 
  0.2500000E+00  0.0000000E+00  0.0000000E+00  0.3125000E-01
    1      -14.677869
    2      -14.529876
    3      -14.309516
    4      -14.303872
    5      -14.294952
    6      -14.289527
    7      -14.270408
    8      -14.257214
    9      -14.251735
   10      -14.248665
   11      -14.244524
   12      -14.132412
   13      -14.132252
   14      -14.122361
   15      -14.119256
   16      -14.093748
   17       -7.495054
   18       -7.432869
   19       -7.396985
   20       -7.370441
   21       -7.338432
   22       -7.288762
   23       -7.269733
   24       -7.240746
   25       -7.239570
   26       -7.101389
   27       -7.078206
   28       -7.017656
   29       -7.011746
   30       -6.982263
   31       -6.864853
   32       -6.772361
   33       -6.740253
   34       -6.735360
   35       -6.648838
   36       -6.625863
   37       -6.597436
   38       -6.576698
   39       -6.571668
   40       -6.529700
   41       -6.527512
   42       -6.500733
   43       -6.486679
   44       -6.477151
   45       -6.452666
   46       -6.449040
   47       -6.440668
   48       -6.367892
   49       -6.352927
   50       -6.312700
   51       -6.286881
   52       -6.286643
   53       -6.282205
   54       -6.271802
   55       -6.255920
   56       -6.254787
   57       -6.251642
   58       -6.249276
   59       -6.243933
   60       -6.232180
   61       -6.216214
   62       -6.182566
   63       -6.144457
   64       -6.117985
   65        1.774078
   66        2.509766
   67        3.260071
   68        3.371504
   69        3.403150
   70        3.436525
   71        3.602027
   72        3.718075
   73        3.848038
   74        3.856900
   75        3.881777
   76        3.973433
   77        4.138943
   78        4.196692
   79        4.246695
   80        4.330241
   81        4.537478
   82        4.554599
   83        4.701980
   84        4.921129
   85        5.095758
   86        5.107825
   87        5.177733
   88        5.217625
   89        5.415138
   90        5.422629
   91        5.472624
   92        5.556373
   93        5.557204
   94        5.872372
   95        5.875987
   96        5.877592
   97        6.005152
   98        6.016878
   99        6.108036
  100        6.140041
  101        6.152928
  102        6.172425
  103        6.255722
  104        6.394700
  105        6.537849
  106        6.773854
 
  0.5000000E+00  0.0000000E+00  0.0000000E+00  0.1562500E-01
    1      -14.619499
    2      -14.619497
    3      -14.292263
    4      -14.292262
    5      -14.292038
    6      -14.292035
    7      -14.254511
    8      -14.254508
    9      -14.246588
   10      -14.246587
   11      -14.202528
   12      -14.202526
   13      -14.120882
   14      -14.120879
   15      -14.110914
   16      -14.110913
   17       -7.395014
   18       -7.395013
   19       -7.356788
   20       -7.356788
   21       -7.334238
   22       -7.334236
   23       -7.251633
   24       -7.251632
   25       -7.208591
   26       -7.208589
   27       -7.161241
   28       -7.161240
   29       -7.071017
   30       -7.071015
   31       -6.712429
   32       -6.712428
   33       -6.673292
   34       -6.673290
   35       -6.668082
   36       -6.668081
   37       -6.644208
   38       -6.644207
   39       -6.519921
   40       -6.519919
   41       -6.492911
   42       -6.492910
   43       -6.424540
   44       -6.424540
   45       -6.397326
   46       -6.397326
   47       -6.365921
   48       -6.365920
   49       -6.339928
   50       -6.339927
   51       -6.307506
   52       -6.307505
   53       -6.285764
   54       -6.285761
   55       -6.285256
   56       -6.285255
   57       -6.260961
   58       -6.260958
   59       -6.221704
   60       -6.221703
   61       -6.219175
   62       -6.219174
   63       -6.189127
   64       -6.189126
   65        2.073620
   66        2.073621
   67        3.462481
   68        3.462483
   69        3.559413
   70        3.559414
   71        3.603799
   72        3.603800
   73        3.634025
   74        3.634026
   75        3.942629
   76        3.942629
   77        4.216067
   78        4.216068
   79        4.373118
   80        4.373118
   81        4.492272
   82        4.492273
   83        4.690382
   84        4.690384
   85        5.142774
   86        5.142775
   87        5.252481
   88        5.252483
   89        5.310150
   90        5.310152
   91        5.444184
   92        5.444184
   93        5.722213
   94        5.722214
   95        5.825880
   96        5.825880
   97        6.150493
   98        6.150494
   99        6.159828
  100        6.159828
  101        6.160337
  102        6.160339
  103        6.469825
  104        6.469826
  105        6.539889
  106        6.539890
 
  0.0000000E+00  0.2500000E+00  0.0000000E+00  0.3125000E-01
    1      -14.660030
    2      -14.416436
    3      -14.410346
    4      -14.386167
    5      -14.310102
    6      -14.298653
    7      -14.274716
    8      -14.242408
    9      -14.237950
   10      -14.234579
   11      -14.179072
   12      -14.157310
   13      -14.139996
   14      -14.130788
   15      -14.109260
   16      -14.100496
   17       -7.511935
   18       -7.375002
   19       -7.337937
   20       -7.329095
   21       -7.321925
   22       -7.308184
   23       -7.283857
   24       -7.169506
   25       -7.150335
   26       -6.995121
   27       -6.989106
   28       -6.946617
   29       -6.934642
   30       -6.909447
   31       -6.886472
   32       -6.868684
   33       -6.854804
   34       -6.806498
   35       -6.774236
   36       -6.709016
   37       -6.617672
   38       -6.594148
   39       -6.586039
   40       -6.582083
   41       -6.557858
   42       -6.528040
   43       -6.500397
   44       -6.462648
   45       -6.410486
   46       -6.401070
   47       -6.382230
   48       -6.378724
   49       -6.358985
   50       -6.352557
   51       -6.340956
   52       -6.326453
   53       -6.307662
   54       -6.301410
   55       -6.291142
   56       -6.289371
   57       -6.277099
   58       -6.274519
   59       -6.228404
   60       -6.218964
   61       -6.212464
   62       -6.179415
   63       -6.115409
   64       -6.100525
   65        1.888156
   66        3.075494
   67        3.166013
   68        3.270550
   69        3.343344
   70        3.365065
   71        3.523002
   72        3.736892
   73        3.805524
   74        3.975395
   75        3.998697
   76        4.043475
   77        4.131632
   78        4.167451
   79        4.344338
   80        4.606268
   81        4.645695
   82        4.687243
   83        4.694172
   84        4.733882
   85        4.876355
   86        4.970576
   87        5.213056
   88        5.305879
   89        5.349289
   90        5.350237
   91        5.420106
   92        5.456799
   93        5.463093
   94        5.616497
   95        5.783738
   96        5.842811
   97        6.012703
   98        6.038834
   99        6.050659
  100        6.053406
  101        6.062973
  102        6.076265
  103        6.154180
  104        6.208382
  105        6.249434
  106        6.793157
 
  0.2500000E+00  0.2500000E+00  0.0000000E+00  0.6250000E-01
    1      -14.640971
    2      -14.501876
    3      -14.407011
    4      -14.341955
    5      -14.292277
    6      -14.290720
    7      -14.251483
    8      -14.243955
    9      -14.241303
   10      -14.235763
   11      -14.185235
   12      -14.146061
   13      -14.139014
   14      -14.132069
   15      -14.131965
   16      -14.106778
   17       -7.478088
   18       -7.375435
   19       -7.353570
   20       -7.305322
   21       -7.295919
   22       -7.254432
   23       -7.246257
   24       -7.245052
   25       -7.200499
   26       -7.082540
   27       -7.058569
   28       -7.015473
   29       -7.004379
   30       -6.939513
   31       -6.877592
   32       -6.770964
   33       -6.767958
   34       -6.705815
   35       -6.684811
   36       -6.678875
   37       -6.673499
   38       -6.646217
   39       -6.569853
   40       -6.544301
   41       -6.525107
   42       -6.501767
   43       -6.501242
   44       -6.483744
   45       -6.428089
   46       -6.414192
   47       -6.392984
   48       -6.381787
   49       -6.373324
   50       -6.357049
   51       -6.350439
   52       -6.326786
   53       -6.325756
   54       -6.314688
   55       -6.304686
   56       -6.304583
   57       -6.270445
   58       -6.248395
   59       -6.234123
   60       -6.227907
   61       -6.188078
   62       -6.177467
   63       -6.131948
   64       -6.100484
   65        1.984996
   66        2.666555
   67        3.270036
   68        3.325187
   69        3.409838
   70        3.433221
   71        3.656009
   72        3.714047
   73        3.824752
   74        3.943419
   75        3.963876
   76        4.027130
   77        4.196403
   78        4.224955
   79        4.411419
   80        4.493071
   81        4.582967
   82        4.625039
   83        4.682929
   84        4.696327
   85        4.958711
   86        4.972053
   87        5.156567
   88        5.259263
   89        5.312151
   90        5.364113
   91        5.387890
   92        5.389750
   93        5.519794
   94        5.761218
   95        5.783984
   96        5.870173
   97        5.892299
   98        5.972973
   99        5.984348
  100        6.032086
  101        6.106595
  102        6.135168
  103        6.229785
  104        6.230233
  105        6.265638
  106        6.750055
 
  0.5000000E+00  0.2500000E+00  0.0000000E+00  0.3125000E-01
    1      -14.585996
    2      -14.585994
    3      -14.380421
    4      -14.380420
    5      -14.274686
    6      -14.274684
    7      -14.238602
    8      -14.238601
    9      -14.208285
   10      -14.208283
   11      -14.197077
   12      -14.197076
   13      -14.135200
   14      -14.135198
   15      -14.123985
   16      -14.123984
   17       -7.387521
   18       -7.387521
   19       -7.339366
   20       -7.339366
   21       -7.306052
   22       -7.306051
   23       -7.206543
   24       -7.206542
   25       -7.129347
   26       -7.129346
   27       -7.122772
   28       -7.122771
   29       -7.042621
   30       -7.042619
   31       -6.794796
   32       -6.794796
   33       -6.707955
   34       -6.707955
   35       -6.626648
   36       -6.626647
   37       -6.588780
   38       -6.588780
   39       -6.529027
   40       -6.529026
   41       -6.506555
   42       -6.506554
   43       -6.496659
   44       -6.496658
   45       -6.484855
   46       -6.484854
   47       -6.420419
   48       -6.420419
   49       -6.384792
   50       -6.384792
   51       -6.335091
   52       -6.335090
   53       -6.331336
   54       -6.331335
   55       -6.321662
   56       -6.321661
   57       -6.228541
   58       -6.228540
   59       -6.214920
   60       -6.214919
   61       -6.182218
   62       -6.182217
   63       -6.131589
   64       -6.131589
   65        2.260036
   66        2.260037
   67        3.281351
   68        3.281352
   69        3.593953
   70        3.593955
   71        3.601051
   72        3.601051
   73        3.841375
   74        3.841376
   75        4.108782
   76        4.108783
   77        4.268076
   78        4.268076
   79        4.375725
   80        4.375726
   81        4.567045
   82        4.567046
   83        4.634462
   84        4.634463
   85        5.049312
   86        5.049313
   87        5.175692
   88        5.175692
   89        5.269842
   90        5.269843
   91        5.305821
   92        5.305822
   93        5.704465
   94        5.704466
   95        5.837076
   96        5.837076
   97        5.968025
   98        5.968025
   99        6.002318
  100        6.002319
  101        6.068240
  102        6.068242
  103        6.318750
  104        6.318750
  105        6.486330
  106        6.486330
 
  0.0000000E+00  0.5000000E+00  0.0000000E+00  0.1562500E-01
    1      -14.556322
    2      -14.556322
    3      -14.361083
    4      -14.361083
    5      -14.331462
    6      -14.331462
    7      -14.261337
    8      -14.261337
    9      -14.198056
   10      -14.198056
   11      -14.189732
   12      -14.189732
   13      -14.125962
   14      -14.125962
   15      -14.125307
   16      -14.125307
   17       -7.425324
   18       -7.425324
   19       -7.238363
   20       -7.238363
   21       -7.194812
   22       -7.194812
   23       -7.174139
   24       -7.174139
   25       -7.108503
   26       -7.108503
   27       -7.107709
   28       -7.107709
   29       -7.009857
   30       -7.009857
   31       -6.853255
   32       -6.853255
   33       -6.726635
   34       -6.726635
   35       -6.715136
   36       -6.715136
   37       -6.621338
   38       -6.621338
   39       -6.587045
   40       -6.587045
   41       -6.515419
   42       -6.515419
   43       -6.513614
   44       -6.513614
   45       -6.473397
   46       -6.473397
   47       -6.460873
   48       -6.460873
   49       -6.336766
   50       -6.336766
   51       -6.329862
   52       -6.329862
   53       -6.309012
   54       -6.309012
   55       -6.291539
   56       -6.291539
   57       -6.272511
   58       -6.272511
   59       -6.250747
   60       -6.250747
   61       -6.211068
   62       -6.211068
   63       -6.127147
   64       -6.127147
   65        2.476780
   66        2.476780
   67        3.311745
   68        3.311745
   69        3.509531
   70        3.509531
   71        3.693817
   72        3.693817
   73        3.871334
   74        3.871334
   75        4.197076
   76        4.197076
   77        4.314294
   78        4.314294
   79        4.354091
   80        4.354091
   81        4.386168
   82        4.386168
   83        4.856298
   84        4.856298
   85        5.010623
   86        5.010623
   87        5.078416
   88        5.078416
   89        5.185342
   90        5.185342
   91        5.297664
   92        5.297664
   93        5.576267
   94        5.576267
   95        5.734066
   96        5.734066
   97        5.834932
   98        5.834932
   99        5.877530
  100        5.877530
  101        6.225829
  102        6.225829
  103        6.303938
  104        6.303938
  105        6.380737
  106        6.381440
 
  0.2500000E+00  0.5000000E+00  0.0000000E+00  0.3125000E-01
    1      -14.540781
    2      -14.540781
    3      -14.429036
    4      -14.429036
    5      -14.262333
    6      -14.262333
    7      -14.255835
    8      -14.255835
    9      -14.219987
   10      -14.219987
   11      -14.167751
   12      -14.167751
   13      -14.142435
   14      -14.142435
   15      -14.131167
   16      -14.131167
   17       -7.403431
   18       -7.403431
   19       -7.276875
   20       -7.276875
   21       -7.219396
   22       -7.219396
   23       -7.206472
   24       -7.206472
   25       -7.131436
   26       -7.131436
   27       -7.026148
   28       -7.026148
   29       -6.978248
   30       -6.978248
   31       -6.792324
   32       -6.792324
   33       -6.733834
   34       -6.733834
   35       -6.733302
   36       -6.733302
   37       -6.648753
   38       -6.648753
   39       -6.593818
   40       -6.593818
   41       -6.533308
   42       -6.533308
   43       -6.475441
   44       -6.475441
   45       -6.474859
   46       -6.474859
   47       -6.462279
   48       -6.462279
   49       -6.393223
   50       -6.393223
   51       -6.363932
   52       -6.363932
   53       -6.339708
   54       -6.339708
   55       -6.330019
   56       -6.330019
   57       -6.245638
   58       -6.245638
   59       -6.195228
   60       -6.195228
   61       -6.168040
   62       -6.168040
   63       -6.128051
   64       -6.128051
   65        2.542256
   66        2.542256
   67        3.028081
   68        3.028081
   69        3.713758
   70        3.713758
   71        3.738228
   72        3.738228
   73        3.910681
   74        3.910681
   75        4.186264
   76        4.186264
   77        4.323325
   78        4.323325
   79        4.358574
   80        4.358574
   81        4.425643
   82        4.425643
   83        4.708931
   84        4.708931
   85        4.973776
   86        4.973776
   87        5.118485
   88        5.118485
   89        5.272306
   90        5.272306
   91        5.306400
   92        5.306400
   93        5.539447
   94        5.539447
   95        5.784424
   96        5.784424
   97        5.799124
   98        5.799124
   99        5.893711
  100        5.893711
  101        6.162861
  102        6.162861
  103        6.260316
  104        6.260316
  105        6.289921
  106        6.290402
 
  0.5000000E+00  0.5000000E+00  0.0000000E+00  0.1562500E-01
    1      -14.496242
    2      -14.496242
    3      -14.496241
    4      -14.496241
    5      -14.241720
    6      -14.241720
    7      -14.241718
    8      -14.241718
    9      -14.190787
   10      -14.190787
   11      -14.190785
   12      -14.190785
   13      -14.145901
   14      -14.145901
   15      -14.145900
   16      -14.145900
   17       -7.346007
   18       -7.346007
   19       -7.346006
   20       -7.346006
   21       -7.236641
   22       -7.236641
   23       -7.236640
   24       -7.236640
   25       -7.079176
   26       -7.079176
   27       -7.079174
   28       -7.079174
   29       -6.818804
   30       -6.818804
   31       -6.818804
   32       -6.818804
   33       -6.742654
   34       -6.742654
   35       -6.742654
   36       -6.742654
   37       -6.633235
   38       -6.633235
   39       -6.633235
   40       -6.633235
   41       -6.534922
   42       -6.534922
   43       -6.534921
   44       -6.534921
   45       -6.446529
   46       -6.446529
   47       -6.446528
   48       -6.446528
   49       -6.386689
   50       -6.386688
   51       -6.386688
   52       -6.386688
   53       -6.370011
   54       -6.370011
   55       -6.370010
   56       -6.370010
   57       -6.202389
   58       -6.202389
   59       -6.202388
   60       -6.202388
   61       -6.129517
   62       -6.129517
   63       -6.129517
   64       -6.129517
   65        2.733035
   66        2.733035
   67        2.733036
   68        2.733036
   69        3.753455
   70        3.753455
   71        3.753456
   72        3.753456
   73        4.112782
   74        4.112782
   75        4.112783
   76        4.112783
   77        4.336717
   78        4.336717
   79        4.336718
   80        4.336718
   81        4.537975
   82        4.537975
   83        4.537975
   84        4.537975
   85        5.028661
   86        5.028661
   87        5.028661
   88        5.028661
   89        5.299510
   90        5.299510
   91        5.299512
   92        5.299512
   93        5.651141
   94        5.651141
   95        5.651142
   96        5.651142
   97        5.900682
   98        5.900682
   99        5.900683
  100        5.900683
  101        6.168764
  102        6.168764
  103        6.168764
  104        6.168764
  105        6.259161
  106        6.259161
 
  0.0000000E+00  0.0000000E+00  0.2500000E+00  0.3125000E-01
    1      -14.659264
    2      -14.416501
    3      -14.404615
    4      -14.387094
    5      -14.280530
    6      -14.274811
    7      -14.272931
    8      -14.268620
    9      -14.241414
   10      -14.231972
   11      -14.207906
   12      -14.165461
   13      -14.143301
   14      -14.138902
   15      -14.103306
   16      -14.095363
   17       -7.428473
   18       -7.420013
   19       -7.362736
   20       -7.333387
   21       -7.317926
   22       -7.266736
   23       -7.198790
   24       -7.142323
   25       -7.101038
   26       -7.032636
   27       -7.008671
   28       -6.996328
   29       -6.993546
   30       -6.991314
   31       -6.891189
   32       -6.838521
   33       -6.798652
   34       -6.793919
   35       -6.698544
   36       -6.694742
   37       -6.680864
   38       -6.600476
   39       -6.529638
   40       -6.524631
   41       -6.522527
   42       -6.511938
   43       -6.505494
   44       -6.498853
   45       -6.403032
   46       -6.396818
   47       -6.392042
   48       -6.390071
   49       -6.381876
   50       -6.379985
   51       -6.335663
   52       -6.326548
   53       -6.323266
   54       -6.316447
   55       -6.312599
   56       -6.303294
   57       -6.292967
   58       -6.288010
   59       -6.249485
   60       -6.242686
   61       -6.228985
   62       -6.179405
   63       -6.149229
   64       -6.101993
   65        1.885169
   66        3.113793
   67        3.152425
   68        3.240546
   69        3.343802
   70        3.399238
   71        3.519054
   72        3.709270
   73        3.830821
   74        3.987823
   75        4.036848
   76        4.157148
   77        4.163570
   78        4.300733
   79        4.402622
   80        4.538953
   81        4.633861
   82        4.773742
   83        4.854479
   84        4.999865
   85        5.005554
   86        5.053024
   87        5.143726
   88        5.145805
   89        5.224393
   90        5.315957
   91        5.348611
   92        5.362106
   93        5.465186
   94        5.495818
   95        5.537759
   96        5.912072
   97        5.938239
   98        5.974791
   99        6.069187
  100        6.141300
  101        6.260595
  102        6.326680
  103        6.329906
  104        6.595446
  105        6.722054
  106        6.748232
 
  0.2500000E+00  0.0000000E+00  0.2500000E+00  0.6250000E-01
    1      -14.640045
    2      -14.499803
    3      -14.405460
    4      -14.328178
    5      -14.290494
    6      -14.271129
    7      -14.269728
    8      -14.242317
    9      -14.233666
   10      -14.232372
   11      -14.208824
   12      -14.156206
   13      -14.142640
   14      -14.139745
   15      -14.126444
   16      -14.105057
   17       -7.416748
   18       -7.388158
   19       -7.337107
   20       -7.308193
   21       -7.300058
   22       -7.241852
   23       -7.221684
   24       -7.206131
   25       -7.155203
   26       -7.075016
   27       -7.054063
   28       -7.047203
   29       -7.040615
   30       -6.977188
   31       -6.873965
   32       -6.813033
   33       -6.785208
   34       -6.680058
   35       -6.673832
   36       -6.670032
   37       -6.658946
   38       -6.575413
   39       -6.574835
   40       -6.557594
   41       -6.514680
   42       -6.501918
   43       -6.489936
   44       -6.468951
   45       -6.439740
   46       -6.432349
   47       -6.403474
   48       -6.391524
   49       -6.369876
   50       -6.366825
   51       -6.329735
   52       -6.328797
   53       -6.327976
   54       -6.323365
   55       -6.302837
   56       -6.290388
   57       -6.286180
   58       -6.258635
   59       -6.255015
   60       -6.251415
   61       -6.233354
   62       -6.199194
   63       -6.171985
   64       -6.108518
   65        1.981928
   66        2.666477
   67        3.237194
   68        3.312756
   69        3.427288
   70        3.527865
   71        3.574115
   72        3.829680
   73        3.889676
   74        3.901368
   75        3.922739
   76        4.166603
   77        4.249732
   78        4.288831
   79        4.443740
   80        4.498808
   81        4.677807
   82        4.701396
   83        4.723435
   84        4.926268
   85        4.953109
   86        4.999567
   87        5.114721
   88        5.137409
   89        5.155575
   90        5.284642
   91        5.443981
   92        5.452889
   93        5.461681
   94        5.551407
   95        5.721101
   96        5.827635
   97        5.853933
   98        6.068623
   99        6.095988
  100        6.125317
  101        6.146045
  102        6.331210
  103        6.397807
  104        6.468631
  105        6.611065
  106        6.711867
 
  0.5000000E+00  0.0000000E+00  0.2500000E+00  0.3125000E-01
    1      -14.584649
    2      -14.584647
    3      -14.374164
    4      -14.374162
    5      -14.272571
    6      -14.272570
    7      -14.237598
    8      -14.237595
    9      -14.214048
   10      -14.214047
   11      -14.191821
   12      -14.191819
   13      -14.141001
   14      -14.140998
   15      -14.130219
   16      -14.130218
   17       -7.369269
   18       -7.369269
   19       -7.305084
   20       -7.305082
   21       -7.255534
   22       -7.255533
   23       -7.207258
   24       -7.207258
   25       -7.202954
   26       -7.202953
   27       -7.074723
   28       -7.074722
   29       -7.059582
   30       -7.059581
   31       -6.764332
   32       -6.764331
   33       -6.734751
   34       -6.734751
   35       -6.668290
   36       -6.668290
   37       -6.612516
   38       -6.612515
   39       -6.544606
   40       -6.544606
   41       -6.488901
   42       -6.488900
   43       -6.456344
   44       -6.456344
   45       -6.453322
   46       -6.453321
   47       -6.413879
   48       -6.413879
   49       -6.382553
   50       -6.382553
   51       -6.332556
   52       -6.332554
   53       -6.318025
   54       -6.318024
   55       -6.303483
   56       -6.303482
   57       -6.274149
   58       -6.274149
   59       -6.247851
   60       -6.247849
   61       -6.218276
   62       -6.218275
   63       -6.151220
   64       -6.151220
   65        2.257123
   66        2.257124
   67        3.248903
   68        3.248904
   69        3.633767
   70        3.633770
   71        3.688644
   72        3.688644
   73        3.805830
   74        3.805831
   75        4.172403
   76        4.172404
   77        4.290918
   78        4.290919
   79        4.480442
   80        4.480443
   81        4.549684
   82        4.549685
   83        4.811057
   84        4.811058
   85        4.993047
   86        4.993048
   87        5.106327
   88        5.106328
   89        5.115612
   90        5.115612
   91        5.418391
   92        5.418392
   93        5.646882
   94        5.646882
   95        5.787548
   96        5.787548
   97        6.003533
   98        6.003534
   99        6.080190
  100        6.080190
  101        6.241365
  102        6.241366
  103        6.380284
  104        6.380285
  105        6.585302
  106        6.585303
 
  0.0000000E+00  0.2500000E+00  0.2500000E+00  0.6250000E-01
    1      -14.622521
    2      -14.392562
    3      -14.390553
    4      -14.381330
    5      -14.365315
    6      -14.289105
    7      -14.269478
    8      -14.260557
    9      -14.255677
   10      -14.217687
   11      -14.208489
   12      -14.162319
   13      -14.160434
   14      -14.118873
   15      -14.105234
   16      -14.101996
   17       -7.411679
   18       -7.329541
   19       -7.291211
   20       -7.280711
   21       -7.264866
   22       -7.225586
   23       -7.218805
   24       -7.111651
   25       -7.054687
   26       -7.052993
   27       -6.968643
   28       -6.960448
   29       -6.953287
   30       -6.918065
   31       -6.917235
   32       -6.895429
   33       -6.855874
   34       -6.836437
   35       -6.812820
   36       -6.711283
   37       -6.689995
   38       -6.599107
   39       -6.564777
   40       -6.547114
   41       -6.543654
   42       -6.492399
   43       -6.485427
   44       -6.467746
   45       -6.464720