 running on    8 total cores
 distrk:  each k-point on    8 cores,    1 groups
 distr:  one band on    4 cores,    2 groups
 using from now: INCAR     
 vasp.5.3.5 31Mar14 (build Nov 02 2014 15:17:37) complex                        
  
 POSCAR found type information on POSCAR  H  C 
 POSCAR found :  2 types and      20 ions
 scaLAPACK will be used
 WARNING: type information on POSCAR and POTCAR are incompatible
 POTCAR overwrites the type information in POSCAR
 typ   1 type information:  H  C 
 WARNING: type information on POSCAR and POTCAR are incompatible
 POTCAR overwrites the type information in POSCAR
 typ   2 type information:  C  H 

 ----------------------------------------------------------------------------- 
|                                                                             |
|  ADVICE TO THIS USER RUNNING 'VASP/VAMP'   (HEAR YOUR MASTER'S VOICE ...):  |
|                                                                             |
|      You have a (more or less) 'large supercell' and for larger cells       |
|      it might be more efficient to use real space projection operators      |
|      So try LREAL= Auto  in the INCAR   file.                               |
|      Mind: If you want to do a very accurate calculations keep the          |
|      reciprocal projection scheme          (i.e. LREAL=.FALSE.)             |
|                                                                             |
 ----------------------------------------------------------------------------- 

 LDA part: xc-table for Pade appr. of Perdew
 POSCAR, INCAR and KPOINTS ok, starting setup
 WARNING: small aliasing (wrap around) errors must be expected
 FFT: planning ...
 WAVECAR not read
 WARNING: random wavefunctions but no delay for mixing, default for NELMDL
 entering main loop
       N       E                     dE             d eps       ncg     rms          rms(c)
DAV:   1     0.328952473750E+03    0.32895E+03   -0.33491E+04  3312   0.144E+03
DAV:   2    -0.431644152706E+02   -0.37212E+03   -0.36310E+03  4246   0.264E+02
DAV:   3    -0.709875648888E+02   -0.27823E+02   -0.26835E+02  3800   0.689E+01
DAV:   4    -0.722674705279E+02   -0.12799E+01   -0.12661E+01  4848   0.139E+01
DAV:   5    -0.722981364882E+02   -0.30666E-01   -0.30624E-01  4368   0.233E+00    0.939E+00
DAV:   6    -0.701045227040E+02    0.21936E+01   -0.50474E+00  3952   0.797E+00    0.553E+00
DAV:   7    -0.707084232496E+02   -0.60390E+00   -0.57044E+00  4592   0.713E+00    0.890E+00
DAV:   8    -0.696673450434E+02    0.10411E+01   -0.80982E+00  4584   0.522E+00    0.333E+00
DAV:   9    -0.696262428521E+02    0.41102E-01   -0.18415E+00  4224   0.358E+00    0.300E+00
DAV:  10    -0.694942797537E+02    0.13196E+00   -0.51364E-01  4416   0.219E+00    0.831E-01
DAV:  11    -0.694956849362E+02   -0.14052E-02   -0.63334E-02  4032   0.923E-01    0.475E-01
DAV:  12    -0.695013444989E+02   -0.56596E-02   -0.34913E-02  4248   0.542E-01    0.647E-01
DAV:  13    -0.694970241486E+02    0.43204E-02   -0.25030E-02  4240   0.401E-01    0.222E-01
DAV:  14    -0.694972418137E+02   -0.21767E-03   -0.25679E-03  4208   0.177E-01    0.929E-02
DAV:  15    -0.694975041558E+02   -0.26234E-03   -0.79258E-04  4336   0.106E-01    0.503E-02
DAV:  16    -0.694975899542E+02   -0.85798E-04   -0.22563E-04  4336   0.551E-02    0.171E-02
DAV:  17    -0.694976107711E+02   -0.20817E-04   -0.43302E-05  4400   0.274E-02    0.108E-02
DAV:  18    -0.694976118598E+02   -0.10886E-05   -0.12908E-05  3928   0.149E-02    0.582E-03
DAV:  19    -0.694976129301E+02   -0.10703E-05   -0.40089E-06  3072   0.859E-03    0.272E-03
DAV:  20    -0.694976167098E+02   -0.37797E-05   -0.82921E-07  2304   0.424E-03    0.133E-03
DAV:  21    -0.694976178705E+02   -0.11607E-05   -0.22677E-07  2304   0.225E-03    0.538E-04
DAV:  22    -0.694976181549E+02   -0.28445E-06   -0.56856E-08  2304   0.106E-03
   1 F= -.70830555E+02 E0= -.70830555E+02  d E =-.708306E+02
 curvature:   0.00 expect dE= 0.000E+00 dE for cont linesearch  0.000E+00
 trial: gam= 0.00000 g(F)=  0.212E+02 g(S)=  0.000E+00 ort = 0.000E+00 (trialstep = 0.100E+01)
 search vector abs. value=  0.212E+02
 bond charge predicted
       N       E                     dE             d eps       ncg     rms          rms(c)
DAV:   1    -0.674557001447E+02    0.20419E+01   -0.18228E+03  3312   0.202E+02    0.973E+00
DAV:   2    -0.767932410505E+02   -0.93375E+01   -0.11615E+02  3882   0.445E+01    0.401E+00
DAV:   3    -0.768264341808E+02   -0.33193E-01   -0.51608E+00  5330   0.858E+00    0.253E+00
DAV:   4    -0.767916113646E+02    0.34823E-01   -0.71902E-01  4984   0.314E+00    0.176E+00
DAV:   5    -0.767681680597E+02    0.23443E-01   -0.31243E-01  4912   0.196E+00    0.901E-01
DAV:   6    -0.767680615152E+02    0.10654E-03   -0.11650E-01  4920   0.112E+00    0.538E-01
DAV:   7    -0.767668353457E+02    0.12262E-02   -0.29486E-02  5060   0.579E-01    0.301E-01
DAV:   8    -0.767665517091E+02    0.28364E-03   -0.86407E-03  5280   0.330E-01    0.151E-01
DAV:   9    -0.767666602150E+02   -0.10851E-03   -0.28853E-03  4808   0.199E-01    0.552E-02
DAV:  10    -0.767666579268E+02    0.22883E-05   -0.53213E-04  4944   0.905E-02    0.335E-02
DAV:  11    -0.767666558364E+02    0.20904E-05   -0.12486E-04  5128   0.414E-02    0.209E-02
DAV:  12    -0.767666919993E+02   -0.36163E-04   -0.81534E-05  4200   0.338E-02    0.128E-02
DAV:  13    -0.767666904257E+02    0.15736E-05   -0.23924E-05  4016   0.201E-02    0.546E-03
DAV:  14    -0.767666879617E+02    0.24640E-05   -0.91717E-06  4184   0.104E-02    0.213E-03
DAV:  15    -0.767666879856E+02   -0.23952E-07   -0.12340E-06  2304   0.502E-03
   2 F= -.79092873E+02 E0= -.79092873E+02  d E =-.826232E+01
 trial-energy change:   -8.262318  1 .order  -11.925365  -21.226983   -2.623747
 step:   1.1410(harm=  1.1410)  dis= 0.28259  next Energy=   -82.940943 (dE=-0.121E+02)
 bond charge predicted
       N       E                     dE             d eps       ncg     rms          rms(c)
DAV:   1    -0.766413124883E+02    0.12538E+00   -0.37823E+01  3312   0.293E+01    0.126E+00
DAV:   2    -0.767470163546E+02   -0.10570E+00   -0.13389E+00  4896   0.420E+00    0.598E-01
DAV:   3    -0.767462638327E+02    0.75252E-03   -0.80125E-02  5864   0.101E+00    0.402E-01
DAV:   4    -0.767446359081E+02    0.16279E-02   -0.18402E-02  5360   0.436E-01    0.216E-01
DAV:   5    -0.767442795274E+02    0.35638E-03   -0.73964E-03  5264   0.272E-01    0.134E-01
DAV:   6    -0.767441239127E+02    0.15561E-03   -0.21382E-03  5024   0.159E-01    0.444E-02
DAV:   7    -0.767440931652E+02    0.30748E-04   -0.29116E-04  5288   0.621E-02    0.278E-02
DAV:   8    -0.767441103546E+02   -0.17189E-04   -0.76631E-05  4504   0.340E-02    0.107E-02
DAV:   9    -0.767441148502E+02   -0.44956E-05   -0.19283E-05  4808   0.168E-02    0.491E-03
DAV:  10    -0.767441164521E+02   -0.16019E-05   -0.30515E-06  2368   0.759E-03    0.302E-03
DAV:  11    -0.767441178301E+02   -0.13780E-05   -0.11043E-06  2304   0.442E-03    0.165E-03
DAV:  12    -0.767441200530E+02   -0.22229E-05   -0.70433E-07  2304   0.343E-03    0.606E-04
DAV:  13    -0.767441196713E+02    0.38171E-06   -0.28443E-07  2304   0.216E-03
   3 F= -.79407494E+02 E0= -.79407494E+02  d E =-.857694E+01
 curvature:  -0.57 expect dE=-0.381E+00 dE for cont linesearch -0.651E-01
 ZBRENT: increasing intervall
 opt :   1.4231  next Energy=   -79.545341 (dE=-0.871E+01)
 bond charge predicted
       N       E                     dE             d eps       ncg     rms          rms(c)
DAV:   1    -0.763267805426E+02    0.41734E+00   -0.14592E+02  3384   0.576E+01    0.261E+00
DAV:   2    -0.767794920540E+02   -0.45271E+00   -0.58090E+00  4968   0.870E+00    0.126E+00
DAV:   3    -0.767796180701E+02   -0.12602E-03   -0.40480E-01  5936   0.216E+00    0.872E-01
DAV:   4    -0.767702974120E+02    0.93207E-02   -0.82140E-02  5488   0.944E-01    0.452E-01
DAV:   5    -0.767695277948E+02    0.76962E-03   -0.28365E-02  5320   0.544E-01    0.272E-01
DAV:   6    -0.767688735986E+02    0.65420E-03   -0.83717E-03  5200   0.306E-01    0.911E-02
DAV:   7    -0.767687797657E+02    0.93833E-04   -0.12709E-03  5328   0.128E-01    0.557E-02
DAV:   8    -0.767688120900E+02   -0.32324E-04   -0.28196E-04  4994   0.639E-02    0.290E-02
DAV:   9    -0.767687897575E+02    0.22333E-04   -0.11344E-04  4944   0.389E-02    0.106E-02
DAV:  10    -0.767687906972E+02   -0.93970E-06   -0.22572E-05  5136   0.183E-02    0.653E-03
DAV:  11    -0.767687948071E+02   -0.41099E-05   -0.21680E-06  2352   0.690E-03    0.405E-03
DAV:  12    -0.767688003840E+02   -0.55769E-05   -0.42153E-06  3328   0.717E-03    0.187E-03
DAV:  13    -0.767687984008E+02    0.19832E-05   -0.84272E-07  2328   0.411E-03    0.143E-03
DAV:  14    -0.767687970951E+02    0.13057E-05   -0.27417E-07  2304   0.225E-03    0.808E-04
DAV:  15    -0.767687968423E+02    0.25286E-06   -0.12201E-07  2304   0.153E-03
   4 F= -.79675927E+02 E0= -.79675927E+02  d E =-.884537E+01
 curvature:  -1.21 expect dE=-0.115E+01 dE for cont linesearch -0.756E-01
 ZBRENT: increasing intervall
 opt :   1.9873  next Energy=   -80.098003 (dE=-0.927E+01)
 bond charge predicted
       N       E                     dE             d eps       ncg     rms          rms(c)
DAV:   1    -0.761877511225E+02    0.58105E+00   -0.54113E+02  3376   0.111E+02    0.540E+00
DAV:   2    -0.784767716928E+02   -0.22890E+01   -0.28822E+01  4848   0.204E+01    0.319E+00
DAV:   3    -0.784104179646E+02    0.66354E-01   -0.23893E+00  5528   0.518E+00    0.201E+00
DAV:   4    -0.783539452796E+02    0.56473E-01   -0.33216E-01  5336   0.208E+00    0.104E+00
DAV:   5    -0.783505054425E+02    0.34398E-02   -0.13061E-01  4976   0.123E+00    0.665E-01
DAV:   6    -0.783440463342E+02    0.64591E-02   -0.53326E-02  5024   0.740E-01    0.245E-01
DAV:   7    -0.783436787146E+02    0.36762E-03   -0.10049E-02  5296   0.324E-01    0.146E-01
DAV:   8    -0.783434256202E+02    0.25309E-03   -0.19351E-03  5264   0.149E-01    0.910E-02
DAV:   9    -0.783433985827E+02    0.27038E-04   -0.79279E-04  5048   0.975E-02    0.454E-02
DAV:  10    -0.783433624323E+02    0.36150E-04   -0.25720E-04  4880   0.591E-02    0.186E-02
DAV:  11    -0.783433776707E+02   -0.15238E-04   -0.52779E-05  5056   0.271E-02    0.942E-03
DAV:  12    -0.783433795195E+02   -0.18488E-05   -0.13056E-05  4896   0.133E-02    0.518E-03
DAV:  13    -0.783433786392E+02    0.88032E-06   -0.40057E-06  3216   0.799E-03
   5 F= -.81432066E+02 E0= -.81432066E+02  d E =-.106015E+02
 curvature:  -6.75 expect dE=-0.257E+02 dE for cont linesearch -0.942E+01
 ZBRENT: increasing intervall
 opt :   3.1156  next Energy=   -92.417585 (dE=-0.216E+02)
 bond charge predicted
       N       E                     dE             d eps       ncg     rms          rms(c)
DAV:   1    -0.756474552633E+02    0.26959E+01   -0.18324E+03  3592   0.198E+02    0.948E+00
DAV:   2    -0.877141469253E+02   -0.12067E+02   -0.14029E+02  4200   0.507E+01    0.643E+00
DAV:   3    -0.875753186373E+02    0.13883E+00   -0.83106E+00  5272   0.106E+01    0.445E+00
DAV:   4    -0.872915919768E+02    0.28373E+00   -0.10321E+00  5024   0.356E+00    0.299E+00
DAV:   5    -0.871103636116E+02    0.18123E+00   -0.93296E-01  4288   0.317E+00    0.135E+00
DAV:   6    -0.870808760450E+02    0.29488E-01   -0.22735E-01  4968   0.177E+00    0.576E-01
DAV:   7    -0.870787205335E+02    0.21555E-02   -0.46010E-02  5016   0.774E-01    0.335E-01
DAV:   8    -0.870775279120E+02    0.11926E-02   -0.10612E-02  5000   0.349E-01    0.184E-01
DAV:   9    -0.870774398843E+02    0.88028E-04   -0.42360E-03  4688   0.229E-01    0.973E-02
DAV:  10    -0.870774036534E+02    0.36231E-04   -0.10915E-03  4872   0.125E-01    0.431E-02
DAV:  11    -0.870773963012E+02    0.73522E-05   -0.22033E-04  4920   0.579E-02    0.214E-02
DAV:  12    -0.870774173787E+02   -0.21077E-04   -0.67641E-05  5128   0.309E-02    0.140E-02
DAV:  13    -0.870773994218E+02    0.17957E-04   -0.19182E-05  4792   0.165E-02    0.674E-03
DAV:  14    -0.870774096340E+02   -0.10212E-04   -0.46897E-06  3360   0.846E-03    0.308E-03
DAV:  15    -0.870774092771E+02    0.35689E-06   -0.12756E-06  2304   0.491E-03
   6 F= -.90203409E+02 E0= -.90203409E+02  d E =-.193729E+02
 curvature:  -7.87 expect dE=-0.716E+02 dE for cont linesearch -0.220E+02
 ZBRENT: increasing intervall
 opt :   5.3722  next Energy=  -112.672264 (dE=-0.418E+02)
 bond charge predicted
       N       E                     dE             d eps       ncg     rms          rms(c)
DAV:   1    -0.111860011987E+02    0.75891E+02   -0.47547E+03  3352   0.297E+02    0.154E+01
DAV:   2    -0.757049776779E+02   -0.64519E+02   -0.69646E+02  3958   0.111E+02    0.177E+01
DAV:   3    -0.729464928211E+02    0.27585E+01   -0.32139E+01  4872   0.237E+01    0.142E+01
DAV:   4    -0.701941225966E+02    0.27524E+01   -0.81919E+00  4610   0.110E+01    0.102E+01
DAV:   5    -0.684359000036E+02    0.17582E+01   -0.92551E+00  4968   0.102E+01    0.517E+00
DAV:   6    -0.680339962482E+02    0.40190E+00   -0.29497E+00  4552   0.680E+00    0.238E+00
DAV:   7    -0.679993626721E+02    0.34634E-01   -0.80783E-01  4872   0.334E+00    0.158E+00
DAV:   8    -0.679816676990E+02    0.17695E-01   -0.24175E-01  4648   0.166E+00    0.883E-01
DAV:   9    -0.679789842923E+02    0.26834E-02   -0.70407E-02  4272   0.119E+00    0.372E-01
DAV:  10    -0.679787675884E+02    0.21670E-03   -0.13999E-02  4496   0.468E-01    0.210E-01
DAV:  11    -0.679789098965E+02   -0.14231E-03   -0.42295E-03  4744   0.246E-01    0.105E-01
DAV:  12    -0.679789560848E+02   -0.46188E-04   -0.10358E-03  4472   0.123E-01    0.473E-02
DAV:  13    -0.679789933665E+02   -0.37282E-04   -0.21599E-04  4848   0.565E-02    0.226E-02
DAV:  14    -0.679790152033E+02   -0.21837E-04   -0.63964E-05  4776   0.328E-02    0.125E-02
DAV:  15    -0.679790074094E+02    0.77939E-05   -0.17903E-05  4040   0.183E-02    0.709E-03
DAV:  16    -0.679790074926E+02   -0.83247E-07   -0.54245E-06  3712   0.110E-02
   7 F= -.70658274E+02 E0= -.70658274E+02  d E =0.172281E+00
 curvature:  -8.04 expect dE=-0.148E+05 dE for cont linesearch -0.546E+03
 ZBRENT: bracketing found
 ZBRENT: interpolating
 opt :   3.4962  next Energy=   -91.669062 (dE=-0.208E+02)
 bond charge predicted
       N       E                     dE             d eps       ncg     rms          rms(c)
DAV:   1    -0.629374783719E+02    0.50415E+01   -0.40893E+03  3432   0.306E+02    0.208E+01
DAV:   2    -0.906686548270E+02   -0.27731E+02   -0.42414E+02  4140   0.841E+01    0.122E+01
DAV:   3    -0.905644914289E+02    0.10416E+00   -0.36661E+01  4904   0.234E+01    0.833E+00
DAV:   4    -0.901579168633E+02    0.40657E+00   -0.69991E+00  5234   0.903E+00    0.582E+00
DAV:   5    -0.897496097684E+02    0.40831E+00   -0.16508E+00  4936   0.437E+00    0.331E+00
DAV:   6    -0.896711152830E+02    0.78494E-01   -0.88198E-01  4864   0.327E+00    0.151E+00
DAV:   7    -0.896489377204E+02    0.22178E-01   -0.27825E-01  5056   0.182E+00    0.666E-01
DAV:   8    -0.896471603373E+02    0.17774E-02   -0.47735E-02  5048   0.785E-01    0.404E-01
DAV:   9    -0.896459257897E+02    0.12345E-02   -0.12002E-02  5000   0.401E-01    0.211E-01
DAV:  10    -0.896461830409E+02   -0.25725E-03   -0.48639E-03  4680   0.262E-01    0.919E-02
DAV:  11    -0.896462130504E+02   -0.30010E-04   -0.94885E-04  4816   0.119E-01    0.477E-02
DAV:  12    -0.896461931720E+02    0.19878E-04   -0.29008E-04  4888   0.595E-02    0.262E-02
DAV:  13    -0.896461910295E+02    0.21426E-05   -0.87809E-05  4752   0.334E-02    0.142E-02
DAV:  14    -0.896462010225E+02   -0.99930E-05   -0.18770E-05  4832   0.176E-02    0.688E-03
DAV:  15    -0.896461960315E+02    0.49910E-05   -0.40129E-06  2944   0.830E-03    0.334E-03
DAV:  16    -0.896461977904E+02   -0.17589E-05   -0.18478E-06  2352   0.554E-03    0.140E-03
DAV:  17    -0.896461971578E+02    0.63263E-06   -0.55307E-07  2304   0.319E-03
   8 F= -.92685073E+02 E0= -.92685073E+02  d E =-.218545E+02
 curvature:  -0.02 expect dE=-0.154E+00 dE for cont linesearch -0.264E-01
 ZBRENT: interpolating
 opt :   4.1533  next Energy=   -94.558151 (dE=-0.237E+02)
 bond charge predicted
       N       E                     dE             d eps       ncg     rms          rms(c)
DAV:   1    -0.884231257363E+02    0.12231E+01   -0.75009E+02  3312   0.135E+02    0.521E+00
DAV:   2    -0.909912227910E+02   -0.25681E+01   -0.32003E+01  4568   0.240E+01    0.459E+00
DAV:   3    -0.907632860259E+02    0.22794E+00   -0.18616E+00  4778   0.562E+00    0.315E+00
DAV:   4    -0.906487258852E+02    0.11456E+00   -0.45570E-01  4768   0.245E+00    0.223E+00
DAV:   5    -0.905801270302E+02    0.68599E-01   -0.41307E-01  4792   0.221E+00    0.994E-01
