 running on    8 total cores
 distrk:  each k-point on    8 cores,    1 groups
 distr:  one band on    4 cores,    2 groups
 using from now: INCAR     
 vasp.5.3.5 31Mar14 (build Nov 02 2014 15:17:37) complex                        
  
 POSCAR found type information on POSCAR  H  C 
 POSCAR found :  2 types and      20 ions
 scaLAPACK will be used
 WARNING: type information on POSCAR and POTCAR are incompatible
 POTCAR overwrites the type information in POSCAR
 typ   1 type information:  H  C 
 WARNING: type information on POSCAR and POTCAR are incompatible
 POTCAR overwrites the type information in POSCAR
 typ   2 type information:  C  H 

 ----------------------------------------------------------------------------- 
|                                                                             |
|  ADVICE TO THIS USER RUNNING 'VASP/VAMP'   (HEAR YOUR MASTER'S VOICE ...):  |
|                                                                             |
|      You have a (more or less) 'large supercell' and for larger cells       |
|      it might be more efficient to use real space projection operators      |
|      So try LREAL= Auto  in the INCAR   file.                               |
|      Mind: If you want to do a very accurate calculations keep the          |
|      reciprocal projection scheme          (i.e. LREAL=.FALSE.)             |
|                                                                             |
 ----------------------------------------------------------------------------- 

 LDA part: xc-table for Pade appr. of Perdew
 POSCAR, INCAR and KPOINTS ok, starting setup
 WARNING: small aliasing (wrap around) errors must be expected
 FFT: planning ...
 WAVECAR not read
 WARNING: random wavefunctions but no delay for mixing, default for NELMDL
 entering main loop
       N       E                     dE             d eps       ncg     rms          rms(c)
DAV:   1     0.322820622423E+03    0.32282E+03   -0.33417E+04  3312   0.144E+03
DAV:   2    -0.437837890258E+02   -0.36660E+03   -0.35722E+03  4198   0.261E+02
DAV:   3    -0.718627168317E+02   -0.28079E+02   -0.27041E+02  3784   0.690E+01
DAV:   4    -0.732564456088E+02   -0.13937E+01   -0.13811E+01  4856   0.143E+01
DAV:   5    -0.732880787435E+02   -0.31633E-01   -0.31750E-01  4344   0.243E+00    0.100E+01
DAV:   6    -0.749786166912E+02   -0.16905E+01   -0.36027E+01  4240   0.134E+01    0.118E+01
DAV:   7    -0.714717840076E+02    0.35068E+01   -0.12663E+01  4508   0.900E+00    0.788E+00
DAV:   8    -0.707425454755E+02    0.72924E+00   -0.54418E+00  4048   0.559E+00    0.420E+00
DAV:   9    -0.707875795636E+02   -0.45034E-01   -0.22570E+00  4400   0.478E+00    0.449E+00
DAV:  10    -0.705166133612E+02    0.27097E+00   -0.85236E-01  4272   0.303E+00    0.223E+00
DAV:  11    -0.704584763518E+02    0.58137E-01   -0.42416E-01  4880   0.175E+00    0.802E-01
DAV:  12    -0.704566432280E+02    0.18331E-02   -0.54977E-02  4256   0.899E-01    0.495E-01
DAV:  13    -0.704569086436E+02   -0.26542E-03   -0.14034E-02  4368   0.436E-01    0.275E-01
DAV:  14    -0.704571056991E+02   -0.19706E-03   -0.89615E-03  4552   0.271E-01    0.180E-01
DAV:  15    -0.704570296880E+02    0.76011E-04   -0.27850E-03  4016   0.155E-01    0.558E-02
DAV:  16    -0.704571053591E+02   -0.75671E-04   -0.36400E-04  3824   0.721E-02    0.212E-02
DAV:  17    -0.704571220836E+02   -0.16725E-04   -0.51797E-05  3912   0.286E-02    0.105E-02
DAV:  18    -0.704571349467E+02   -0.12863E-04   -0.26540E-05  3960   0.184E-02    0.114E-02
DAV:  19    -0.704571413971E+02   -0.64504E-05   -0.11648E-05  3680   0.121E-02    0.330E-03
DAV:  20    -0.704571418486E+02   -0.45140E-06   -0.14649E-06  2304   0.512E-03
   1 F= -.71845522E+02 E0= -.71845522E+02  d E =-.718455E+02
 curvature:   0.00 expect dE= 0.000E+00 dE for cont linesearch  0.000E+00
 trial: gam= 0.00000 g(F)=  0.183E+02 g(S)=  0.000E+00 ort = 0.000E+00 (trialstep = 0.100E+01)
 search vector abs. value=  0.183E+02
 bond charge predicted
       N       E                     dE             d eps       ncg     rms          rms(c)
DAV:   1    -0.690880241164E+02    0.13691E+01   -0.15890E+03  3312   0.189E+02    0.921E+00
DAV:   2    -0.776458311192E+02   -0.85578E+01   -0.10276E+02  4528   0.416E+01    0.613E+00
DAV:   3    -0.771619598404E+02    0.48387E+00   -0.88610E+00  4970   0.987E+00    0.337E+00
DAV:   4    -0.769780359826E+02    0.18392E+00   -0.14041E+00  5104   0.420E+00    0.196E+00
DAV:   5    -0.769589154464E+02    0.19121E-01   -0.47175E-01  4802   0.235E+00    0.132E+00
DAV:   6    -0.769493707518E+02    0.95447E-02   -0.21359E-01  4848   0.155E+00    0.720E-01
DAV:   7    -0.769461829481E+02    0.31878E-02   -0.59154E-02  5136   0.830E-01    0.339E-01
DAV:   8    -0.769464606333E+02   -0.27769E-03   -0.10954E-02  5136   0.394E-01    0.230E-01
DAV:   9    -0.769464491365E+02    0.11497E-04   -0.54110E-03  4872   0.268E-01    0.961E-02
DAV:  10    -0.769463577798E+02    0.91357E-04   -0.15266E-03  5088   0.141E-01    0.467E-02
DAV:  11    -0.769463411325E+02    0.16647E-04   -0.24225E-04  4792   0.635E-02    0.239E-02
DAV:  12    -0.769463650512E+02   -0.23919E-04   -0.77192E-05  4960   0.327E-02    0.130E-02
DAV:  13    -0.769463891117E+02   -0.24061E-04   -0.22702E-05  5088   0.184E-02    0.690E-03
DAV:  14    -0.769463802514E+02    0.88602E-05   -0.51948E-06  3736   0.905E-03    0.315E-03
DAV:  15    -0.769463792823E+02    0.96916E-06   -0.15178E-06  2304   0.513E-03
   2 F= -.79193260E+02 E0= -.79193260E+02  d E =-.734774E+01
 trial-energy change:   -7.347738  1 .order  -10.436129  -18.281934   -2.590323
 step:   1.1651(harm=  1.1651)  dis= 0.26077  next Energy=   -82.495452 (dE=-0.106E+02)
 bond charge predicted
       N       E                     dE             d eps       ncg     rms          rms(c)
DAV:   1    -0.768917069713E+02    0.54673E-01   -0.44753E+01  3312   0.319E+01    0.138E+00
DAV:   2    -0.770182414393E+02   -0.12653E+00   -0.16093E+00  4888   0.461E+00    0.701E-01
DAV:   3    -0.770184820019E+02   -0.24056E-03   -0.10440E-01  5904   0.119E+00    0.483E-01
DAV:   4    -0.770141628718E+02    0.43191E-02   -0.21302E-02  4936   0.540E-01    0.246E-01
DAV:   5    -0.770142926152E+02   -0.12974E-03   -0.95027E-03  5218   0.317E-01    0.145E-01
DAV:   6    -0.770139085014E+02    0.38411E-03   -0.27733E-03  5042   0.174E-01    0.628E-02
DAV:   7    -0.770139286222E+02   -0.20121E-04   -0.50792E-04  5546   0.750E-02    0.345E-02
DAV:   8    -0.770139152995E+02    0.13323E-04   -0.87047E-05  4960   0.358E-02    0.207E-02
DAV:   9    -0.770139474793E+02   -0.32180E-04   -0.50405E-05  4576   0.269E-02    0.698E-03
DAV:  10    -0.770139408824E+02    0.65969E-05   -0.10510E-05  4008   0.130E-02    0.417E-03
DAV:  11    -0.770139397104E+02    0.11720E-05   -0.17855E-06  2304   0.591E-03    0.236E-03
DAV:  12    -0.770139396619E+02    0.48431E-07   -0.89616E-07  2304   0.388E-03
   3 F= -.79604412E+02 E0= -.79604412E+02  d E =-.775889E+01
 curvature:  -0.58 expect dE=-0.477E+00 dE for cont linesearch -0.129E+00
 ZBRENT: increasing intervall
 opt :   1.4952  next Energy=   -80.077815 (dE=-0.823E+01)
 bond charge predicted
       N       E                     dE             d eps       ncg     rms          rms(c)
DAV:   1    -0.767472990143E+02    0.26664E+00   -0.17202E+02  3376   0.625E+01    0.286E+00
DAV:   2    -0.772884418515E+02   -0.54114E+00   -0.69782E+00  4952   0.961E+00    0.137E+00
DAV:   3    -0.772872284633E+02    0.12134E-02   -0.43708E-01  5672   0.232E+00    0.902E-01
DAV:   4    -0.772783035746E+02    0.89249E-02   -0.79498E-02  5376   0.981E-01    0.476E-01
DAV:   5    -0.772779560539E+02    0.34752E-03   -0.30300E-02  5216   0.560E-01    0.305E-01
DAV:   6    -0.772768998449E+02    0.10562E-02   -0.97598E-03  5136   0.318E-01    0.946E-02
DAV:   7    -0.772767597600E+02    0.14008E-03   -0.14478E-03  5152   0.137E-01    0.572E-02
DAV:   8    -0.772767801909E+02   -0.20431E-04   -0.33795E-04  5248   0.658E-02    0.340E-02
DAV:   9    -0.772767928824E+02   -0.12692E-04   -0.13079E-04  4976   0.399E-02    0.109E-02
DAV:  10    -0.772767804388E+02    0.12444E-04   -0.25115E-05  5112   0.189E-02    0.667E-03
DAV:  11    -0.772767882985E+02   -0.78597E-05   -0.26661E-06  2368   0.744E-03    0.397E-03
DAV:  12    -0.772767881288E+02    0.16967E-06   -0.38113E-06  3208   0.689E-03
   4 F= -.80147377E+02 E0= -.80147377E+02  d E =-.830185E+01
 curvature:  -2.14 expect dE=-0.286E+01 dE for cont linesearch -0.461E+00
 ZBRENT: increasing intervall
 opt :   2.1555  next Energy=   -81.440012 (dE=-0.959E+01)
 bond charge predicted
       N       E                     dE             d eps       ncg     rms          rms(c)
DAV:   1    -0.772169592175E+02    0.59829E-01   -0.63522E+02  3360   0.119E+02    0.600E+00
DAV:   2    -0.799416754033E+02   -0.27247E+01   -0.35095E+01  4688   0.232E+01    0.338E+00
DAV:   3    -0.798694357211E+02    0.72240E-01   -0.28583E+00  5480   0.595E+00    0.207E+00
DAV:   4    -0.798124756163E+02    0.56960E-01   -0.35584E-01  5248   0.222E+00    0.114E+00
DAV:   5    -0.798023362150E+02    0.10139E-01   -0.14785E-01  4640   0.138E+00    0.523E-01
DAV:   6    -0.797987027418E+02    0.36335E-02   -0.38208E-02  4952   0.701E-01    0.192E-01
DAV:   7    -0.797986015787E+02    0.10116E-03   -0.58800E-03  5120   0.276E-01    0.130E-01
DAV:   8    -0.797984728354E+02    0.12874E-03   -0.16275E-03  5448   0.138E-01    0.791E-02
DAV:   9    -0.797984432252E+02    0.29610E-04   -0.73145E-04  5056   0.861E-02    0.362E-02
DAV:  10    -0.797984352403E+02    0.79849E-05   -0.16795E-04  5080   0.440E-02    0.171E-02
DAV:  11    -0.797984393895E+02   -0.41492E-05   -0.42730E-05  5208   0.220E-02    0.941E-03
DAV:  12    -0.797984325252E+02    0.68642E-05   -0.13608E-05  4744   0.135E-02    0.490E-03
DAV:  13    -0.797984355045E+02   -0.29792E-05   -0.33124E-06  2776   0.744E-03    0.277E-03
DAV:  14    -0.797984354266E+02    0.77845E-07   -0.93782E-07  2304   0.398E-03
   5 F= -.82849829E+02 E0= -.82849829E+02  d E =-.110043E+02
 curvature:  -6.00 expect dE=-0.341E+02 dE for cont linesearch -0.137E+02
 ZBRENT: increasing intervall
 opt :   3.4762  next Energy=   -97.304641 (dE=-0.255E+02)
 bond charge predicted
       N       E                     dE             d eps       ncg     rms          rms(c)
DAV:   1    -0.742092618981E+02    0.55892E+01   -0.21322E+03  3592   0.212E+02    0.102E+01
DAV:   2    -0.896585271187E+02   -0.15449E+02   -0.17994E+02  4168   0.585E+01    0.726E+00
DAV:   3    -0.894189955922E+02    0.23953E+00   -0.10098E+01  5264   0.117E+01    0.490E+00
DAV:   4    -0.891098108847E+02    0.30918E+00   -0.15744E+00  5072   0.399E+00    0.371E+00
DAV:   5    -0.888803683445E+02    0.22944E+00   -0.15055E+00  4824   0.368E+00    0.211E+00
DAV:   6    -0.888014466485E+02    0.78922E-01   -0.49408E-01  4874   0.232E+00    0.788E-01
DAV:   7    -0.887997038916E+02    0.17428E-02   -0.96133E-02  4800   0.116E+00    0.461E-01
DAV:   8    -0.887958671256E+02    0.38368E-02   -0.19964E-02  4552   0.513E-01    0.235E-01
DAV:   9    -0.887956736797E+02    0.19345E-03   -0.83064E-03  4736   0.329E-01    0.144E-01
DAV:  10    -0.887956911170E+02   -0.17437E-04   -0.21792E-03  4808   0.171E-01    0.666E-02
DAV:  11    -0.887956681440E+02    0.22973E-04   -0.53047E-04  4936   0.830E-02    0.335E-02
DAV:  12    -0.887956663978E+02    0.17462E-05   -0.13940E-04  4768   0.456E-02    0.208E-02
DAV:  13    -0.887956927137E+02   -0.26316E-04   -0.43305E-05  5048   0.237E-02    0.107E-02
DAV:  14    -0.887956827795E+02    0.99342E-05   -0.12368E-05  4488   0.134E-02    0.536E-03
DAV:  15    -0.887956835925E+02   -0.81300E-06   -0.35958E-06  3016   0.774E-03
   6 F= -.91836871E+02 E0= -.91836871E+02  d E =-.199913E+02
 curvature:  -6.32 expect dE=-0.972E+02 dE for cont linesearch -0.137E+01
 trial: gam= 0.73150 g(F)=  0.154E+02 g(S)=  0.000E+00 ort = 0.199E+01 (trialstep = 0.974E+00)
 search vector abs. value=  0.281E+02
 bond charge predicted
       N       E                     dE             d eps       ncg     rms          rms(c)
DAV:   1    -0.823656546794E+02    0.64300E+01   -0.22722E+03  3520   0.222E+02    0.129E+01
DAV:   2    -0.927784810211E+02   -0.10413E+02   -0.17279E+02  4520   0.591E+01    0.116E+01
DAV:   3    -0.915677813677E+02    0.12107E+01   -0.23332E+01  5056   0.165E+01    0.734E+00
DAV:   4    -0.906765167500E+02    0.89126E+00   -0.32917E+00  4464   0.685E+00    0.428E+00
DAV:   5    -0.904810981877E+02    0.19542E+00   -0.16568E+00  4592   0.498E+00    0.249E+00
DAV:   6    -0.903972179865E+02    0.83880E-01   -0.77533E-01  5082   0.272E+00    0.131E+00
DAV:   7    -0.903840910266E+02    0.13127E-01   -0.20323E-01  4896   0.156E+00    0.642E-01
DAV:   8    -0.903779700161E+02    0.61210E-02   -0.55994E-02  4896   0.812E-01    0.333E-01
DAV:   9    -0.903765655623E+02    0.14045E-02   -0.14883E-02  4624   0.455E-01    0.205E-01
DAV:  10    -0.903768164472E+02   -0.25088E-03   -0.42416E-03  4872   0.226E-01    0.106E-01
DAV:  11    -0.903768363058E+02   -0.19859E-04   -0.96162E-04  4896   0.116E-01    0.534E-02
DAV:  12    -0.903767005844E+02    0.13572E-03   -0.31020E-04  4912   0.626E-02    0.251E-02
DAV:  13    -0.903767629663E+02   -0.62382E-04   -0.70214E-05  4640   0.320E-02    0.151E-02
DAV:  14    -0.903767432287E+02    0.19738E-04   -0.22175E-05  4600   0.167E-02    0.740E-03
DAV:  15    -0.903767516921E+02   -0.84633E-05   -0.73826E-06  4216   0.105E-02    0.391E-03
DAV:  16    -0.903767511890E+02    0.50312E-06   -0.14375E-06  2286   0.536E-03
   7 F= -.93121636E+02 E0= -.93121636E+02  d E =-.128476E+01
 trial-energy change:   -1.284765  1 .order    3.528641  -16.387293   23.444575
 step:   0.5719(harm=  0.4007)  dis= 0.19011  next Energy=   -97.622312 (dE=-0.579E+01)
 bond charge predicted
       N       E                     dE             d eps       ncg     rms          rms(c)
DAV:   1    -0.944778192751E+02   -0.41011E+01   -0.47820E+02  3312   0.111E+02    0.808E+00
DAV:   2    -0.956592067653E+02   -0.11814E+01   -0.32605E+01  5000   0.219E+01    0.746E+00
DAV:   3    -0.945527119373E+02    0.11065E+01   -0.93126E+00  4952   0.926E+00    0.382E+00
DAV:   4    -0.943710724764E+02    0.18164E+00   -0.15958E+00  5088   0.411E+00    0.227E+00
DAV:   5    -0.943340293248E+02    0.37043E-01   -0.46235E-01  4752   0.229E+00    0.145E+00
DAV:   6    -0.943069230454E+02    0.27106E-01   -0.20245E-01  4954   0.142E+00    0.629E-01
DAV:   7    -0.943041020852E+02    0.28210E-02   -0.44747E-02  4856   0.802E-01    0.270E-01
DAV:   8    -0.943035394423E+02    0.56264E-03   -0.79060E-03  4784   0.361E-01    0.137E-01
DAV:   9    -0.943035788341E+02   -0.39392E-04   -0.18075E-03  4776   0.160E-01    0.791E-02
DAV:  10    -0.943035704255E+02    0.84086E-05   -0.63186E-04  5000   0.809E-02    0.418E-02
DAV:  11    -0.943035789325E+02   -0.85070E-05   -0.17452E-04  5136   0.488E-02    0.158E-02
DAV:  12    -0.943035774080E+02    0.15245E-05   -0.34446E-05  4752   0.240E-02    0.852E-03
DAV:  13    -0.943035754652E+02    0.19428E-05   -0.69189E-06  3984   0.110E-02    0.444E-03
DAV:  14    -0.943035753394E+02    0.12583E-06   -0.19306E-06  2304   0.633E-03
   8 F= -.97183751E+02 E0= -.97183751E+02  d E =-.534688E+01
 curvature:  -0.30 expect dE=-0.397E+01 dE for cont linesearch -0.617E-02
 trial: gam= 0.87014 g(F)=  0.130E+02 g(S)=  0.000E+00 ort = 0.754E+00 (trialstep = 0.704E+00)
 search vector abs. value=  0.356E+02
 bond charge predicted
       N       E                     dE             d eps       ncg     rms          rms(c)
DAV:   1    -0.845107413691E+02    0.97928E+01   -0.17114E+03  3360   0.191E+02    0.141E+01
DAV:   2    -0.859839596708E+02   -0.14732E+01   -0.11186E+02  4306   0.513E+01    0.107E+01
DAV:   3    -0.847819350047E+02    0.12020E+01   -0.18034E+01  4408   0.167E+01    0.611E+00
DAV:   4    -0.842154882165E+02    0.56645E+00   -0.39842E+00  4834   0.703E+00    0.369E+00
DAV:   5    -0.840392375684E+02    0.17625E+00   -0.14050E+00  4620   0.390E+00    0.195E+00
DAV:   6    -0.839906703824E+02    0.48567E-01   -0.62116E-01  4776   0.243E+00    0.105E+00
DAV:   7    -0.839807072286E+02    0.99632E-02   -0.12315E-01  4674   0.121E+00    0.452E-01
DAV:   8    -0.839790877787E+02    0.16194E-02   -0.20227E-02  4496   0.568E-01    0.252E-01
DAV:   9    -0.839792065091E+02   -0.11873E-03   -0.63702E-03  4800   0.284E-01    0.133E-01
DAV:  10    -0.839791551906E+02    0.51318E-04   -0.12033E-03  4664   0.129E-01    0.542E-02
DAV:  11    -0.839791609657E+02   -0.57751E-05   -0.25425E-04  4800   0.681E-02    0.268E-02
DAV:  12    -0.839791843467E+02   -0.23381E-04   -0.65741E-05  4248   0.347E-02    0.127E-02
DAV:  13    -0.839791875601E+02   -0.32134E-05   -0.11796E-05  4112   0.152E-02    0.640E-03
DAV:  14    -0.839791888140E+02   -0.12539E-05   -0.51207E-06  3464   0.971E-03    0.314E-03
DAV:  15    -0.839791894836E+02   -0.66966E-06   -0.79188E-07  2304   0.413E-03
   9 F= -.86658481E+02 E0= -.86658481E+02  d E =0.105253E+02
 trial-energy change:   10.525270  1 .order   25.271321   -9.648756   60.191398
 step:   0.0973(harm=  0.0973)  dis= 0.05137  next Energy=   -97.850262 (dE=-0.667E+00)
 bond charge predicted
       N       E                     dE             d eps       ncg     rms          rms(c)
DAV:   1    -0.100529597060E+03   -0.16550E+02   -0.14042E+03  3312   0.190E+02    0.185E+01
DAV:   2    -0.103625425862E+03   -0.30958E+01   -0.15051E+02  4896   0.469E+01    0.167E+01
DAV:   3    -0.961627969152E+02    0.74626E+01   -0.42243E+01  5472   0.239E+01    0.681E+00
DAV:   4    -0.957605894459E+02    0.40221E+00   -0.70051E+00  4856   0.981E+00    0.379E+00
DAV:   5    -0.956289920535E+02    0.13160E+00   -0.13564E+00  4376   0.452E+00    0.213E+00
DAV:   6    -0.956064611825E+02    0.22531E-01   -0.67086E-01  5218   0.242E+00    0.147E+00
DAV:   7    -0.955776301683E+02    0.28831E-01   -0.18429E-01  4856   0.139E+00    0.542E-01
DAV:   8    -0.955755157124E+02    0.21145E-02   -0.36366E-02  4720   0.695E-01    0.306E-01
DAV:   9    -0.955754913511E+02    0.24361E-04   -0.98200E-03  5048   0.338E-01    0.174E-01
DAV:  10    -0.955753414431E+02    0.14991E-03   -0.22947E-03  5000   0.169E-01    0.850E-02
DAV:  11    -0.955753058533E+02    0.35590E-04   -0.76667E-04  5016   0.962E-02    0.371E-02
DAV:  12    -0.955753043757E+02    0.14776E-05   -0.15395E-04  4544   0.483E-02    0.208E-02
DAV:  13    -0.955753177823E+02   -0.13407E-04   -0.38873E-05  4960   0.236E-02    0.104E-02
DAV:  14    -0.955753192220E+02   -0.14397E-05   -0.92524E-06  4368   0.122E-02    0.500E-03
DAV:  15    -0.955753199797E+02   -0.75773E-06   -0.29124E-06  2664   0.711E-03
  10 F= -.98415193E+02 E0= -.98415193E+02  d E =-.123144E+01
 curvature:  -0.13 expect dE=-0.145E+01 dE for cont linesearch -0.457E+00
 ZBRENT: interpolating
 opt :   0.1685  next Energy=   -98.818803 (dE=-0.164E+01)
 bond charge predicted
       N       E                     dE             d eps       ncg     rms          rms(c)
DAV:   1    -0.963454055202E+02   -0.77009E+00   -0.19527E+01  3312   0.219E+01    0.163E+00
DAV:   2    -0.963908192743E+02   -0.45414E-01   -0.12999E+00  4936   0.406E+00    0.169E+00
DAV:   3    -0.963221147535E+02    0.68705E-01   -0.41663E-01  4896   0.184E+00    0.633E-01
DAV:   4    -0.963183537143E+02    0.37610E-02   -0.42845E-02  4880   0.697E-01    0.409E-01
DAV:   5    -0.963163851422E+02    0.19686E-02   -0.16731E-02  4536   0.453E-01    0.206E-01
DAV:   6    -0.963158362508E+02    0.54889E-03   -0.56566E-03  4784   0.259E-01    0.104E-01
DAV:   7    -0.963156431474E+02    0.19310E-03   -0.15991E-03  5032   0.125E-01    0.563E-02
DAV:   8    -0.963156267335E+02    0.16414E-04   -0.30619E-04  5064   0.573E-02    0.299E-02
DAV:   9    -0.963156143535E+02    0.12380E-04   -0.65027E-05  4888   0.286E-02    0.143E-02
DAV:  10    -0.963156155583E+02   -0.12049E-05   -0.15078E-05  4640   0.141E-02    0.537E-03
DAV:  11    -0.963156146669E+02    0.89141E-06   -0.26978E-06  2304   0.696E-03
  11 F= -.99130431E+02 E0= -.99130431E+02  d E =-.194668E+01
 curvature:  -0.11 expect dE=-0.127E+01 dE for cont linesearch -0.230E+00
 ZBRENT: interpolating
 opt :   0.3678  next Energy=  -100.061996 (dE=-0.288E+01)
 bond charge predicted
       N       E                     dE             d eps       ncg     rms          rms(c)
DAV:   1    -0.972815840836E+02   -0.96597E+00   -0.15947E+02  3312   0.620E+01    0.498E+00
DAV:   2    -0.971767947726E+02    0.10479E+00   -0.83628E+00  4880   0.124E+01    0.415E+00
DAV:   3    -0.968656857891E+02    0.31111E+00   -0.32149E+00  4928   0.514E+00    0.197E+00
DAV:   4    -0.968173672058E+02    0.48319E-01   -0.41235E-01  4616   0.215E+00    0.121E+00
DAV:   5    -0.967976067863E+02    0.19760E-01   -0.19037E-01  4650   0.147E+00    0.595E-01
DAV:   6    -0.967931093731E+02    0.44974E-02   -0.46626E-02  4730   0.756E-01    0.305E-01
DAV:   7    -0.967924393674E+02    0.67001E-03   -0.11546E-02  4816   0.344E-01    0.156E-01
DAV:   8    -0.967922022839E+02    0.23708E-03   -0.23420E-03  4960   0.152E-01    0.909E-02
DAV:   9    -0.967922055469E+02   -0.32630E-05   -0.60246E-04  5008   0.814E-02    0.414E-02
DAV:  10    -0.967921790353E+02    0.26512E-04   -0.14343E-04  4616   0.437E-02    0.162E-02
DAV:  11    -0.967921793376E+02   -0.30235E-06   -0.23275E-05  4368   0.194E-02    0.807E-03
DAV:  12    -0.967921792418E+02    0.95818E-07   -0.43817E-06  3768   0.920E-03
  12 F= -.99549725E+02 E0= -.99549725E+02  d E =-.236597E+01
 curvature:  -0.45 expect dE=-0.160E+02 dE for cont linesearch -0.563E+00
 ZBRENT: interpolating
 opt :   0.2806  next Energy=   -99.840017 (dE=-0.266E+01)
 bond charge predicted
       N       E                     dE             d eps       ncg     rms          rms(c)
DAV:   1    -0.971243563415E+02   -0.33218E+00   -0.31868E+01  3312   0.282E+01    0.286E+00
DAV:   2    -0.972217075050E+02   -0.97351E-01   -0.45426E+00  4992   0.641E+00    0.293E+00
DAV:   3    -0.969748211386E+02    0.24689E+00   -0.93360E-01  4912   0.322E+00    0.997E-01
DAV:   4    -0.969678365820E+02    0.69846E-02   -0.14419E-01  4968   0.123E+00    0.661E-01
DAV:   5    -0.969610826969E+02    0.67539E-02   -0.39178E-02  4544   0.664E-01    0.296E-01
DAV:   6    -0.969607486904E+02    0.33401E-03   -0.10566E-02  4872   0.364E-01    0.167E-01
DAV:   7    -0.969604172712E+02    0.33142E-03   -0.35468E-03  4864   0.193E-01    0.753E-02
DAV:   8    -0.969603084660E+02    0.10881E-03   -0.49732E-04  4782   0.859E-02    0.401E-02
DAV:   9    -0.969603283433E+02   -0.19877E-04   -0.14563E-04  4472   0.442E-02    0.164E-02
DAV:  10    -0.969603415117E+02   -0.13168E-04   -0.19098E-05  4560   0.189E-02    0.733E-03
DAV:  11    -0.969603359023E+02    0.56093E-05   -0.47666E-06  3496   0.903E-03    0.332E-03
DAV:  12    -0.969603380808E+02   -0.21785E-05   -0.97295E-07  2304   0.436E-03    0.164E-03
DAV:  13    -0.969603367727E+02    0.13081E-05   -0.25450E-07  2304   0.233E-03    0.716E-04
DAV:  14    -0.969603370215E+02   -0.24885E-06   -0.94204E-08  2304   0.130E-03
  13 F= -.99741034E+02 E0= -.99741034E+02  d E =-.255728E+01
 curvature:  -0.23 expect dE=-0.401E+01 dE for cont linesearch -0.189E-01
 trial: gam= 0.77835 g(F)=  0.172E+02 g(S)=  0.000E+00 ort = 0.170E+01 (trialstep = 0.532E+00)
 search vector abs. value=  0.414E+02
 bond charge predicted
       N       E                     dE             d eps       ncg     rms          rms(c)
DAV:   1    -0.928398873670E+02    0.41204E+01   -0.12193E+03  3320   0.164E+02    0.135E+01
DAV:   2    -0.929550438619E+02   -0.11516E+00   -0.96227E+01  4476   0.426E+01    0.949E+00
DAV:   3    -0.914473514206E+02    0.15077E+01   -0.13672E+01  4352   0.152E+01    0.524E+00
DAV:   4    -0.912483428334E+02    0.19901E+00   -0.42934E+00  4488   0.672E+00    0.368E+00
DAV:   5    -0.910439072081E+02    0.20444E+00   -0.10392E+00  4664   0.377E+00    0.151E+00
DAV:   6    -0.910319875503E+02    0.11920E-01   -0.39858E-01  4544   0.219E+00    0.925E-01
DAV:   7    -0.910241751051E+02    0.78124E-02   -0.87847E-02  4632   0.117E+00    0.527E-01
DAV:   8    -0.910197667327E+02    0.44084E-02   -0.26861E-02  4544   0.606E-01    0.257E-01
DAV:   9    -0.910199847180E+02   -0.21799E-03   -0.66521E-03  4680   0.307E-01    0.129E-01
DAV:  10    -0.910198561904E+02    0.12853E-03   -0.19054E-03  4584   0.150E-01    0.587E-02
DAV:  11    -0.910198924896E+02   -0.36299E-04   -0.33661E-04  4280   0.697E-02    0.267E-02
DAV:  12    -0.910198878657E+02    0.46239E-05   -0.92584E-05  4712   0.431E-02    0.160E-02
DAV:  13    -0.910198886570E+02   -0.79131E-06   -0.32104E-05  4456   0.245E-02    0.808E-03
DAV:  14    -0.910198911415E+02   -0.24844E-05   -0.95609E-06  3984   0.119E-02    0.463E-03
DAV:  15    -0.910198898017E+02    0.13398E-05   -0.14470E-06  2304   0.631E-03    0.163E-03
DAV:  16    -0.910198906999E+02   -0.89826E-06   -0.90978E-07  2298   0.394E-03
  14 F= -.93591352E+02 E0= -.93591352E+02  d E =0.614968E+01
 trial-energy change:    6.149682  1 .order   15.340737   -9.873643   40.555117
 step:   0.1042(harm=  0.1042)  dis= 0.06502  next Energy=  -100.707634 (dE=-0.967E+00)
 bond charge predicted
       N       E                     dE             d eps       ncg     rms          rms(c)
DAV:   1    -0.102920882760E+03   -0.11901E+02   -0.84587E+02  3312   0.149E+02    0.154E+01
DAV:   2    -0.104044199729E+03   -0.11233E+01   -0.90252E+01  4620   0.358E+01    0.132E+01
DAV:   3    -0.991348163157E+02    0.49094E+01   -0.26401E+01  5560   0.184E+01    0.583E+00
DAV:   4    -0.988399127437E+02    0.29490E+00   -0.54234E+00  4666   0.803E+00    0.355E+00
DAV:   5    -0.987247561659E+02    0.11516E+00   -0.15469E+00  4776   0.397E+00    0.223E+00
DAV:   6    -0.986613536641E+02    0.63403E-01   -0.34530E-01  4720   0.216E+00    0.107E+00
DAV:   7    -0.986500390167E+02    0.11315E-01   -0.12193E-01  4736   0.128E+00    0.505E-01
DAV:   8    -0.986489335801E+02    0.11054E-02   -0.29925E-02  4560   0.662E-01    0.264E-01
DAV:   9    -0.986480381943E+02    0.89539E-03   -0.75278E-03  4688   0.298E-01    0.144E-01
DAV:  10    -0.986479548509E+02    0.83343E-04   -0.17856E-03  4860   0.163E-01    0.659E-02
DAV:  11    -0.986479291148E+02    0.25736E-04   -0.46011E-04  4408   0.810E-02    0.348E-02
DAV:  12    -0.986479598782E+02   -0.30763E-04   -0.90977E-05  4698   0.388E-02    0.148E-02
DAV:  13    -0.986479610926E+02   -0.12144E-05   -0.18047E-05  4528   0.190E-02    0.823E-03
DAV:  14    -0.986479670237E+02   -0.59311E-05   -0.43277E-06  3434   0.946E-03    0.303E-03
DAV:  15    -0.986479669336E+02    0.90053E-07   -0.99857E-07  2304   0.476E-03
  15 F= -.10139507E+03 E0= -.10139507E+03  d E =-.165404E+01
 curvature:  -0.12 expect dE=-0.131E+01 dE for cont linesearch -0.459E+00
 ZBRENT: interpolating
 opt :   0.1657  next Energy=  -101.787817 (dE=-0.205E+01)
 bond charge predicted
       N       E                     dE             d eps       ncg     rms          rms(c)
DAV:   1    -0.993833661419E+02   -0.73540E+00   -0.17624E+01  3312   0.208E+01    0.180E+00
DAV:   2    -0.993581656849E+02    0.25200E-01   -0.10376E+00  4680   0.444E+00    0.142E+00
DAV:   3    -0.993215434650E+02    0.36622E-01   -0.33022E-01  4704   0.185E+00    0.615E-01
DAV:   4    -0.993177827511E+02    0.37607E-02   -0.42977E-02  4680   0.697E-01    0.383E-01
DAV:   5    -0.993159397142E+02    0.18430E-02   -0.14609E-02  4664   0.423E-01    0.224E-01
DAV:   6    -0.993156442890E+02    0.29543E-03   -0.50032E-03  4736   0.242E-01    0.783E-02
DAV:   7    -0.993155525731E+02    0.91716E-04   -0.65856E-04  4714   0.104E-01    0.395E-02
DAV:   8    -0.993155997036E+02   -0.47131E-04   -0.12895E-04  4624   0.435E-02    0.244E-02
DAV:   9    -0.993155643532E+02    0.35350E-04   -0.46233E-05  4850   0.214E-02    0.119E-02
DAV:  10    -0.993155686911E+02   -0.43379E-05   -0.10889E-05  4328   0.119E-02    0.413E-03
DAV:  11    -0.993155692062E+02   -0.51507E-06   -0.20017E-06  2304   0.580E-03
  16 F= -.10204334E+03 E0= -.10204334E+03  d E =-.230230E+01
 curvature:  -0.10 expect dE=-0.105E+01 dE for cont linesearch -0.155E+00
 ZBRENT: interpolating
 opt :   0.2600  next Energy=  -102.458247 (dE=-0.272E+01)
 bond charge predicted
       N       E                     dE             d eps       ncg     rms          rms(c)
DAV:   1    -0.998210703236E+02   -0.50550E+00   -0.42358E+01  3312   0.324E+01    0.273E+00
DAV:   2    -0.997262792883E+02    0.94791E-01   -0.22750E+00  4608   0.677E+00    0.195E+00
DAV:   3    -0.996638307812E+02    0.62449E-01   -0.58820E-01  4504   0.269E+00    0.938E-01
DAV:   4    -0.996554291442E+02    0.84016E-02   -0.99868E-02  4632   0.106E+00    0.588E-01
DAV:   5    -0.996513350979E+02    0.40940E-02   -0.29436E-02  4592   0.625E-01    0.307E-01
DAV:   6    -0.996511058940E+02    0.22920E-03   -0.12396E-02  4736   0.345E-01    0.136E-01
DAV:   7    -0.996505782801E+02    0.52761E-03   -0.21498E-03  4776   0.163E-01    0.741E-02
DAV:   8    -0.996506622845E+02   -0.84004E-04   -0.52140E-04  4786   0.776E-02    0.388E-02
DAV:   9    -0.996506296239E+02    0.32661E-04   -0.85545E-05  4488   0.355E-02    0.158E-02
DAV:  10    -0.996506385419E+02   -0.89181E-05   -0.19935E-05  4680   0.175E-02    0.672E-03
DAV:  11    -0.996506332086E+02    0.53333E-05   -0.41066E-06  2448   0.841E-03    0.330E-03
DAV:  12    -0.996506344152E+02   -0.12065E-05   -0.91999E-07  2304   0.430E-03    0.163E-03
DAV:  13    -0.996506346814E+02   -0.26621E-06   -0.29720E-07  2286   0.241E-03
  17 F= -.10234654E+03 E0= -.10234654E+03  d E =-.260551E+01
 curvature:  -0.27 expect dE=-0.498E+01 dE for cont linesearch -0.382E-01
 trial: gam= 0.84596 g(F)=  0.187E+02 g(S)=  0.000E+00 ort =-0.244E+01 (trialstep = 0.448E+00)
 search vector abs. value=  0.442E+02
 bond charge predicted
       N       E                     dE             d eps       ncg     rms          rms(c)
DAV:   1    -0.103658268666E+03   -0.40076E+01   -0.81015E+02  3312   0.140E+02    0.847E+00
DAV:   2    -0.105980522763E+03   -0.23223E+01   -0.52045E+01  4592   0.308E+01    0.680E+00
DAV:   3    -0.105232585974E+03    0.74794E+00   -0.72926E+00  4640   0.105E+01    0.363E+00
DAV:   4    -0.105133902837E+03    0.98683E-01   -0.12436E+00  4728   0.390E+00    0.252E+00
DAV:   5    -0.105042377303E+03    0.91526E-01   -0.39076E-01  4200   0.244E+00    0.849E-01
DAV:   6    -0.105041906815E+03    0.47049E-03   -0.10101E-01  4440   0.123E+00    0.395E-01
DAV:   7    -0.105038953359E+03    0.29535E-02   -0.23041E-02  4608   0.553E-01    0.210E-01
DAV:   8    -0.105038733374E+03    0.21998E-03   -0.44964E-03  4472   0.264E-01    0.108E-01
DAV:   9    -0.105038736481E+03   -0.31068E-05   -0.81976E-04  4520   0.119E-01    0.467E-02
DAV:  10    -0.105038753957E+03   -0.17477E-04   -0.15991E-04  4664   0.548E-02    0.193E-02
DAV:  11    -0.105038752172E+03    0.17855E-05   -0.32338E-05  4256   0.251E-02    0.925E-03
