 vasp.5.3.5 31Mar14 (build Nov 02 2014 15:17:37) complex                        
  
 executed on        ion-Intel-MKL date 2017.06.25  00:23:32
 running on    4 total cores
 distrk:  each k-point on    4 cores,    1 groups
 distr:  one band on NCORES_PER_BAND=   2 cores,    2 groups


--------------------------------------------------------------------------------------------------------


 INCAR:
 POTCAR:  PAW_PBE H 15Jun2001                     
 POTCAR:  PAW_PBE C 08Apr2002                     
 POTCAR:  PAW_PBE H 15Jun2001                     
   VRHFIN =H: ultrasoft test                                                    
   LEXCH  = PE                                                                  
   EATOM  =    12.4884 eV,     .9179 Ry                                         
                                                                                
   TITEL  = PAW_PBE H 15Jun2001                                                 
   LULTRA =        F    use ultrasoft PP ?                                      
   IUNSCR =        0    unscreen: 0-lin 1-nonlin 2-no                           
   RPACOR =     .000    partial core radius                                     
   POMASS =    1.000; ZVAL   =    1.000    mass and valenz                      
   RCORE  =    1.100    outmost cutoff radius                                   
   RWIGS  =     .700; RWIGS  =     .370    wigner-seitz radius (au A)           
   ENMAX  =  250.000; ENMIN  =  200.000 eV                                      
   RCLOC  =     .701    cutoff for local pot                                    
   LCOR   =        T    correct aug charges                                     
   LPAW   =        T    paw PP                                                  
   EAUG   =  400.000                                                            
   RMAX   =    2.174    core radius for proj-oper                               
   RAUG   =    1.200    factor for augmentation sphere                          
   RDEP   =    1.112    radius for radial grids                                 
   QCUT   =   -5.749; QGAM   =   11.498    optimization parameters              
                                                                                
   Description                                                                  
     l     E      TYP  RCUT    TYP  RCUT                                        
     0   .000     23  1.100                                                     
     0   .500     23  1.100                                                     
     1  -.300     23  1.100                                                     
  local pseudopotential read in
  atomic valenz-charges read in
  non local Contribution for L=           0  read in
    real space projection operators read in
  non local Contribution for L=           0  read in
    real space projection operators read in
  non local Contribution for L=           1  read in
    real space projection operators read in
    PAW grid and wavefunctions read in
 
   number of l-projection  operators is LMAX  =           3
   number of lm-projection operators is LMMAX =           5
 
 POTCAR:  PAW_PBE C 08Apr2002                     
   VRHFIN =C: s2p2                                                              
   LEXCH  = PE                                                                  
   EATOM  =   147.1560 eV,   10.8157 Ry                                         
                                                                                
   TITEL  = PAW_PBE C 08Apr2002                                                 
   LULTRA =        F    use ultrasoft PP ?                                      
   IUNSCR =        0    unscreen: 0-lin 1-nonlin 2-no                           
   RPACOR =     .000    partial core radius                                     
   POMASS =   12.011; ZVAL   =    4.000    mass and valenz                      
   RCORE  =    1.500    outmost cutoff radius                                   
   RWIGS  =    1.630; RWIGS  =     .863    wigner-seitz radius (au A)           
   ENMAX  =  400.000; ENMIN  =  300.000 eV                                      
   ICORE  =        2    local potential                                         
   LCOR   =        T    correct aug charges                                     
   LPAW   =        T    paw PP                                                  
   EAUG   =  644.873                                                            
   DEXC   =     .000                                                            
   RMAX   =    2.266    core radius for proj-oper                               
   RAUG   =    1.300    factor for augmentation sphere                          
   RDEP   =    1.501    radius for radial grids                                 
   RDEPT  =    1.300    core radius for aug-charge                              
   QCUT   =   -5.516; QGAM   =   11.032    optimization parameters              
                                                                                
   Description                                                                  
     l     E      TYP  RCUT    TYP  RCUT                                        
     0   .000     23  1.200                                                     
     0   .000     23  1.200                                                     
     1   .000     23  1.500                                                     
     1  2.500     23  1.500                                                     
     2   .000      7  1.500                                                     
  local pseudopotential read in
  atomic valenz-charges read in
  non local Contribution for L=           0  read in
    real space projection operators read in
  non local Contribution for L=           0  read in
    real space projection operators read in
  non local Contribution for L=           1  read in
    real space projection operators read in
  non local Contribution for L=           1  read in
    real space projection operators read in
    PAW grid and wavefunctions read in
 
   number of l-projection  operators is LMAX  =           4
   number of lm-projection operators is LMMAX =           8
 

 ----------------------------------------------------------------------------- 
|                                                                             |
|  ADVICE TO THIS USER RUNNING 'VASP/VAMP'   (HEAR YOUR MASTER'S VOICE ...):  |
|                                                                             |
|      You have a (more or less) 'large supercell' and for larger cells       |
|      it might be more efficient to use real space projection operators      |
|      So try LREAL= Auto  in the INCAR   file.                               |
|      Mind: If you want to do a very accurate calculations keep the          |
|      reciprocal projection scheme          (i.e. LREAL=.FALSE.)             |
|                                                                             |
 ----------------------------------------------------------------------------- 

PAW_PBE H 15Jun2001                     :
 energy of atom  1       EATOM=  -12.4884
 kinetic energy error for atom=    0.0004 (will be added to EATOM!!)
PAW_PBE C 08Apr2002                     :
 energy of atom  2       EATOM= -147.1560
 kinetic energy error for atom=    0.0057 (will be added to EATOM!!)
 
 
 POSCAR: methane-low                             
  positions in direct lattice
  velocities in cartesian coordinates
 exchange correlation table for  LEXCH =        8
   RHO(1)=    0.500       N(1)  =     2000
   RHO(2)=  100.500       N(2)  =     4000
 


--------------------------------------------------------------------------------------------------------


 ion  position               nearest neighbor table
   1  0.077  0.796  0.154-  68 1.10
   2  0.923  0.204  0.846-  67 1.10
   3  0.923  0.704  0.654-  66 1.10
   4  0.077  0.296  0.346-  65 1.10
   5  0.923  0.296  0.346-  65 1.10
   6  0.077  0.704  0.654-  66 1.10
   7  0.077  0.204  0.846-  67 1.10
   8  0.923  0.796  0.154-  68 1.10
   9  0.577  0.296  0.154-  72 1.10
  10  0.423  0.704  0.846-  71 1.10
  11  0.423  0.204  0.654-  70 1.10
  12  0.577  0.796  0.346-  69 1.10
  13  0.423  0.796  0.346-  69 1.10
  14  0.577  0.204  0.654-  70 1.10
  15  0.577  0.704  0.846-  71 1.10
  16  0.423  0.296  0.154-  72 1.10
  17  0.805  0.585  0.929-  73 1.10
  18  0.195  0.415  0.071-  74 1.10
  19  0.195  0.915  0.429-  75 1.10
  20  0.805  0.085  0.571-  76 1.10
  21  0.195  0.085  0.571-  75 1.10
  22  0.805  0.915  0.429-  76 1.10
  23  0.805  0.415  0.071-  73 1.10
  24  0.195  0.585  0.929-  74 1.10
  25  0.305  0.085  0.929-  77 1.10
  26  0.695  0.915  0.071-  78 1.10
  27  0.695  0.415  0.429-  79 1.10
  28  0.305  0.585  0.571-  80 1.10
  29  0.695  0.585  0.571-  79 1.10
  30  0.305  0.415  0.429-  80 1.10
  31  0.305  0.915  0.071-  77 1.10
  32  0.695  0.085  0.929-  78 1.10
  33  0.695  0.571  0.085-  73 1.10
  34  0.305  0.429  0.915-  74 1.10
  35  0.305  0.929  0.585-  75 1.10
  36  0.695  0.071  0.415-  76 1.10
  37  0.305  0.071  0.415-  75 1.10
  38  0.695  0.929  0.585-  76 1.10
  39  0.695  0.429  0.915-  73 1.10
  40  0.305  0.571  0.085-  74 1.10
  41  0.195  0.071  0.085-  77 1.10
  42  0.805  0.929  0.915-  78 1.10
  43  0.805  0.429  0.585-  79 1.10
  44  0.195  0.571  0.415-  80 1.10
  45  0.805  0.571  0.415-  79 1.10
  46  0.195  0.429  0.585-  80 1.10
  47  0.195  0.929  0.915-  77 1.10
  48  0.805  0.071  0.085-  78 1.10
  49  0.000  0.604  0.158-  68 1.10
  50  0.000  0.396  0.842-  67 1.10
  51  0.000  0.896  0.658-  66 1.10
  52  0.000  0.104  0.342-  65 1.10
  53  0.500  0.104  0.158-  72 1.10
  54  0.500  0.896  0.842-  71 1.10
  55  0.500  0.396  0.658-  70 1.10
  56  0.500  0.604  0.342-  69 1.10
  57  0.000  0.264  0.664-  67 1.10
  58  0.000  0.736  0.336-  68 1.10
  59  0.000  0.236  0.164-  65 1.10
  60  0.000  0.764  0.836-  66 1.10
  61  0.500  0.764  0.664-  71 1.10
  62  0.500  0.236  0.336-  72 1.10
  63  0.500  0.736  0.164-  69 1.10
  64  0.500  0.264  0.836-  70 1.10
  65  0.000  0.233  0.299-   5 1.10   4 1.10  52 1.10  59 1.10
  66  0.000  0.767  0.701-   3 1.10   6 1.10  51 1.10  60 1.10
  67  0.000  0.267  0.799-   2 1.10   7 1.10  50 1.10  57 1.10
  68  0.000  0.733  0.201-   8 1.10   1 1.10  49 1.10  58 1.10
  69  0.500  0.733  0.299-  12 1.10  13 1.10  56 1.10  63 1.10
  70  0.500  0.267  0.701-  14 1.10  11 1.10  55 1.10  64 1.10
  71  0.500  0.767  0.799-  15 1.10  10 1.10  54 1.10  61 1.10
  72  0.500  0.233  0.201-   9 1.10  16 1.10  53 1.10  62 1.10
  73  0.750  0.500  0.000-  17 1.10  23 1.10  39 1.10  33 1.10
  74  0.250  0.500  0.000-  18 1.10  24 1.10  34 1.10  40 1.10
  75  0.250  0.000  0.500-  19 1.10  21 1.10  35 1.10  37 1.10
  76  0.750  0.000  0.500-  20 1.10  22 1.10  36 1.10  38 1.10
  77  0.250  0.000  0.000-  25 1.10  31 1.10  47 1.10  41 1.10
  78  0.750  0.000  0.000-  26 1.10  32 1.10  42 1.10  48 1.10
  79  0.750  0.500  0.500-  27 1.10  29 1.10  43 1.10  45 1.10
  80  0.250  0.500  0.500-  28 1.10  30 1.10  44 1.10  46 1.10
 
  LATTYP: Found a simple orthorhombic cell.
 ALAT       =     8.0735894287
 B/A-ratio  =     1.0006230659
 C/A-ratio  =     1.4305490624
  
  Lattice vectors:
  
 A1 = (   0.0000000000,   0.0000000000,  -8.0735894287)
 A2 = (   0.0000000000,  -8.0786198073,   0.0000000000)
 A3 = ( -11.5496657878,   0.0000000000,   0.0000000000)


Analysis of symmetry for initial positions (statically):
=====================================================================
 Subroutine PRICEL returns following result:
 
  LATTYP: Found a base centered orthorhombic cell.
 ALAT       =     8.0786198073
 B/A-ratio  =     1.4296582910
 C/A-ratio  =     0.9993773220
  
  Lattice vectors:
  
 A1 = (   5.7748328939,  -4.0393099037,   0.0000000000)
 A2 = (  -5.7748328939,  -4.0393099037,   0.0000000000)
 A3 = (   0.0000000000,   0.0000000000,  -8.0735894287)
 
   2 primitive cells build up your supercell.
 

 Routine SETGRP: Setting up the symmetry group for a 
 simple orthorhombic supercell.


 Subroutine GETGRP returns: Found  8 space group operations
 (whereof  4 operations were pure point group operations)
 out of a pool of  8 trial point group operations.


The static configuration has the point symmetry C_2h.
 The point group associated with its full space group is D_2h.


Analysis of symmetry for dynamics (positions and initial velocities):
=====================================================================
 Subroutine PRICEL returns following result:
 
  LATTYP: Found a base centered orthorhombic cell.
 ALAT       =     8.0786198073
 B/A-ratio  =     1.4296582910
 C/A-ratio  =     0.9993773220
  
  Lattice vectors:
  
 A1 = (   5.7748328939,  -4.0393099037,   0.0000000000)
 A2 = (  -5.7748328939,  -4.0393099037,   0.0000000000)
 A3 = (   0.0000000000,   0.0000000000,  -8.0735894287)
 
   2 primitive cells build up your supercell.
 

 Routine SETGRP: Setting up the symmetry group for a 
 simple orthorhombic supercell.


 Subroutine GETGRP returns: Found  8 space group operations
 (whereof  4 operations were pure point group operations)
 out of a pool of  8 trial point group operations.


The dynamic configuration has the point symmetry C_2h.
 The point group associated with its full space group is D_2h.
 
 
 KPOINTS: B4C B11C-CBC                            

Automatic generation of k-mesh.
Space group operators:
 irot       det(A)        alpha          n_x          n_y          n_z        tau_x        tau_y        tau_z
    1     1.000000     0.000000     1.000000     0.000000     0.000000     0.000000     0.000000     0.000000
    2    -1.000000     0.000000     1.000000     0.000000     0.000000     0.000000     0.000000     0.000000
    3     1.000000   180.000000     1.000000     0.000000     0.000000     0.000000     0.000000     0.000000
    4    -1.000000   180.000000     1.000000     0.000000     0.000000     0.000000     0.000000     0.000000
    5     1.000000   180.000000     0.000000     1.000000     0.000000     0.000000    -0.500000    -0.500000
    6    -1.000000   180.000000     0.000000     1.000000     0.000000     0.000000    -0.500000    -0.500000
    7     1.000000   180.000000     0.000000     0.000000     1.000000     0.000000    -0.500000    -0.500000
    8    -1.000000   180.000000     0.000000     0.000000     1.000000     0.000000    -0.500000    -0.500000
 
 Subroutine IBZKPT returns following result:
 ===========================================
 
 Found     27 irreducible k-points:
 
 Following reciprocal coordinates:
            Coordinates               Weight
  0.000000  0.000000  0.000000      1.000000
  0.250000  0.000000  0.000000      2.000000
  0.500000  0.000000  0.000000      1.000000
  0.000000  0.250000  0.000000      2.000000
  0.250000  0.250000  0.000000      4.000000
  0.500000  0.250000  0.000000      2.000000
  0.000000  0.500000  0.000000      1.000000
  0.250000  0.500000  0.000000      2.000000
  0.500000  0.500000  0.000000      1.000000
  0.000000  0.000000  0.250000      2.000000
  0.250000  0.000000  0.250000      4.000000
  0.500000  0.000000  0.250000      2.000000
  0.000000  0.250000  0.250000      4.000000
  0.250000  0.250000  0.250000      8.000000
  0.500000  0.250000  0.250000      4.000000
  0.000000  0.500000  0.250000      2.000000
  0.250000  0.500000  0.250000      4.000000
  0.500000  0.500000  0.250000      2.000000
  0.000000  0.000000  0.500000      1.000000
  0.250000  0.000000  0.500000      2.000000
  0.500000  0.000000  0.500000      1.000000
  0.000000  0.250000  0.500000      2.000000
  0.250000  0.250000  0.500000      4.000000
  0.500000  0.250000  0.500000      2.000000
  0.000000  0.500000  0.500000      1.000000
  0.250000  0.500000  0.500000      2.000000
  0.500000  0.500000  0.500000      1.000000
 
 Following cartesian coordinates:
            Coordinates               Weight
  0.000000  0.000000  0.000000      1.000000
  0.021353  0.000000  0.000000      2.000000
  0.042706  0.000000  0.000000      1.000000
  0.000000  0.030528  0.000000      2.000000
  0.021353  0.030528  0.000000      4.000000
  0.042706  0.030528  0.000000      2.000000
  0.000000  0.061055  0.000000      1.000000
  0.021353  0.061055  0.000000      2.000000
  0.042706  0.061055  0.000000      1.000000
  0.000000  0.000000  0.030547      2.000000
  0.021353  0.000000  0.030547      4.000000
  0.042706  0.000000  0.030547      2.000000
  0.000000  0.030528  0.030547      4.000000
  0.021353  0.030528  0.030547      8.000000
  0.042706  0.030528  0.030547      4.000000
  0.000000  0.061055  0.030547      2.000000
  0.021353  0.061055  0.030547      4.000000
  0.042706  0.061055  0.030547      2.000000
  0.000000  0.000000  0.061093      1.000000
  0.021353  0.000000  0.061093      2.000000
  0.042706  0.000000  0.061093      1.000000
  0.000000  0.030528  0.061093      2.000000
  0.021353  0.030528  0.061093      4.000000
  0.042706  0.030528  0.061093      2.000000
  0.000000  0.061055  0.061093      1.000000
  0.021353  0.061055  0.061093      2.000000
  0.042706  0.061055  0.061093      1.000000
 
 TETIRR: Found    192 inequivalent tetrahedra from      384


--------------------------------------------------------------------------------------------------------




 Dimension of arrays:
   k-points           NKPTS =     27   k-points in BZ     NKDIM =     27   number of bands    NBANDS=    106
   number of dos      NEDOS =    301   number of ions     NIONS =     80
   non local maximal  LDIM  =      4   non local SUM 2l+1 LMDIM =      8
   total plane-waves  NPLWV = 161280
   max r-space proj   IRMAX =      1   max aug-charges    IRDMAX=   2726
   dimension x,y,z NGX =    70 NGY =   48 NGZ =   48
   dimension x,y,z NGXF=   140 NGYF=   96 NGZF=   96
   support grid    NGXF=   140 NGYF=   96 NGZF=   96
   ions per type =              64  16
 NGX,Y,Z   is equivalent  to a cutoff of  10.08,  9.88,  9.88 a.u.
 NGXF,Y,Z  is equivalent  to a cutoff of  20.15, 19.76, 19.77 a.u.


 I would recommend the setting:
   dimension x,y,z NGX =    69 NGY =   48 NGZ =   48
 SYSTEM =  diamond                                 
 POSCAR =  methane-low                             

 Startparameter for this run:
   NWRITE =      2    write-flag & timer
   PREC   = normal    normal or accurate (medium, high low for compatibility)
   ISTART =      0    job   : 0-new  1-cont  2-samecut
   ICHARG =      2    charge: 1-file 2-atom 10-const
   ISPIN  =      1    spin polarized calculation?
   LNONCOLLINEAR =      F non collinear calculations
   LSORBIT =      F    spin-orbit coupling
   INIWAV =      1    electr: 0-lowe 1-rand  2-diag
   LASPH  =      F    aspherical Exc in radial PAW
   METAGGA=      F    non-selfconsistent MetaGGA calc.

 Electronic Relaxation 1
   ENCUT  =  600.0 eV  44.10 Ry    6.64 a.u.  23.07 16.14 16.12*2*pi/ulx,y,z
   ENINI  =  600.0     initial cutoff
   ENAUG  =  644.9 eV  augmentation charge cutoff
   NELM   =    200;   NELMIN=  2; NELMDL=  0     # of ELM steps 
   EDIFF  = 0.1E-05   stopping-criterion for ELM
   LREAL  =      F    real-space projection
   NLSPLINE    = F    spline interpolate recip. space projectors
   LCOMPAT=      F    compatible to vasp.4.4
   GGA_COMPAT  = T    GGA compatible to vasp.4.4-vasp.4.6
   LMAXPAW     = -100 max onsite density
   LMAXMIX     =    2 max onsite mixed and CHGCAR
   VOSKOWN=      0    Vosko Wilk Nusair interpolation
   ROPT   =    0.00000   0.00000
 Ionic relaxation
   EDIFFG = 0.1E-02   stopping-criterion for IOM
   NSW    =    200    number of steps for IOM
   NBLOCK =      1;   KBLOCK =    200    inner block; outer block 
   IBRION =      2    ionic relax: 0-MD 1-quasi-New 2-CG
   NFREE  =      1    steps in history (QN), initial steepest desc. (CG)
   ISIF   =      2    stress and relaxation
   IWAVPR =     11    prediction:  0-non 1-charg 2-wave 3-comb
   ISYM   =      2    0-nonsym 1-usesym 2-fastsym
   LCORR  =      T    Harris-Foulkes like correction to forces

   POTIM  = 0.5000    time-step for ionic-motion
   TEIN   =    0.0    initial temperature
   TEBEG  =    0.0;   TEEND  =   0.0 temperature during run
   SMASS  =  -3.00    Nose mass-parameter (am)
   estimated Nose-frequenzy (Omega)   =  0.10E-29 period in steps =****** mass=  -0.305E-26a.u.
   SCALEE = 1.0000    scale energy and forces
   NPACO  =    256;   APACO  = 16.0  distance and # of slots for P.C.
   PSTRESS=    0.0 pullay stress

  Mass of Ions in am
   POMASS =   1.00 12.01
  Ionic Valenz
   ZVAL   =   1.00  4.00
  Atomic Wigner-Seitz radii
   RWIGS  =  -1.00 -1.00
  virtual crystal weights 
   VCA    =   1.00  1.00
   NELECT =     128.0000    total number of electrons
   NUPDOWN=      -1.0000    fix difference up-down

 DOS related values:
   EMIN   =  10.00;   EMAX   =-10.00  energy-range for DOS
   EFERMI =   0.00
   ISMEAR =    -5;   SIGMA  =   0.20  broadening in eV -4-tet -1-fermi 0-gaus

 Electronic relaxation 2 (details)
   IALGO  =     38    algorithm
   LDIAG  =      T    sub-space diagonalisation (order eigenvalues)
   LSUBROT=      F    optimize rotation matrix (better conditioning)
   TURBO    =      0    0=normal 1=particle mesh
   IRESTART =      0    0=no restart 2=restart with 2 vectors
   NREBOOT  =      0    no. of reboots
   NMIN     =      0    reboot dimension
   EREF     =   0.00    reference energy to select bands
   IMIX   =      4    mixing-type and parameters
     AMIX     =   0.40;   BMIX     =  1.00
     AMIX_MAG =   1.60;   BMIX_MAG =  1.00
     AMIN     =   0.10
     WC   =   100.;   INIMIX=   1;  MIXPRE=   1;  MAXMIX= -45

 Intra band minimization:
   WEIMIN = 0.0010     energy-eigenvalue tresh-hold
   EBREAK =  0.24E-08  absolut break condition
   DEPER  =   0.30     relativ break condition  

   TIME   =   0.40     timestep for ELM

  volume/ion in A,a.u.               =       9.42        63.54
  Fermi-wavevector in a.u.,A,eV,Ry     =   0.906749  1.713507 11.186624  0.822194
  Thomas-Fermi vector in A             =   2.030474
 
 Write flags
   LWAVE  =      F    write WAVECAR
   LCHARG =      F    write CHGCAR
   LVTOT  =      F    write LOCPOT, total local potential
   LVHAR  =      F    write LOCPOT, Hartree potential only
   LELF   =      F    write electronic localiz. function (ELF)
   LORBIT =      0    0 simple, 1 ext, 2 COOP (PROOUT)


 Dipole corrections
   LMONO  =      F    monopole corrections only (constant potential shift)
   LDIPOL =      F    correct potential (dipole corrections)
   IDIPOL =      0    1-x, 2-y, 3-z, 4-all directions 
   EPSILON=  1.0000000 bulk dielectric constant

 Exchange correlation treatment:
   GGA     =    PE    GGA type
   LEXCH   =     8    internal setting for exchange type
   VOSKOWN=      0    Vosko Wilk Nusair interpolation
   LHFCALC =     F    Hartree Fock is set to
   LHFONE  =     F    Hartree Fock one center treatment
   AEXX    =    0.0000 exact exchange contribution

 Linear response parameters
   LEPSILON=     F    determine dielectric tensor
   LRPA    =     F    only Hartree local field effects (RPA)
   LNABLA  =     F    use nabla operator in PAW spheres
   LVEL    =     F    velocity operator in full k-point grid
   LINTERFAST=   F  fast interpolation
   KINTER  =     0    interpolate to denser k-point grid
   CSHIFT  =0.1000    complex shift for real part using Kramers Kronig
   OMEGAMAX=  -1.0    maximum frequency
   DEG_THRESHOLD= 0.2000000E-02 threshold for treating states as degnerate
   RTIME   =    0.100 relaxation time in fs

 Orbital magnetization related:
   ORBITALMAG=     F  switch on orbital magnetization
   LCHIMAG   =     F  perturbation theory with respect to B field
   DQ        =  0.001000  dq finite difference perturbation B field



--------------------------------------------------------------------------------------------------------


 conjugate gradient relaxation of ions
 charge density and potential will be updated during run
 non-spin polarized calculation
 Variant of blocked Davidson
 Davidson routine will perform the subspace rotation
 perform sub-space diagonalisation
    after iterative eigenvector-optimisation
 modified Broyden-mixing scheme, WC =      100.0
 initial mixing is a Kerker type mixing with AMIX =  0.4000 and BMIX =      1.0000
 Hartree-type preconditioning will be used
 using additional bands           42
 reciprocal scheme for non local part
 calculate Harris-corrections to forces 
   (improved forces if not selfconsistent)
 use gradient corrections 
 use of overlap-Matrix (Vanderbilt PP)
 Fermi weights with tetrahedron method with Bloechl corrections


--------------------------------------------------------------------------------------------------------


  energy-cutoff  :      600.00
  volume of cell :      753.31
      direct lattice vectors                 reciprocal lattice vectors
    11.549665788  0.000000000  0.000000000     0.086582592  0.000000000  0.000000000
     0.000000000  8.078619807  0.000000000     0.000000000  0.123783520  0.000000000
     0.000000000  0.000000000  8.073589429     0.000000000  0.000000000  0.123860646

  length of vectors
    11.549665788  8.078619807  8.073589429     0.086582592  0.123783520  0.123860646


 
 k-points in units of 2pi/SCALE and weight: B4C B11C-CBC                            
   0.00000000  0.00000000  0.00000000       0.016
   0.02135310  0.00000000  0.00000000       0.031
   0.04270621  0.00000000  0.00000000       0.016
   0.00000000  0.03052764  0.00000000       0.031
   0.02135310  0.03052764  0.00000000       0.062
   0.04270621  0.03052764  0.00000000       0.031
   0.00000000  0.06105528  0.00000000       0.016
   0.02135310  0.06105528  0.00000000       0.031
   0.04270621  0.06105528  0.00000000       0.016
   0.00000000  0.00000000  0.03054666       0.031
   0.02135310  0.00000000  0.03054666       0.062
   0.04270621  0.00000000  0.03054666       0.031
   0.00000000  0.03052764  0.03054666       0.062
   0.02135310  0.03052764  0.03054666       0.125
   0.04270621  0.03052764  0.03054666       0.062
   0.00000000  0.06105528  0.03054666       0.031
   0.02135310  0.06105528  0.03054666       0.062
   0.04270621  0.06105528  0.03054666       0.031
   0.00000000  0.00000000  0.06109332       0.016
   0.02135310  0.00000000  0.06109332       0.031
   0.04270621  0.00000000  0.06109332       0.016
   0.00000000  0.03052764  0.06109332       0.031
   0.02135310  0.03052764  0.06109332       0.062
   0.04270621  0.03052764  0.06109332       0.031
   0.00000000  0.06105528  0.06109332       0.016
   0.02135310  0.06105528  0.06109332       0.031
   0.04270621  0.06105528  0.06109332       0.016
 
 k-points in reciprocal lattice and weights: B4C B11C-CBC                            
   0.00000000  0.00000000  0.00000000       0.016
   0.25000000  0.00000000  0.00000000       0.031
   0.50000000  0.00000000  0.00000000       0.016
   0.00000000  0.25000000  0.00000000       0.031
   0.25000000  0.25000000  0.00000000       0.062
   0.50000000  0.25000000  0.00000000       0.031
   0.00000000  0.50000000  0.00000000       0.016
   0.25000000  0.50000000  0.00000000       0.031
   0.50000000  0.50000000  0.00000000       0.016
   0.00000000  0.00000000  0.25000000       0.031
   0.25000000  0.00000000  0.25000000       0.062
   0.50000000  0.00000000  0.25000000       0.031
   0.00000000  0.25000000  0.25000000       0.062
   0.25000000  0.25000000  0.25000000       0.125
   0.50000000  0.25000000  0.25000000       0.062
   0.00000000  0.50000000  0.25000000       0.031
   0.25000000  0.50000000  0.25000000       0.062
   0.50000000  0.50000000  0.25000000       0.031
   0.00000000  0.00000000  0.50000000       0.016
   0.25000000  0.00000000  0.50000000       0.031
   0.50000000  0.00000000  0.50000000       0.016
   0.00000000  0.25000000  0.50000000       0.031
   0.25000000  0.25000000  0.50000000       0.062
   0.50000000  0.25000000  0.50000000       0.031
   0.00000000  0.50000000  0.50000000       0.016
   0.25000000  0.50000000  0.50000000       0.031
   0.50000000  0.50000000  0.50000000       0.016
 
 position of ions in fractional coordinates (direct lattice) 
   0.07739566  0.79577734  0.15401591
   0.92260436  0.20422266  0.84598412
   0.92260436  0.70422266  0.65401588
   0.07739566  0.29577734  0.34598409
   0.92260436  0.29577734  0.34598409
   0.07739566  0.70422266  0.65401588
   0.07739566  0.20422266  0.84598412
   0.92260436  0.79577734  0.15401591
   0.57739564  0.29577734  0.15401591
   0.42260433  0.70422266  0.84598412
   0.42260433  0.20422266  0.65401588
   0.57739564  0.79577734  0.34598409
   0.42260433  0.79577734  0.34598409
   0.57739564  0.20422266  0.65401588
   0.57739564  0.70422266  0.84598412
   0.42260433  0.29577734  0.15401591
   0.80468429  0.58490486  0.92910303
   0.19531571  0.41509514  0.07089697
   0.19531571  0.91509514  0.42910303
   0.80468429  0.08490486  0.57089697
   0.19531571  0.08490486  0.57089697
   0.80468429  0.91509514  0.42910303
   0.80468429  0.41509514  0.07089697
   0.19531571  0.58490486  0.92910303
   0.30468429  0.08490486  0.92910303
   0.69531571  0.91509514  0.07089697
   0.69531571  0.41509514  0.42910303
   0.30468429  0.58490486  0.57089697
   0.69531571  0.58490486  0.57089697
   0.30468429  0.41509514  0.42910303
   0.30468429  0.91509514  0.07089697
   0.69531571  0.08490486  0.92910303
   0.69518758  0.57086978  0.08525225
   0.30481242  0.42913022  0.91474775
   0.30481242  0.92913022  0.58525225
   0.69518758  0.07086978  0.41474775
   0.30481242  0.07086978  0.41474775
   0.69518758  0.92913022  0.58525225
   0.69518758  0.42913022  0.91474775
   0.30481242  0.57086978  0.08525225
   0.19518758  0.07086978  0.08525225
   0.80481242  0.92913022  0.91474775
   0.80481242  0.42913022  0.58525225
   0.19518758  0.57086978  0.41474775
   0.80481242  0.57086978  0.41474775
   0.19518758  0.42913022  0.58525225
   0.19518758  0.92913022  0.91474775
   0.80481242  0.07086978  0.08525225
   0.00000000  0.60401745  0.15830000
   0.00000000  0.39598255  0.84169997
   0.00000000  0.89598255  0.65830003
   0.00000000  0.10401745  0.34170000
   0.50000000  0.10401745  0.15830000
   0.50000000  0.89598255  0.84169997
   0.50000000  0.39598255  0.65830003
   0.50000000  0.60401745  0.34170000
   0.00000000  0.26421806  0.66360693
   0.00000000  0.73578194  0.33639307
   0.00000000  0.23578194  0.16360693
   0.00000000  0.76421806  0.83639307
   0.50000000  0.76421806  0.66360693
   0.50000000  0.23578194  0.33639307
   0.50000000  0.73578194  0.16360693
   0.50000000  0.26421806  0.83639307
   0.00000000  0.23287517  0.29933902
   0.00000000  0.76712483  0.70066096
   0.00000000  0.26712483  0.79933904
   0.00000000  0.73287517  0.20066096
   0.50000000  0.73287517  0.29933902
   0.50000000  0.26712483  0.70066096
   0.50000000  0.76712483  0.79933904
   0.50000000  0.23287517  0.20066096
   0.74984751  0.50000000  0.00000000
   0.25015249  0.50000000  0.00000000
   0.25015249  0.00000000  0.50000000
   0.74984751  0.00000000  0.50000000
   0.24984751  0.00000000  0.00000000
   0.75015249  0.00000000  0.00000000
   0.75015249  0.50000000  0.50000000
   0.24984751  0.50000000  0.50000000
 
 position of ions in cartesian coordinates  (Angst):
   0.89389406  6.42878258  1.24346122
  10.65577198  1.64983723  6.83012845
  10.65577198  5.68914713  5.28025570
   0.89389406  2.38947268  2.79333350
  10.65577198  2.38947268  2.79333350
   0.89389406  5.68914713  5.28025570
   0.89389406  1.64983723  6.83012845
  10.65577198  6.42878258  1.24346122
   6.66872670  2.38947268  1.24346122
   4.88093875  5.68914713  6.83012845
   4.88093875  1.64983723  5.28025570
   6.66872670  6.42878258  2.79333350
   4.88093875  6.42878258  2.79333350
   6.66872670  1.64983723  5.28025570
   6.66872670  5.68914713  6.83012845
   4.88093875  2.38947268  1.24346122
   9.29383466  4.72522395  7.50119641
   2.25583112  3.35339586  0.57239302
   2.25583112  7.39270576  3.46440170
   9.29383466  0.68591405  4.60918773
   2.25583112  0.68591405  4.60918773
   9.29383466  7.39270576  3.46440170
   9.29383466  3.35339586  0.57239302
   2.25583112  4.72522395  7.50119641
   3.51900177  0.68591405  7.50119641
   8.03066402  7.39270576  0.57239302
   8.03066402  3.35339586  3.46440170
   3.51900177  4.72522395  4.60918773
   8.03066402  4.72522395  4.60918773
   3.51900177  3.35339586  3.46440170
   3.51900177  7.39270576  0.57239302
   8.03066402  0.68591405  7.50119641
   8.02918416  4.61183988  0.68829169
   3.52048163  3.46677993  7.38529774
   3.52048163  7.50608984  4.72508640
   8.02918416  0.57252997  3.34850302
   3.52048163  0.57252997  3.34850302
   8.02918416  7.50608984  4.72508640
   8.02918416  3.46677993  7.38529774
   3.52048163  4.61183988  0.68829169
   2.25435126  0.57252997  0.68829169
   9.29531453  7.50608984  7.38529774
   9.29531453  3.46677993  4.72508640
   2.25435126  4.61183988  3.34850302
   9.29531453  4.61183988  3.34850302
   2.25435126  3.46677993  4.72508640
   2.25435126  7.50608984  7.38529774
   9.29531453  0.57252997  0.68829169
   0.00000000  4.87962737  1.27804921
   0.00000000  3.19899244  6.79553998
   0.00000000  7.23830234  5.31484416
   0.00000000  0.84031746  2.75874551
   5.77483289  0.84031746  1.27804921
   5.77483289  7.23830234  6.79553998
   5.77483289  3.19899244  5.31484416
   5.77483289  4.87962737  2.75874551
   0.00000000  2.13451729  5.35768992
   0.00000000  5.94410252  2.71589951
   0.00000000  1.90479261  1.32089520
   0.00000000  6.17382719  6.75269423
   5.77483289  6.17382719  5.35768992
   5.77483289  1.90479261  2.71589951
   5.77483289  5.94410252  1.32089520
   5.77483289  2.13451729  6.75269423
   0.00000000  1.88130994  2.41674039
   0.00000000  6.19730987  5.65684892
   0.00000000  2.15799996  6.45353522
   0.00000000  5.92061984  1.62005421
   5.77483289  5.92061984  2.41674039
   5.77483289  2.15799996  5.65684892
   5.77483289  6.19730987  6.45353522
   5.77483289  1.88130994  1.62005421
   8.66048810  4.03930990  0.00000000
   2.88917768  4.03930990  0.00000000
   2.88917768  0.00000000  4.03679471
   8.66048810  0.00000000  4.03679471
   2.88565521  0.00000000  0.00000000
   8.66401058  0.00000000  0.00000000
   8.66401058  4.03930990  4.03679471
   2.88565521  4.03930990  4.03679471
 


--------------------------------------------------------------------------------------------------------


 k-point  1 :   0.0000 0.0000 0.0000  plane waves:   25051
 k-point  2 :   0.2500 0.0000 0.0000  plane waves:   25098
 k-point  3 :   0.5000 0.0000 0.0000  plane waves:   25126
 k-point  4 :   0.0000 0.2500 0.0000  plane waves:   25126
 k-point  5 :   0.2500 0.2500 0.0000  plane waves:   25156
 k-point  6 :   0.5000 0.2500 0.0000  plane waves:   25138
 k-point  7 :   0.0000 0.5000 0.0000  plane waves:   25140
 k-point  8 :   0.2500 0.5000 0.0000  plane waves:   25170
 k-point  9 :   0.5000 0.5000 0.0000  plane waves:   25136
 k-point 10 :   0.0000 0.0000 0.2500  plane waves:   25136
 k-point 11 :   0.2500 0.0000 0.2500  plane waves:   25156
 k-point 12 :   0.5000 0.0000 0.2500  plane waves:   25140
 k-point 13 :   0.0000 0.2500 0.2500  plane waves:   25130
 k-point 14 :   0.2500 0.2500 0.2500  plane waves:   25163
 k-point 15 :   0.5000 0.2500 0.2500  plane waves:   25150
 k-point 16 :   0.0000 0.5000 0.2500  plane waves:   25152
 k-point 17 :   0.2500 0.5000 0.2500  plane waves:   25122
 k-point 18 :   0.5000 0.5000 0.2500  plane waves:   25140
 k-point 19 :   0.0000 0.0000 0.5000  plane waves:   25148
 k-point 20 :   0.2500 0.0000 0.5000  plane waves:   25158
 k-point 21 :   0.5000 0.0000 0.5000  plane waves:   25136
 k-point 22 :   0.0000 0.2500 0.5000  plane waves:   25138
 k-point 23 :   0.2500 0.2500 0.5000  plane waves:   25116
 k-point 24 :   0.5000 0.2500 0.5000  plane waves:   25144
 k-point 25 :   0.0000 0.5000 0.5000  plane waves:   25188
 k-point 26 :   0.2500 0.5000 0.5000  plane waves:   25172
 k-point 27 :   0.5000 0.5000 0.5000  plane waves:   25152

 maximum and minimum number of plane-waves per node :     12614    12496

 maximum number of plane-waves:     25188
 maximum index in each direction: 
   IXMAX=   23   IYMAX=   16   IZMAX=   16
   IXMIN=  -23   IYMIN=  -16   IZMIN=  -16

 WARNING: aliasing errors must be expected set NGX to  94 to avoid them
 WARNING: aliasing errors must be expected set NGY to  66 to avoid them
 WARNING: aliasing errors must be expected set NGZ to  66 to avoid them
 aliasing errors are usually negligible using standard VASP settings
 and one can safely disregard these warnings

 parallel 3D FFT for wavefunctions:
    minimum data exchange during FFTs selected (reduces bandwidth)
 parallel 3D FFT for charge:
    minimum data exchange during FFTs selected (reduces bandwidth)


 total amount of memory used by VASP on root node   418389. kBytes
========================================================================

   base      :      30000. kBytes
   nonl-proj :      59645. kBytes
   fftplans  :      13558. kBytes
   grid      :      21584. kBytes
   one-center:        122. kBytes
   wavefun   :     293480. kBytes
 
     INWAV:  cpu time    0.00: real time    0.00
 Broyden mixing: mesh for mixing (old mesh)
   NGX = 47   NGY = 33   NGZ = 33
  (NGX  =140   NGY  = 96   NGZ  = 96)
  gives a total of  51183 points

 initial charge density was supplied:
 charge density of overlapping atoms calculated
 number of electron     128.0000000 magnetization 
 keeping initial charge density in first step


--------------------------------------------------------------------------------------------------------


 Maximum index for augmentation-charges          628 (set IRDMAX)


--------------------------------------------------------------------------------------------------------


 First call to EWALD:  gamma=   0.195
 Maximum number of real-space cells 2x 3x 3
 Maximum number of reciprocal cells 3x 2x 2

 FEWALD executed in parallel
    FEWALD:  cpu time    0.01: real time    0.01


----------------------------------------- Iteration    1(   1)  ---------------------------------------


    POTLOK:  cpu time    0.28: real time    0.28
    SETDIJ:  cpu time    0.04: real time    0.04
     EDDAV:  cpu time  124.83: real time  124.90
 BZINTS: Fermi energy:  6.256430;128.000000 electrons
         Band energy:-683.199379;  BLOECHL correction: -0.041131
       DOS:  cpu time    0.04: real time    0.05
    --------------------------------------------
      LOOP:  cpu time  125.19: real time  125.27

 eigenvalue-minimisations  :  5724
 total energy-change (2. order) : 0.4323857E+03  (-0.5585707E+04)
 number of electron     128.0000000 magnetization 
 augmentation part      128.0000000 magnetization 

 Free energy of the ion-electron system (eV)
  ---------------------------------------------------
  alpha Z        PSCENC =        81.87236959
  Ewald energy   TEWEN  =     -1368.26875629
  -Hartree energ DENC   =     -1100.97398678
  -exchange      EXHF   =         0.00000000
  -V(xc)+E(xc)   XCENC  =       368.30372421
  PAW double counting   =       655.30793496     -674.29210410
  entropy T*S    EENTRO =         0.00000000
  eigenvalues    EBANDS =      -683.19937947
  atomic energy  EATOM  =      3153.63586372
  ---------------------------------------------------
  free energy    TOTEN  =       432.38566585 eV

  energy without entropy =      432.38566585  energy(sigma->0) =      432.38566585


--------------------------------------------------------------------------------------------------------




----------------------------------------- Iteration    1(   2)  ---------------------------------------


     EDDAV:  cpu time  143.93: real time  144.00
 BZINTS: Fermi energy: -6.802279;128.000000 electrons
         Band energy:***********;  BLOECHL correction:  0.000000
       DOS:  cpu time    0.01: real time    0.01
    --------------------------------------------
      LOOP:  cpu time  143.95: real time  144.02

 eigenvalue-minimisations  :  6790
 total energy-change (2. order) :-0.7886252E+03  (-0.7657430E+03)
 number of electron     128.0000000 magnetization 
 augmentation part      128.0000000 magnetization 

 Free energy of the ion-electron system (eV)
  ---------------------------------------------------
  alpha Z        PSCENC =        81.87236959
  Ewald energy   TEWEN  =     -1368.26875629
  -Hartree energ DENC   =     -1100.97398678
  -exchange      EXHF   =         0.00000000
  -V(xc)+E(xc)   XCENC  =       368.30372421
  PAW double counting   =       655.30793496     -674.29210410
  entropy T*S    EENTRO =         0.00000000
  eigenvalues    EBANDS =     -1471.82462499
  atomic energy  EATOM  =      3153.63586372
  ---------------------------------------------------
  free energy    TOTEN  =      -356.23957968 eV

  energy without entropy =     -356.23957968  energy(sigma->0) =     -356.23957968


--------------------------------------------------------------------------------------------------------




----------------------------------------- Iteration    1(   3)  ---------------------------------------


     EDDAV:  cpu time  152.60: real time  152.67
 BZINTS: Fermi energy: -9.658494;128.000000 electrons
         Band energy:***********;  BLOECHL correction:  0.000000
       DOS:  cpu time    0.01: real time    0.01
    --------------------------------------------
      LOOP:  cpu time  152.60: real time  152.69

 eigenvalue-minimisations  :  7328
 total energy-change (2. order) :-0.7623747E+02  (-0.7579183E+02)
 number of electron     128.0000000 magnetization 
 augmentation part      128.0000000 magnetization 

 Free energy of the ion-electron system (eV)
  ---------------------------------------------------
  alpha Z        PSCENC =        81.87236959
  Ewald energy   TEWEN  =     -1368.26875629
  -Hartree energ DENC   =     -1100.97398678
  -exchange      EXHF   =         0.00000000
  -V(xc)+E(xc)   XCENC  =       368.30372421
  PAW double counting   =       655.30793496     -674.29210410
  entropy T*S    EENTRO =         0.00000000
  eigenvalues    EBANDS =     -1548.06209974
  atomic energy  EATOM  =      3153.63586372
  ---------------------------------------------------
  free energy    TOTEN  =      -432.47705442 eV

  energy without entropy =     -432.47705442  energy(sigma->0) =     -432.47705442


--------------------------------------------------------------------------------------------------------




----------------------------------------- Iteration    1(   4)  ---------------------------------------


     EDDAV:  cpu time  147.64: real time  147.71
 BZINTS: Fermi energy: -9.721972;128.000000 electrons
         Band energy:***********;  BLOECHL correction:  0.000000
       DOS:  cpu time    0.01: real time    0.01
    --------------------------------------------
      LOOP:  cpu time  147.65: real time  147.73

 eigenvalue-minimisations  :  7232
 total energy-change (2. order) :-0.1973131E+01  (-0.1970157E+01)
 number of electron     128.0000000 magnetization 
 augmentation part      128.0000000 magnetization 

 Free energy of the ion-electron system (eV)
  ---------------------------------------------------
  alpha Z        PSCENC =        81.87236959
  Ewald energy   TEWEN  =     -1368.26875629
  -Hartree energ DENC   =     -1100.97398678
  -exchange      EXHF   =         0.00000000
  -V(xc)+E(xc)   XCENC  =       368.30372421
  PAW double counting   =       655.30793496     -674.29210410
  entropy T*S    EENTRO =         0.00000000
  eigenvalues    EBANDS =     -1550.03523082
  atomic energy  EATOM  =      3153.63586372
  ---------------------------------------------------
  free energy    TOTEN  =      -434.45018550 eV

  energy without entropy =     -434.45018550  energy(sigma->0) =     -434.45018550


--------------------------------------------------------------------------------------------------------




----------------------------------------- Iteration    1(   5)  ---------------------------------------


     EDDAV:  cpu time  157.22: real time  157.30
 BZINTS: Fermi energy: -9.708538;128.000000 electrons
         Band energy:***********;  BLOECHL correction:  0.000000
       DOS:  cpu time    0.01: real time    0.01
    CHARGE:  cpu time    1.95: real time    1.95
    MIXING:  cpu time    0.01: real time    0.01
    --------------------------------------------
      LOOP:  cpu time  159.18: real time  159.27

 eigenvalue-minimisations  :  7376
 total energy-change (2. order) :-0.4578296E-01  (-0.4576945E-01)
 number of electron     128.0000069 magnetization 
 augmentation part        3.6228740 magnetization 

 Broyden mixing:
  rms(total) = 0.33641E+01    rms(broyden)= 0.33639E+01
  rms(prec ) = 0.44877E+01
  weight for this iteration     100.00

 Free energy of the ion-electron system (eV)
  ---------------------------------------------------
  alpha Z        PSCENC =        81.87236959
  Ewald energy   TEWEN  =     -1368.26875629
  -Hartree energ DENC   =     -1100.97398678
  -exchange      EXHF   =         0.00000000
  -V(xc)+E(xc)   XCENC  =       368.30372421
  PAW double counting   =       655.30793496     -674.29210410
  entropy T*S    EENTRO =         0.00000000
  eigenvalues    EBANDS =     -1550.08101377
  atomic energy  EATOM  =      3153.63586372
  ---------------------------------------------------
  free energy    TOTEN  =      -434.49596846 eV

  energy without entropy =     -434.49596846  energy(sigma->0) =     -434.49596846


--------------------------------------------------------------------------------------------------------




----------------------------------------- Iteration    1(   6)  ---------------------------------------


    POTLOK:  cpu time    0.29: real time    0.29
    SETDIJ:  cpu time    0.04: real time    0.04
     EDDAV:  cpu time  138.18: real time  138.25
 BZINTS: Fermi energy: -7.399640;128.000000 electrons
         Band energy:***********;  BLOECHL correction:  0.000000
       DOS:  cpu time    0.01: real time    0.01
    CHARGE:  cpu time    2.14: real time    2.15
    MIXING:  cpu time    0.01: real time    0.01
    --------------------------------------------
      LOOP:  cpu time  140.67: real time  140.75

 eigenvalue-minimisations  :  6230
 total energy-change (2. order) : 0.4407133E+02  (-0.8746263E+01)
 number of electron     128.0000067 magnetization 
 augmentation part        3.1368844 magnetization 

 Broyden mixing:
  rms(total) = 0.14235E+01    rms(broyden)= 0.14235E+01
  rms(prec ) = 0.17617E+01
  weight for this iteration     100.00

 eigenvalues of (default mixing * dielectric matrix)
  average eigenvalue GAMMA=   1.2758
  1.2758

 Free energy of the ion-electron system (eV)
  ---------------------------------------------------
  alpha Z        PSCENC =        81.87236959
  Ewald energy   TEWEN  =     -1368.26875629
  -Hartree energ DENC   =     -1360.20265434
  -exchange      EXHF   =         0.00000000
  -V(xc)+E(xc)   XCENC  =       388.08025730
  PAW double counting   =      1097.53371557    -1119.90224830
  entropy T*S    EENTRO =         0.00000000
  eigenvalues    EBANDS =     -1263.17318385
  atomic energy  EATOM  =      3153.63586372
  ---------------------------------------------------
  free energy    TOTEN  =      -390.42463660 eV

  energy without entropy =     -390.42463660  energy(sigma->0) =     -390.42463660


--------------------------------------------------------------------------------------------------------




----------------------------------------- Iteration    1(   7)  ---------------------------------------


    POTLOK:  cpu time    0.29: real time    0.29
    SETDIJ:  cpu time    0.04: real time    0.04
     EDDAV:  cpu time  149.48: real time  149.56
 BZINTS: Fermi energy: -6.514033;128.000000 electrons
         Band energy:***********;  BLOECHL correction:  0.000000
       DOS:  cpu time    0.01: real time    0.01
    CHARGE:  cpu time    2.15: real time    2.15
    MIXING:  cpu time    0.01: real time    0.01
    --------------------------------------------
      LOOP:  cpu time  151.98: real time  152.06

 eigenvalue-minimisations  :  6918
 total energy-change (2. order) : 0.4649872E+01  (-0.1201319E+01)
 number of electron     128.0000067 magnetization 
 augmentation part        3.0258958 magnetization 

 Broyden mixing:
  rms(total) = 0.80782E+00    rms(broyden)= 0.80779E+00
  rms(prec ) = 0.93879E+00
  weight for this iteration     100.00

 eigenvalues of (default mixing * dielectric matrix)
  average eigenvalue GAMMA=   2.0557
  1.3200  2.7915

 Free energy of the ion-electron system (eV)
  ---------------------------------------------------
  alpha Z        PSCENC =        81.87236959
  Ewald energy   TEWEN  =     -1368.26875629
  -Hartree energ DENC   =     -1476.96131940
  -exchange      EXHF   =         0.00000000
  -V(xc)+E(xc)   XCENC  =       398.89916774
  PAW double counting   =      1325.72675727    -1348.69257233
  entropy T*S    EENTRO =         0.00000000
  eigenvalues    EBANDS =     -1151.98627506
  atomic energy  EATOM  =      3153.63586372
  ---------------------------------------------------
  free energy    TOTEN  =      -385.77476475 eV

  energy without entropy =     -385.77476475  energy(sigma->0) =     -385.77476475


--------------------------------------------------------------------------------------------------------




----------------------------------------- Iteration    1(   8)  ---------------------------------------


    POTLOK:  cpu time    0.29: real time    0.29
    SETDIJ:  cpu time    0.03: real time    0.04
     EDDAV:  cpu time  148.12: real time  148.19
 BZINTS: Fermi energy: -6.045206;128.000000 electrons
         Band energy:***********;  BLOECHL correction:  0.000000
       DOS:  cpu time    0.01: real time    0.01
    CHARGE:  cpu time    1.96: real time    1.96
    MIXING:  cpu time    0.01: real time    0.01
    --------------------------------------------
      LOOP:  cpu time  150.42: real time  150.50

 eigenvalue-minimisations  :  6824
 total energy-change (2. order) : 0.9642044E+00  (-0.3227470E+00)
 number of electron     128.0000066 magnetization 
 augmentation part        3.0161897 magnetization 

 Broyden mixing:
  rms(total) = 0.26918E+00    rms(broyden)= 0.26918E+00
  rms(prec ) = 0.31616E+00
  weight for this iteration     100.00

 eigenvalues of (default mixing * dielectric matrix)
  average eigenvalue GAMMA=   1.4625
  2.5058  1.2798  0.6021

 Free energy of the ion-electron system (eV)
  ---------------------------------------------------
  alpha Z        PSCENC =        81.87236959
  Ewald energy   TEWEN  =     -1368.26875629
  -Hartree energ DENC   =     -1536.77407319
  -exchange      EXHF   =         0.00000000
  -V(xc)+E(xc)   XCENC  =       407.80317628
  PAW double counting   =      1455.63436321    -1477.93117876
  entropy T*S    EENTRO =         0.00000000
  eigenvalues    EBANDS =     -1100.78232487
  atomic energy  EATOM  =      3153.63586372
  ---------------------------------------------------
  free energy    TOTEN  =      -384.81056030 eV

  energy without entropy =     -384.81056030  energy(sigma->0) =     -384.81056030


--------------------------------------------------------------------------------------------------------




----------------------------------------- Iteration    1(   9)  ---------------------------------------


    POTLOK:  cpu time    0.29: real time    0.29
    SETDIJ:  cpu time    0.03: real time    0.04
     EDDAV:  cpu time  155.16: real time  155.24
 BZINTS: Fermi energy: -6.061021;128.000000 electrons
         Band energy:***********;  BLOECHL correction:  0.000000
       DOS:  cpu time    0.01: real time    0.01
    CHARGE:  cpu time    1.95: real time    1.95
    MIXING:  cpu time    0.01: real time    0.01
    --------------------------------------------
      LOOP:  cpu time  157.46: real time  157.54

 eigenvalue-minimisations  :  7228
 total energy-change (2. order) : 0.1321444E+00  (-0.1898826E-01)
 number of electron     128.0000066 magnetization 
 augmentation part        3.0138295 magnetization 

 Broyden mixing:
  rms(total) = 0.10779E+00    rms(broyden)= 0.10779E+00
  rms(prec ) = 0.12883E+00
  weight for this iteration     100.00

 eigenvalues of (default mixing * dielectric matrix)
  average eigenvalue GAMMA=   1.6304
  2.2275  2.0850  0.9544  1.2547

 Free energy of the ion-electron system (eV)
  ---------------------------------------------------
  alpha Z        PSCENC =        81.87236959
  Ewald energy   TEWEN  =     -1368.26875629
  -Hartree energ DENC   =     -1536.63835065
  -exchange      EXHF   =         0.00000000
  -V(xc)+E(xc)   XCENC  =       407.18769413
  PAW double counting   =      1448.95762924    -1471.40518168
  entropy T*S    EENTRO =         0.00000000
  eigenvalues    EBANDS =     -1100.01968393
  atomic energy  EATOM  =      3153.63586372
  ---------------------------------------------------
  free energy    TOTEN  =      -384.67841587 eV

  energy without entropy =     -384.67841587  energy(sigma->0) =     -384.67841587


--------------------------------------------------------------------------------------------------------




----------------------------------------- Iteration    1(  10)  ---------------------------------------


    POTLOK:  cpu time    0.29: real time    0.29
    SETDIJ:  cpu time    0.03: real time    0.04
     EDDAV:  cpu time  140.16: real time  140.23
 BZINTS: Fermi energy: -6.040017;128.000000 electrons
         Band energy:***********;  BLOECHL correction:  0.000000
       DOS:  cpu time    0.01: real time    0.01
    CHARGE:  cpu time    1.95: real time    1.95
    MIXING:  cpu time    0.01: real time    0.01
    --------------------------------------------
      LOOP:  cpu time  142.45: real time  142.53

 eigenvalue-minimisations  :  6342
 total energy-change (2. order) :-0.7435936E-02  (-0.2664010E-01)
 number of electron     128.0000066 magnetization 
 augmentation part        2.9952062 magnetization 

 Broyden mixing:
  rms(total) = 0.50679E-01    rms(broyden)= 0.50673E-01
  rms(prec ) = 0.63433E-01
  weight for this iteration     100.00

 eigenvalues of (default mixing * dielectric matrix)
  average eigenvalue GAMMA=   1.6591
  2.6713  2.6713  1.0578  1.0578  0.8372

 Free energy of the ion-electron system (eV)
  ---------------------------------------------------
  alpha Z        PSCENC =        81.87236959
  Ewald energy   TEWEN  =     -1368.26875629
  -Hartree energ DENC   =     -1542.83083902
  -exchange      EXHF   =         0.00000000
  -V(xc)+E(xc)   XCENC  =       407.36845538
  PAW double counting   =      1446.74411265    -1469.33995973
  entropy T*S    EENTRO =         0.00000000
  eigenvalues    EBANDS =     -1093.86709811
  atomic energy  EATOM  =      3153.63586372
  ---------------------------------------------------
  free energy    TOTEN  =      -384.68585181 eV

  energy without entropy =     -384.68585181  energy(sigma->0) =     -384.68585181


--------------------------------------------------------------------------------------------------------




----------------------------------------- Iteration    1(  11)  ---------------------------------------


    POTLOK:  cpu time    0.29: real time    0.29
    SETDIJ:  cpu time    0.04: real time    0.04
     EDDAV:  cpu time  139.75: real time  139.82
 BZINTS: Fermi energy: -6.059263;128.000000 electrons
         Band energy:***********;  BLOECHL correction:  0.000000
       DOS:  cpu time    0.01: real time    0.01
    CHARGE:  cpu time    1.96: real time    1.96
    MIXING:  cpu time    0.01: real time    0.01
    --------------------------------------------
      LOOP:  cpu time  142.05: real time  142.13

 eigenvalue-minimisations  :  6352
 total energy-change (2. order) : 0.3750023E-02  (-0.2453208E-02)
 number of electron     128.0000066 magnetization 
 augmentation part        3.0012936 magnetization 

 Broyden mixing:
  rms(total) = 0.12248E-01    rms(broyden)= 0.12248E-01
  rms(prec ) = 0.14046E-01
  weight for this iteration     100.00

 eigenvalues of (default mixing * dielectric matrix)
  average eigenvalue GAMMA=   1.5527
  2.9474  2.3588  1.1985  0.9124  0.9497  0.9497

 Free energy of the ion-electron system (eV)
  ---------------------------------------------------
  alpha Z        PSCENC =        81.87236959
  Ewald energy   TEWEN  =     -1368.26875629
  -Hartree energ DENC   =     -1540.40068708
  -exchange      EXHF   =         0.00000000
  -V(xc)+E(xc)   XCENC  =       407.27680099
  PAW double counting   =      1439.35180874    -1461.87790723
  entropy T*S    EENTRO =         0.00000000
  eigenvalues    EBANDS =     -1096.27159424
  atomic energy  EATOM  =      3153.63586372
  ---------------------------------------------------
  free energy    TOTEN  =      -384.68210179 eV

  energy without entropy =     -384.68210179  energy(sigma->0) =     -384.68210179


--------------------------------------------------------------------------------------------------------




----------------------------------------- Iteration    1(  12)  ---------------------------------------


    POTLOK:  cpu time    0.29: real time    0.29
    SETDIJ:  cpu time    0.03: real time    0.04
     EDDAV:  cpu time  152.95: real time  153.03
 BZINTS: Fermi energy: -6.056013;128.000000 electrons
         Band energy:***********;  BLOECHL correction:  0.000000
       DOS:  cpu time    0.01: real time    0.01
    CHARGE:  cpu time    1.95: real time    1.95
    MIXING:  cpu time    0.01: real time    0.01
    --------------------------------------------
      LOOP:  cpu time  155.26: real time  155.34

 eigenvalue-minimisations  :  7112
 total energy-change (2. order) :-0.2489409E-03  (-0.2025570E-03)
 number of electron     128.0000066 magnetization 
 augmentation part        3.0010099 magnetization 

 Broyden mixing:
  rms(total) = 0.64409E-02    rms(broyden)= 0.64407E-02
  rms(prec ) = 0.82479E-02
  weight for this iteration     100.00

 eigenvalues of (default mixing * dielectric matrix)
  average eigenvalue GAMMA=   1.6319
  2.7741  2.7741  1.8933  1.1170  1.1170  0.8739  0.8739

 Free energy of the ion-electron system (eV)
  ---------------------------------------------------
  alpha Z        PSCENC =        81.87236959
  Ewald energy   TEWEN  =     -1368.26875629
  -Hartree energ DENC   =     -1541.19833474
  -exchange      EXHF   =         0.00000000
  -V(xc)+E(xc)   XCENC  =       407.36816612
  PAW double counting   =      1441.07618398    -1463.59532054
  entropy T*S    EENTRO =         0.00000000
  eigenvalues    EBANDS =     -1095.57252256
  atomic energy  EATOM  =      3153.63586372
  ---------------------------------------------------
  free energy    TOTEN  =      -384.68235073 eV

  energy without entropy =     -384.68235073  energy(sigma->0) =     -384.68235073


--------------------------------------------------------------------------------------------------------




----------------------------------------- Iteration    1(  13)  ---------------------------------------


    POTLOK:  cpu time    0.28: real time    0.28
    SETDIJ:  cpu time    0.04: real time    0.04
     EDDAV:  cpu time  138.95: real time  139.02
 BZINTS: Fermi energy: -6.059508;128.000000 electrons
         Band energy:***********;  BLOECHL correction:  0.000000
       DOS:  cpu time    0.01: real time    0.01
    CHARGE:  cpu time    2.14: real time    2.14
    MIXING:  cpu time    0.01: real time    0.01
    --------------------------------------------
      LOOP:  cpu time  141.43: real time  141.51

 eigenvalue-minimisations  :  6300
 total energy-change (2. order) : 0.4040831E-04  (-0.3545022E-04)
 number of electron     128.0000066 magnetization 
 augmentation part        3.0018875 magnetization 

 Broyden mixing:
  rms(total) = 0.25947E-02    rms(broyden)= 0.25945E-02
  rms(prec ) = 0.30785E-02
  weight for this iteration     100.00

 eigenvalues of (default mixing * dielectric matrix)
  average eigenvalue GAMMA=   1.6601
  3.1305  2.5283  2.1534  1.5472  1.0771  1.0771  0.8838  0.8838

 Free energy of the ion-electron system (eV)
  ---------------------------------------------------
  alpha Z        PSCENC =        81.87236959
  Ewald energy   TEWEN  =     -1368.26875629
  -Hartree energ DENC   =     -1540.66704101
  -exchange      EXHF   =         0.00000000
  -V(xc)+E(xc)   XCENC  =       407.31657408
  PAW double counting   =      1440.12349291    -1462.63020221
  entropy T*S    EENTRO =         0.00000000
  eigenvalues    EBANDS =     -1096.06461111
  atomic energy  EATOM  =      3153.63586372
  ---------------------------------------------------
  free energy    TOTEN  =      -384.68231032 eV

  energy without entropy =     -384.68231032  energy(sigma->0) =     -384.68231032


--------------------------------------------------------------------------------------------------------




----------------------------------------- Iteration    1(  14)  ---------------------------------------


    POTLOK:  cpu time    0.29: real time    0.29
    SETDIJ:  cpu time    0.03: real time    0.04
     EDDAV:  cpu time  150.05: real time  150.12
 BZINTS: Fermi energy: -6.060326;128.000000 electrons
         Band energy:***********;  BLOECHL correction:  0.000000
       DOS:  cpu time    0.01: real time    0.01
    CHARGE:  cpu time    1.95: real time    1.95
    MIXING:  cpu time    0.01: real time    0.02
    --------------------------------------------
      LOOP:  cpu time  152.35: real time  152.43

 eigenvalue-minimisations  :  6904
 total energy-change (2. order) :-0.6243661E-05  (-0.1651472E-04)
 number of electron     128.0000066 magnetization 
 augmentation part        3.0022621 magnetization 

 Broyden mixing:
  rms(total) = 0.10018E-02    rms(broyden)= 0.10015E-02
  rms(prec ) = 0.12518E-02
  weight for this iteration     100.00

 eigenvalues of (default mixing * dielectric matrix)
  average eigenvalue GAMMA=   1.6510
  3.1764  2.8013  2.3642  1.3169  1.3169  1.0737  1.0737  0.8678  0.8678

 Free energy of the ion-electron system (eV)
  ---------------------------------------------------
  alpha Z        PSCENC =        81.87236959
  Ewald energy   TEWEN  =     -1368.26875629
  -Hartree energ DENC   =     -1540.58985534
  -exchange      EXHF   =         0.00000000
  -V(xc)+E(xc)   XCENC  =       407.31855291
  PAW double counting   =      1440.10434126    -1462.60563498
  entropy T*S    EENTRO =         0.00000000
  eigenvalues    EBANDS =     -1096.14919743
  atomic energy  EATOM  =      3153.63586372
  ---------------------------------------------------
  free energy    TOTEN  =      -384.68231656 eV

  energy without entropy =     -384.68231656  energy(sigma->0) =     -384.68231656


--------------------------------------------------------------------------------------------------------




----------------------------------------- Iteration    1(  15)  ---------------------------------------


    POTLOK:  cpu time    0.29: real time    0.29
    SETDIJ:  cpu time    0.03: real time    0.04
     EDDAV:  cpu time  153.12: real time  153.20
 BZINTS: Fermi energy: -6.060243;128.000000 electrons
         Band energy:***********;  BLOECHL correction:  0.000000
       DOS:  cpu time    0.01: real time    0.01
    CHARGE:  cpu time    1.94: real time    1.95
    MIXING:  cpu time    0.02: real time    0.02
    --------------------------------------------
      LOOP:  cpu time  155.42: real time  155.50

 eigenvalue-minimisations  :  7142
 total energy-change (2. order) : 0.1889158E-05  (-0.9479765E-06)
 number of electron     128.0000066 magnetization 
 augmentation part        3.0021541 magnetization 

 Broyden mixing:
  rms(total) = 0.29840E-03    rms(broyden)= 0.29839E-03
  rms(prec ) = 0.34405E-03
  weight for this iteration     100.00

 eigenvalues of (default mixing * dielectric matrix)
  average eigenvalue GAMMA=   1.5991
  3.1884  2.8326  2.3395  1.4863  1.4863  1.0683  1.0683  0.8741  0.8741  0.7733

 Free energy of the ion-electron system (eV)
  ---------------------------------------------------
  alpha Z        PSCENC =        81.87236959
  Ewald energy   TEWEN  =     -1368.26875629
  -Hartree energ DENC   =     -1540.64241526
  -exchange      EXHF   =         0.00000000
  -V(xc)+E(xc)   XCENC  =       407.32110760
  PAW double counting   =      1440.23057245    -1462.73320851
  entropy T*S    EENTRO =         0.00000000
  eigenvalues    EBANDS =     -1096.09784798
  atomic energy  EATOM  =      3153.63586372
  ---------------------------------------------------
  free energy    TOTEN  =      -384.68231467 eV

  energy without entropy =     -384.68231467  energy(sigma->0) =     -384.68231467


--------------------------------------------------------------------------------------------------------




----------------------------------------- Iteration    1(  16)  ---------------------------------------


    POTLOK:  cpu time    0.29: real time    0.29
    SETDIJ:  cpu time    0.03: real time    0.04
     EDDAV:  cpu time  105.77: real time  105.82
 BZINTS: Fermi energy: -6.060460;128.000000 electrons
         Band energy:***********;  BLOECHL correction:  0.000000
       DOS:  cpu time    0.01: real time    0.01
    --------------------------------------------
      LOOP:  cpu time  106.10: real time  106.16

 eigenvalue-minimisations  :  4338
 total energy-change (2. order) : 0.1692742E-06  (-0.4649549E-07)
 number of electron     128.0000066 magnetization 
 augmentation part        3.0021541 magnetization 

 Free energy of the ion-electron system (eV)
  ---------------------------------------------------
  alpha Z        PSCENC =        81.87236959
  Ewald energy   TEWEN  =     -1368.26875629
  -Hartree energ DENC   =     -1540.63843376
  -exchange      EXHF   =         0.00000000
  -V(xc)+E(xc)   XCENC  =       407.32056199
  PAW double counting   =      1440.22388247    -1462.72682519
  entropy T*S    EENTRO =         0.00000000
  eigenvalues    EBANDS =     -1096.10097705
  atomic energy  EATOM  =      3153.63586372
  ---------------------------------------------------
  free energy    TOTEN  =      -384.68231450 eV

  energy without entropy =     -384.68231450  energy(sigma->0) =     -384.68231450


--------------------------------------------------------------------------------------------------------




 average (electrostatic) potential at core
  the test charge radii are     0.5201  0.6991
  (the norm of the test charge is              1.0000)
       1 -38.8972       2 -38.8972       3 -38.8972       4 -38.8972       5 -38.8972
       6 -38.8972       7 -38.8972       8 -38.8972       9 -38.8972      10 -38.8972
      11 -38.8972      12 -38.8972      13 -38.8972      14 -38.8972      15 -38.8972
      16 -38.8972      17 -38.8797      18 -38.8797      19 -38.8797      20 -38.8797
      21 -38.8797      22 -38.8797      23 -38.8797      24 -38.8797      25 -38.8797
      26 -38.8797      27 -38.8797      28 -38.8797      29 -38.8797      30 -38.8797
      31 -38.8797      32 -38.8797      33 -38.8845      34 -38.8845      35 -38.8845
      36 -38.8845      37 -38.8845      38 -38.8845      39 -38.8845      40 -38.8845
      41 -38.8845      42 -38.8845      43 -38.8845      44 -38.8845      45 -38.8845
      46 -38.8845      47 -38.8845      48 -38.8845      49 -38.8844      50 -38.8844
      51 -38.8844      52 -38.8844      53 -38.8844      54 -38.8844      55 -38.8844
      56 -38.8844      57 -38.9246      58 -38.9246      59 -38.9246      60 -38.9246
      61 -38.9246      62 -38.9246      63 -38.9246      64 -38.9246      65 -55.2622
      66 -55.2622      67 -55.2622      68 -55.2622      69 -55.2622      70 -55.2622
      71 -55.2622      72 -55.2622      73 -55.2503      74 -55.2503      75 -55.2503
      76 -55.2503      77 -55.2503      78 -55.2503      79 -55.2503      80 -55.2503
 
 
 
 E-fermi :  -6.0605     XC(G=0):  -6.5895     alpha+bet : -4.4781


 k-point     1 :       0.0000    0.0000    0.0000
  band No.  band energies     occupation 
      1     -14.6981      2.00000
      2     -14.4303      2.00000
      3     -14.4084      2.00000
      4     -14.3161      2.00000
      5     -14.2961      2.00000
      6     -14.2884      2.00000
      7     -14.2601      2.00000
      8     -14.2576      2.00000
      9     -14.2507      2.00000
     10     -14.2495      2.00000
     11     -14.2436      2.00000
     12     -14.1434      2.00000
     13     -14.1231      2.00000
     14     -14.1190      2.00000
     15     -14.1070      2.00000
     16     -14.0874      2.00000
     17      -7.5313      2.00000
     18      -7.4698      2.00000
     19      -7.4066      2.00000
     20      -7.3899      2.00000
     21      -7.3838      2.00000
     22      -7.3555      2.00000
     23      -7.2271      2.00000
     24      -7.1995      2.00000
     25      -7.1462      2.00000
     26      -7.0130      2.00000
     27      -6.9983      2.00000
     28      -6.9919      2.00000
     29      -6.8986      2.00000
     30      -6.8776      2.00000
     31      -6.8592      2.00000
     32      -6.8483      2.00000
     33      -6.7920      2.00000
     34      -6.7578      2.00000
     35      -6.7556      2.00000
     36      -6.7062      2.00000
     37      -6.6955      2.00000
     38      -6.6004      2.00000
     39      -6.5894      2.00000
     40      -6.5423      2.00000
     41      -6.5176      2.00000
     42      -6.5102      2.00000
     43      -6.5004      2.00000
     44      -6.4984      2.00000
     45      -6.4734      2.00000
     46      -6.4174      2.00000
     47      -6.4051      2.00000
     48      -6.3964      2.00000
     49      -6.3711      2.00000
     50      -6.3081      2.00000
     51      -6.2995      2.00000
     52      -6.2867      2.00000
     53      -6.2828      2.00000
     54      -6.2822      2.00000
     55      -6.2686      2.00000
     56      -6.2612      2.00000
     57      -6.2545      2.00000
     58      -6.2530      2.00000
     59      -6.1976      2.00000
     60      -6.1972      2.00000
     61      -6.1897      2.00000
     62      -6.1691      2.00000
     63      -6.1293      2.00000
     64      -6.0653      2.00000
     65       1.6677      0.00000
     66       2.9627      0.00000
     67       3.0157      0.00000
     68       3.1858      0.00000
     69       3.3295      0.00000
     70       3.3641      0.00000
     71       3.6000      0.00000
     72       3.7974      0.00000
     73       3.8504      0.00000
     74       3.9766      0.00000
     75       3.9904      0.00000
     76       4.0109      0.00000
     77       4.0338      0.00000
     78       4.1772      0.00000
     79       4.2603      0.00000
     80       4.2704      0.00000
     81       4.4858      0.00000
     82       4.6005      0.00000
     83       4.8484      0.00000
     84       4.9636      0.00000
     85       5.0853      0.00000
     86       5.1010      0.00000
     87       5.2090      0.00000
     88       5.2557      0.00000
     89       5.2717      0.00000
     90       5.4712      0.00000
     91       5.5280      0.00000
     92       5.6144      0.00000
     93       5.7009      0.00000
     94       5.7218      0.00000
     95       5.9388      0.00000
     96       5.9539      0.00000
     97       5.9664      0.00000
     98       6.0260      0.00000
     99       6.0870      0.00000
    100       6.0924      0.00000
    101       6.1064      0.00000
    102       6.1234      0.00000
    103       6.1878      0.00000
    104       6.2483      0.00000
    105       6.6085      0.00000
    106       6.7299      0.00000

 k-point     2 :       0.2500    0.0000    0.0000
  band No.  band energies     occupation 
      1     -14.6779      2.00000
      2     -14.5299      2.00000
      3     -14.3096      2.00000
      4     -14.3039      2.00000
      5     -14.2949      2.00000
      6     -14.2895      2.00000
      7     -14.2705      2.00000
      8     -14.2573      2.00000
      9     -14.2519      2.00000
     10     -14.2486      2.00000
     11     -14.2445      2.00000
     12     -14.1325      2.00000
     13     -14.1322      2.00000
     14     -14.1225      2.00000
     15     -14.1194      2.00000
     16     -14.0938      2.00000
     17      -7.4951      2.00000
     18      -7.4329      2.00000
     19      -7.3970      2.00000
     20      -7.3704      2.00000
     21      -7.3384      2.00000
     22      -7.2888      2.00000
     23      -7.2698      2.00000
     24      -7.2407      2.00000
     25      -7.2396      2.00000
     26      -7.1014      2.00000
     27      -7.0783      2.00000
     28      -7.0177      2.00000
     29      -7.0118      2.00000
     30      -6.9823      2.00000
     31      -6.8649      2.00000
     32      -6.7724      2.00000
     33      -6.7403      2.00000
     34      -6.7354      2.00000
     35      -6.6488      2.00000
     36      -6.6259      2.00000
     37      -6.5975      2.00000
     38      -6.5767      2.00000
     39      -6.5717      2.00000
     40      -6.5297      2.00000
     41      -6.5275      2.00000
     42      -6.5007      2.00000
     43      -6.4867      2.00000
     44      -6.4772      2.00000
     45      -6.4527      2.00000
     46      -6.4491      2.00000
     47      -6.4407      2.00000
     48      -6.3679      2.00000
     49      -6.3529      2.00000
     50      -6.3127      2.00000
     51      -6.2870      2.00000
     52      -6.2867      2.00000
     53      -6.2823      2.00000
     54      -6.2718      2.00000
     55      -6.2560      2.00000
     56      -6.2549      2.00000
     57      -6.2517      2.00000
     58      -6.2492      2.00000
     59      -6.2440      2.00000
     60      -6.2322      2.00000
     61      -6.2162      2.00000
     62      -6.1826      2.00000
     63      -6.1445      2.00000
     64      -6.1180      2.00000
     65       1.7741      0.00000
     66       2.5098      0.00000
     67       3.2600      0.00000
     68       3.3715      0.00000
     69       3.4032      0.00000
     70       3.4366      0.00000
     71       3.6020      0.00000
     72       3.7180      0.00000
     73       3.8481      0.00000
     74       3.8569      0.00000
     75       3.8818      0.00000
     76       3.9734      0.00000
     77       4.1389      0.00000
     78       4.1967      0.00000
     79       4.2467      0.00000
     80       4.3303      0.00000
     81       4.5375      0.00000
     82       4.5546      0.00000
     83       4.7020      0.00000
     84       4.9212      0.00000
     85       5.0958      0.00000
     86       5.1078      0.00000
     87       5.1778      0.00000
     88       5.2177      0.00000
     89       5.4152      0.00000
     90       5.4226      0.00000
     91       5.4726      0.00000
     92       5.5563      0.00000
     93       5.5572      0.00000
     94       5.8724      0.00000
     95       5.8760      0.00000
     96       5.8776      0.00000
     97       6.0052      0.00000
     98       6.0169      0.00000
     99       6.1080      0.00000
    100       6.1400      0.00000
    101       6.1530      0.00000
    102       6.1724      0.00000
    103       6.2557      0.00000
    104       6.3947      0.00000
    105       6.5387      0.00000
    106       6.7813      0.00000

 k-point     3 :       0.5000    0.0000    0.0000
  band No.  band energies     occupation 
      1     -14.6195      2.00000
      2     -14.6195      2.00000
      3     -14.2922      2.00000
      4     -14.2922      2.00000
      5     -14.2921      2.00000
      6     -14.2921      2.00000
      7     -14.2546      2.00000
      8     -14.2546      2.00000
      9     -14.2466      2.00000
     10     -14.2466      2.00000
     11     -14.2026      2.00000
     12     -14.2026      2.00000
     13     -14.1210      2.00000
     14     -14.1210      2.00000
     15     -14.1109      2.00000
     16     -14.1109      2.00000
     17      -7.3950      2.00000
     18      -7.3950      2.00000
     19      -7.3568      2.00000
     20      -7.3568      2.00000
     21      -7.3343      2.00000
     22      -7.3343      2.00000
     23      -7.2516      2.00000
     24      -7.2516      2.00000
     25      -7.2086      2.00000
     26      -7.2086      2.00000
     27      -7.1613      2.00000
     28      -7.1613      2.00000
     29      -7.0711      2.00000
     30      -7.0710      2.00000
     31      -6.7125      2.00000
     32      -6.7125      2.00000
     33      -6.6733      2.00000
     34      -6.6733      2.00000
     35      -6.6681      2.00000
     36      -6.6681      2.00000
     37      -6.6442      2.00000
     38      -6.6442      2.00000
     39      -6.5200      2.00000
     40      -6.5200      2.00000
     41      -6.4929      2.00000
     42      -6.4929      2.00000
     43      -6.4246      2.00000
     44      -6.4246      2.00000
     45      -6.3974      2.00000
     46      -6.3974      2.00000
     47      -6.3659      2.00000
     48      -6.3659      2.00000
     49      -6.3400      2.00000
     50      -6.3400      2.00000
     51      -6.3075      2.00000
     52      -6.3075      2.00000
     53      -6.2859      2.00000
     54      -6.2859      2.00000
     55      -6.2852      2.00000
     56      -6.2852      2.00000
     57      -6.2611      2.00000
     58      -6.2611      2.00000
     59      -6.2217      2.00000
     60      -6.2217      2.00000
     61      -6.2192      2.00000
     62      -6.2192      2.00000
     63      -6.1891      2.00000
     64      -6.1891      2.00000
     65       2.0736      0.00000
     66       2.0736      0.00000
     67       3.4624      0.00000
     68       3.4624      0.00000
     69       3.5594      0.00000
     70       3.5594      0.00000
     71       3.6038      0.00000
     72       3.6038      0.00000
     73       3.6340      0.00000
     74       3.6340      0.00000
     75       3.9426      0.00000
     76       3.9426      0.00000
     77       4.2161      0.00000
     78       4.2161      0.00000
     79       4.3731      0.00000
     80       4.3731      0.00000
     81       4.4923      0.00000
     82       4.4923      0.00000
     83       4.6904      0.00000
     84       4.6904      0.00000
     85       5.1428      0.00000
     86       5.1428      0.00000
     87       5.2524      0.00000
     88       5.2524      0.00000
     89       5.3101      0.00000
     90       5.3101      0.00000
     91       5.4442      0.00000
     92       5.4442      0.00000
     93       5.7222      0.00000
     94       5.7222      0.00000
     95       5.8259      0.00000
     96       5.8259      0.00000
     97       6.1505      0.00000
     98       6.1505      0.00000
     99       6.1598      0.00000
    100       6.1598      0.00000
    101       6.1604      0.00000
    102       6.1604      0.00000
    103       6.4698      0.00000
    104       6.4698      0.00000
    105       6.5399      0.00000
    106       6.5402      0.00000

 k-point     4 :       0.0000    0.2500    0.0000
  band No.  band energies     occupation 
      1     -14.6601      2.00000
      2     -14.4165      2.00000
      3     -14.4103      2.00000
      4     -14.3863      2.00000
      5     -14.3101      2.00000
      6     -14.2987      2.00000
      7     -14.2748      2.00000
      8     -14.2424      2.00000
      9     -14.2381      2.00000
     10     -14.2346      2.00000
     11     -14.1791      2.00000
     12     -14.1573      2.00000
     13     -14.1401      2.00000
     14     -14.1309      2.00000
     15     -14.1093      2.00000
     16     -14.1005      2.00000
     17      -7.5119      2.00000
     18      -7.3750      2.00000
     19      -7.3379      2.00000
     20      -7.3291      2.00000
     21      -7.3219      2.00000
     22      -7.3082      2.00000
     23      -7.2839      2.00000
     24      -7.1695      2.00000
     25      -7.1504      2.00000
[...]
 -----------------------------------------------------------------------------------------------
   -.344E+02 -.200E+02 0.137E+02   0.389E+02 0.226E+02 -.156E+02   -.453E+01 -.258E+01 0.191E+01   -.186E-03 -.273E-04 -.125E-04
   0.344E+02 0.200E+02 -.137E+02   -.389E+02 -.226E+02 0.156E+02   0.453E+01 0.258E+01 -.191E+01   0.186E-03 0.273E-04 0.125E-04
   0.344E+02 0.200E+02 0.137E+02   -.389E+02 -.226E+02 -.156E+02   0.453E+01 0.258E+01 0.191E+01   0.186E-03 0.273E-04 -.125E-04
   -.344E+02 -.200E+02 -.137E+02   0.389E+02 0.226E+02 0.156E+02   -.453E+01 -.258E+01 -.191E+01   -.186E-03 -.273E-04 0.125E-04
   0.344E+02 -.200E+02 -.137E+02   -.389E+02 0.226E+02 0.156E+02   0.453E+01 -.258E+01 -.191E+01   0.186E-03 -.273E-04 0.125E-04
   -.344E+02 0.200E+02 0.137E+02   0.389E+02 -.226E+02 -.156E+02   -.453E+01 0.258E+01 0.191E+01   -.186E-03 0.273E-04 -.125E-04
   -.344E+02 0.200E+02 -.137E+02   0.389E+02 -.226E+02 0.156E+02   -.453E+01 0.258E+01 -.191E+01   -.186E-03 0.273E-04 0.125E-04
   0.344E+02 -.200E+02 0.137E+02   -.389E+02 0.226E+02 -.156E+02   0.453E+01 -.258E+01 0.191E+01   0.186E-03 -.273E-04 -.125E-04
   -.344E+02 -.200E+02 0.137E+02   0.389E+02 0.226E+02 -.156E+02   -.453E+01 -.258E+01 0.191E+01   -.186E-03 -.273E-04 -.125E-04
   0.344E+02 0.200E+02 -.137E+02   -.389E+02 -.226E+02 0.156E+02   0.453E+01 0.258E+01 -.191E+01   0.186E-03 0.273E-04 0.125E-04
   0.344E+02 0.200E+02 0.137E+02   -.389E+02 -.226E+02 -.156E+02   0.453E+01 0.258E+01 0.191E+01   0.186E-03 0.273E-04 -.125E-04
   -.344E+02 -.200E+02 -.137E+02   0.389E+02 0.226E+02 0.156E+02   -.453E+01 -.258E+01 -.191E+01   -.186E-03 -.273E-04 0.125E-04
   0.344E+02 -.200E+02 -.137E+02   -.389E+02 0.226E+02 0.156E+02   0.453E+01 -.258E+01 -.191E+01   0.186E-03 -.273E-04 0.125E-04
   -.344E+02 0.200E+02 0.137E+02   0.389E+02 -.226E+02 -.156E+02   -.453E+01 0.258E+01 0.191E+01   -.186E-03 0.273E-04 -.125E-04
   -.344E+02 0.200E+02 -.137E+02   0.389E+02 -.226E+02 0.156E+02   -.453E+01 0.258E+01 -.191E+01   -.186E-03 0.273E-04 0.125E-04
   0.344E+02 -.200E+02 0.137E+02   -.389E+02 0.226E+02 -.156E+02   0.453E+01 -.258E+01 0.191E+01   0.186E-03 -.273E-04 -.125E-04
   -.245E+02 -.271E+02 0.233E+02   0.277E+02 0.306E+02 -.262E+02   -.321E+01 -.347E+01 0.290E+01   0.130E-03 0.114E-03 -.874E-04
   0.245E+02 0.271E+02 -.233E+02   -.277E+02 -.306E+02 0.262E+02   0.321E+01 0.347E+01 -.290E+01   -.130E-03 -.114E-03 0.874E-04
   0.245E+02 0.271E+02 0.233E+02   -.277E+02 -.306E+02 -.262E+02   0.321E+01 0.347E+01 0.290E+01   -.130E-03 -.114E-03 -.874E-04
   -.245E+02 -.271E+02 -.233E+02   0.277E+02 0.306E+02 0.262E+02   -.321E+01 -.347E+01 -.290E+01   0.130E-03 0.114E-03 0.874E-04
   0.245E+02 -.271E+02 -.233E+02   -.277E+02 0.306E+02 0.262E+02   0.321E+01 -.347E+01 -.290E+01   -.130E-03 0.114E-03 0.874E-04
   -.245E+02 0.271E+02 0.233E+02   0.277E+02 -.306E+02 -.262E+02   -.321E+01 0.347E+01 0.290E+01   0.130E-03 -.114E-03 -.874E-04
   -.245E+02 0.271E+02 -.233E+02   0.277E+02 -.306E+02 0.262E+02   -.321E+01 0.347E+01 -.290E+01   0.130E-03 -.114E-03 0.874E-04
   0.245E+02 -.271E+02 0.233E+02   -.277E+02 0.306E+02 -.262E+02   0.321E+01 -.347E+01 0.290E+01   -.130E-03 0.114E-03 -.874E-04
   -.245E+02 -.271E+02 0.233E+02   0.277E+02 0.306E+02 -.262E+02   -.321E+01 -.347E+01 0.290E+01   0.130E-03 0.114E-03 -.874E-04
   0.245E+02 0.271E+02 -.233E+02   -.277E+02 -.306E+02 0.262E+02   0.321E+01 0.347E+01 -.290E+01   -.130E-03 -.114E-03 0.874E-04
   0.245E+02 0.271E+02 0.233E+02   -.277E+02 -.306E+02 -.262E+02   0.321E+01 0.347E+01 0.290E+01   -.130E-03 -.114E-03 -.874E-04
   -.245E+02 -.271E+02 -.233E+02   0.277E+02 0.306E+02 0.262E+02   -.321E+01 -.347E+01 -.290E+01   0.130E-03 0.114E-03 0.874E-04
   0.245E+02 -.271E+02 -.233E+02   -.277E+02 0.306E+02 0.262E+02   0.321E+01 -.347E+01 -.290E+01   -.130E-03 0.114E-03 0.874E-04
   -.245E+02 0.271E+02 0.233E+02   0.277E+02 -.306E+02 -.262E+02   -.321E+01 0.347E+01 0.290E+01   0.130E-03 -.114E-03 -.874E-04
   -.245E+02 0.271E+02 -.233E+02   0.277E+02 -.306E+02 0.262E+02   -.321E+01 0.347E+01 -.290E+01   0.130E-03 -.114E-03 0.874E-04
   0.245E+02 -.271E+02 0.233E+02   -.277E+02 0.306E+02 -.262E+02   0.321E+01 -.347E+01 0.290E+01   -.130E-03 0.114E-03 -.874E-04
   0.247E+02 -.226E+02 -.275E+02   -.279E+02 0.255E+02 0.310E+02   0.318E+01 -.289E+01 -.349E+01   -.122E-03 0.975E-04 0.105E-03
   -.247E+02 0.226E+02 0.275E+02   0.279E+02 -.255E+02 -.310E+02   -.318E+01 0.289E+01 0.349E+01   0.122E-03 -.975E-04 -.105E-03
   -.247E+02 0.226E+02 -.275E+02   0.279E+02 -.255E+02 0.310E+02   -.318E+01 0.289E+01 -.349E+01   0.122E-03 -.975E-04 0.105E-03
   0.247E+02 -.226E+02 0.275E+02   -.279E+02 0.255E+02 -.310E+02   0.318E+01 -.289E+01 0.349E+01   -.122E-03 0.975E-04 -.105E-03
   -.247E+02 -.226E+02 0.275E+02   0.279E+02 0.255E+02 -.310E+02   -.318E+01 -.289E+01 0.349E+01   0.122E-03 0.975E-04 -.105E-03
   0.247E+02 0.226E+02 -.275E+02   -.279E+02 -.255E+02 0.310E+02   0.318E+01 0.289E+01 -.349E+01   -.122E-03 -.975E-04 0.105E-03
   0.247E+02 0.226E+02 0.275E+02   -.279E+02 -.255E+02 -.310E+02   0.318E+01 0.289E+01 0.349E+01   -.122E-03 -.975E-04 -.105E-03
   -.247E+02 -.226E+02 -.275E+02   0.279E+02 0.255E+02 0.310E+02   -.318E+01 -.289E+01 -.349E+01   0.122E-03 0.975E-04 0.105E-03
   0.247E+02 -.226E+02 -.275E+02   -.279E+02 0.255E+02 0.310E+02   0.318E+01 -.289E+01 -.349E+01   -.122E-03 0.975E-04 0.105E-03
   -.247E+02 0.226E+02 0.275E+02   0.279E+02 -.255E+02 -.310E+02   -.318E+01 0.289E+01 0.349E+01   0.122E-03 -.975E-04 -.105E-03
   -.247E+02 0.226E+02 -.275E+02   0.279E+02 -.255E+02 0.310E+02   -.318E+01 0.289E+01 -.349E+01   0.122E-03 -.975E-04 0.105E-03
   0.247E+02 -.226E+02 0.275E+02   -.279E+02 0.255E+02 -.310E+02   0.318E+01 -.289E+01 0.349E+01   -.122E-03 0.975E-04 -.105E-03
   -.247E+02 -.226E+02 0.275E+02   0.279E+02 0.255E+02 -.310E+02   -.318E+01 -.289E+01 0.349E+01   0.122E-03 0.975E-04 -.105E-03
   0.247E+02 0.226E+02 -.275E+02   -.279E+02 -.255E+02 0.310E+02   0.318E+01 0.289E+01 -.349E+01   -.122E-03 -.975E-04 0.105E-03
   0.247E+02 0.226E+02 0.275E+02   -.279E+02 -.255E+02 -.310E+02   0.318E+01 0.289E+01 0.349E+01   -.122E-03 -.975E-04 -.105E-03
   -.247E+02 -.226E+02 -.275E+02   0.279E+02 0.255E+02 0.310E+02   -.318E+01 -.289E+01 -.349E+01   0.122E-03 0.975E-04 0.105E-03
   0.157E-07 0.412E+02 0.130E+02   -.724E-06 -.465E+02 -.147E+02   -.265E-22 0.527E+01 0.173E+01   0.229E-07 0.587E-04 -.104E-03
   0.157E-07 -.412E+02 -.130E+02   -.724E-06 0.465E+02 0.147E+02   0.529E-22 -.527E+01 -.173E+01   0.229E-07 -.587E-04 0.104E-03
   0.157E-07 -.412E+02 0.130E+02   -.724E-06 0.465E+02 -.147E+02   -.529E-22 -.527E+01 0.173E+01   0.229E-07 -.587E-04 -.104E-03
   0.157E-07 0.412E+02 -.130E+02   -.724E-06 -.465E+02 0.147E+02   0.265E-22 0.527E+01 -.173E+01   0.229E-07 0.587E-04 0.104E-03
   -.168E-07 0.412E+02 0.130E+02   0.774E-06 -.465E+02 -.147E+02   -.106E-21 0.527E+01 0.173E+01   -.229E-07 0.587E-04 -.104E-03
   -.168E-07 -.412E+02 -.130E+02   0.774E-06 0.465E+02 0.147E+02   -.496E-22 -.527E+01 -.173E+01   -.229E-07 -.587E-04 0.104E-03
   -.168E-07 -.412E+02 0.130E+02   0.774E-06 0.465E+02 -.147E+02   0.529E-22 -.527E+01 0.173E+01   -.229E-07 -.587E-04 -.104E-03
   -.168E-07 0.412E+02 -.130E+02   0.774E-06 -.465E+02 0.147E+02   0.106E-21 0.527E+01 -.173E+01   -.229E-07 0.587E-04 0.104E-03
   0.162E-07 0.582E+00 0.422E+02   -.749E-06 -.691E+00 -.477E+02   -.529E-22 0.115E+00 0.553E+01   0.229E-07 -.901E-04 0.201E-04
   0.162E-07 -.582E+00 -.422E+02   -.749E-06 0.691E+00 0.477E+02   -.529E-22 -.115E+00 -.553E+01   0.229E-07 0.901E-04 -.201E-04
   0.162E-07 -.582E+00 0.422E+02   -.749E-06 0.691E+00 -.477E+02   0.529E-22 -.115E+00 0.553E+01   0.229E-07 0.901E-04 0.201E-04
   0.162E-07 0.582E+00 -.422E+02   -.749E-06 -.691E+00 0.477E+02   0.926E-22 0.115E+00 -.553E+01   0.229E-07 -.901E-04 -.201E-04
   -.175E-07 0.582E+00 0.422E+02   0.805E-06 -.691E+00 -.477E+02   -.159E-21 0.115E+00 0.553E+01   -.229E-07 -.901E-04 0.201E-04
   -.175E-07 -.582E+00 -.422E+02   0.805E-06 0.691E+00 0.477E+02   -.529E-22 -.115E+00 -.553E+01   -.229E-07 0.901E-04 -.201E-04
   -.175E-07 -.582E+00 0.422E+02   0.805E-06 0.691E+00 -.477E+02   0.529E-22 -.115E+00 0.553E+01   -.229E-07 0.901E-04 0.201E-04
   -.175E-07 0.582E+00 -.422E+02   0.805E-06 -.691E+00 0.477E+02   0.159E-21 0.115E+00 -.553E+01   -.229E-07 -.901E-04 -.201E-04
   -.179E-06 -.615E+00 0.207E+01   0.899E-05 0.607E+00 -.195E+01   0.244E-20 0.209E-01 -.119E+00   0.938E-07 0.849E-03 0.705E-03
   -.179E-06 0.615E+00 -.207E+01   0.899E-05 -.607E+00 0.195E+01   -.111E-20 -.209E-01 0.119E+00   0.938E-07 -.849E-03 -.705E-03
   -.179E-06 0.615E+00 0.207E+01   0.899E-05 -.607E+00 -.195E+01   0.847E-21 -.209E-01 -.119E+00   0.938E-07 -.849E-03 0.705E-03
   -.179E-06 -.615E+00 -.207E+01   0.899E-05 0.607E+00 0.195E+01   -.254E-20 0.209E-01 0.119E+00   0.938E-07 0.849E-03 -.705E-03
   0.252E-06 -.615E+00 0.207E+01   -.126E-04 0.607E+00 -.195E+01   -.188E-20 0.209E-01 -.119E+00   -.939E-07 0.849E-03 0.705E-03
   0.252E-06 0.615E+00 -.207E+01   -.126E-04 -.607E+00 0.195E+01   0.953E-21 -.209E-01 0.119E+00   -.939E-07 -.849E-03 -.705E-03
   0.252E-06 0.615E+00 0.207E+01   -.126E-04 -.607E+00 -.195E+01   -.847E-21 -.209E-01 -.119E+00   -.939E-07 -.849E-03 0.705E-03
   0.252E-06 -.615E+00 -.207E+01   -.126E-04 0.607E+00 0.195E+01   0.212E-20 0.209E-01 0.119E+00   -.939E-07 0.849E-03 -.705E-03
   0.976E+00 -.720E-09 0.221E-07   -.922E+00 -.170E-06 -.909E-06   -.555E-01 0.529E-22 0.254E-20   0.127E-04 -.875E-11 0.357E-08
   -.976E+00 0.822E-08 0.200E-07   0.922E+00 -.170E-06 -.909E-06   0.555E-01 -.424E-21 0.466E-20   -.127E-04 -.863E-11 0.357E-08
   -.976E+00 -.165E-08 -.161E-07   0.922E+00 -.134E-06 0.670E-06   0.555E-01 0.000E+00 0.000E+00   -.127E-04 0.352E-11 -.358E-08
   0.976E+00 0.729E-08 -.139E-07   -.922E+00 -.134E-06 0.670E-06   -.555E-01 -.424E-21 -.254E-20   0.127E-04 0.351E-11 -.358E-08
   0.976E+00 -.719E-09 0.221E-07   -.922E+00 -.170E-06 -.909E-06   -.555E-01 0.529E-22 0.339E-20   0.127E-04 -.854E-11 0.357E-08
   -.976E+00 0.822E-08 0.200E-07   0.922E+00 -.170E-06 -.909E-06   0.555E-01 -.424E-21 0.466E-20   -.127E-04 -.844E-11 0.357E-08
   -.976E+00 -.165E-08 -.161E-07   0.922E+00 -.134E-06 0.670E-06   0.555E-01 0.000E+00 -.169E-20   -.127E-04 0.345E-11 -.358E-08
   0.976E+00 0.729E-08 -.139E-07   -.922E+00 -.134E-06 0.670E-06   -.555E-01 -.424E-21 -.254E-20   0.127E-04 0.343E-11 -.358E-08
 -----------------------------------------------------------------------------------------------
   0.108E-04 -.457E-04 0.924E-04   -.777E-14 -.190E-13 0.135E-13   0.219E-14 -.888E-15 -.902E-15   0.812E-11 0.478E-10 0.140E-09
 
 
 POSITION                                       TOTAL-FORCE (eV/Angst)
 -----------------------------------------------------------------------------------
      0.89406      6.42889      1.24363        -0.003892     -0.003631      0.012733
     10.65560      1.64973      6.82996         0.003892      0.003631     -0.012733
     10.65560      5.68904      5.28042         0.003892      0.003631      0.012733
      0.89406      2.38958      2.79317        -0.003892     -0.003631     -0.012733
     10.65560      2.38958      2.79317         0.003892     -0.003631     -0.012733
      0.89406      5.68904      5.28042        -0.003892      0.003631      0.012733
      0.89406      1.64973      6.82996        -0.003892      0.003631     -0.012733
     10.65560      6.42889      1.24363         0.003892     -0.003631      0.012733
      6.66890      2.38958      1.24363        -0.003892     -0.003631      0.012733
      4.88077      5.68904      6.82996         0.003892      0.003631     -0.012733
      4.88077      1.64973      5.28042         0.003892      0.003631      0.012733
      6.66890      6.42889      2.79317        -0.003892     -0.003631     -0.012733
      4.88077      6.42889      2.79317         0.003892     -0.003631     -0.012733
      6.66890      1.64973      5.28042        -0.003892      0.003631      0.012733
      6.66890      5.68904      6.82996        -0.003892      0.003631     -0.012733
      4.88077      2.38958      1.24363         0.003892     -0.003631      0.012733
      9.29382      4.72535      7.50107        -0.002311      0.002846     -0.003069
      2.25585      3.35327      0.57252         0.002311     -0.002846      0.003069
      2.25585      7.39258      3.46427         0.002311     -0.002846     -0.003069
      9.29382      0.68604      4.60932        -0.002311      0.002846      0.003069
      2.25585      0.68604      4.60932         0.002311      0.002846      0.003069
      9.29382      7.39258      3.46427        -0.002311     -0.002846     -0.003069
      9.29382      3.35327      0.57252        -0.002311     -0.002846      0.003069
      2.25585      4.72535      7.50107         0.002311      0.002846     -0.003069
      3.51899      0.68604      7.50107        -0.002311      0.002846     -0.003069
      8.03068      7.39258      0.57252         0.002311     -0.002846      0.003069
      8.03068      3.35327      3.46427         0.002311     -0.002846     -0.003069
      3.51899      4.72535      4.60932        -0.002311      0.002846      0.003069
      8.03068      4.72535      4.60932         0.002311      0.002846      0.003069
      3.51899      3.35327      3.46427        -0.002311     -0.002846     -0.003069
      3.51899      7.39258      0.57252        -0.002311     -0.002846      0.003069
      8.03068      0.68604      7.50107         0.002311      0.002846     -0.003069
      8.02922      4.61191      0.68845         0.003083      0.001134      0.003891
      3.52045      3.46671      7.38514        -0.003083     -0.001134     -0.003891
      3.52045      7.50602      4.72524        -0.003083     -0.001134      0.003891
      8.02922      0.57260      3.34835         0.003083      0.001134     -0.003891
      3.52045      0.57260      3.34835        -0.003083      0.001134     -0.003891
      8.02922      7.50602      4.72524         0.003083     -0.001134      0.003891
      8.02922      3.46671      7.38514         0.003083     -0.001134     -0.003891
      3.52045      4.61191      0.68845        -0.003083      0.001134      0.003891
      2.25438      0.57260      0.68845         0.003083      0.001134      0.003891
      9.29528      7.50602      7.38514        -0.003083     -0.001134     -0.003891
      9.29528      3.46671      4.72524        -0.003083     -0.001134      0.003891
      2.25438      4.61191      3.34835         0.003083      0.001134     -0.003891
      9.29528      4.61191      3.34835        -0.003083      0.001134     -0.003891
      2.25438      3.46671      4.72524         0.003083     -0.001134      0.003891
      2.25438      7.50602      7.38514         0.003083     -0.001134     -0.003891
      9.29528      0.57260      0.68845        -0.003083      0.001134      0.003891
     -0.00000      4.87979      1.27842         0.000000     -0.011212      0.011062
     -0.00000      3.19883      6.79517         0.000000      0.011212     -0.011062
     -0.00000      7.23814      5.31522         0.000000      0.011212      0.011062
     -0.00000      0.84048      2.75837         0.000000     -0.011212     -0.011062
      5.77483      0.84048      1.27842         0.000000     -0.011212      0.011062
      5.77483      7.23814      6.79517         0.000000      0.011212     -0.011062
      5.77483      3.19883      5.31522         0.000000      0.011212      0.011062
      5.77483      4.87979      2.75837         0.000000     -0.011212     -0.011062
     -0.00000      2.13463      5.35775         0.000000      0.005731     -0.011173
     -0.00000      5.94399      2.71584         0.000000     -0.005731      0.011173
     -0.00000      1.90468      1.32096         0.000000     -0.005731     -0.011173
     -0.00000      6.17394      6.75263         0.000000      0.005731      0.011173
      5.77483      6.17394      5.35775         0.000000      0.005731     -0.011173
      5.77483      1.90468      2.71584         0.000000     -0.005731      0.011173
      5.77483      5.94399      1.32096         0.000000     -0.005731     -0.011173
      5.77483      2.13463      6.75263         0.000000      0.005731      0.011173
     -0.00000      1.88080      2.41636         0.000000      0.013144      0.000847
     -0.00000      6.19782      5.65723         0.000000     -0.013144     -0.000847
     -0.00000      2.15851      6.45315         0.000000     -0.013144      0.000847
     -0.00000      5.92011      1.62044         0.000000      0.013144     -0.000847
      5.77483      5.92011      2.41636         0.000000      0.013144      0.000847
      5.77483      2.15851      5.65723         0.000000     -0.013144     -0.000847
      5.77483      6.19782      6.45315         0.000000     -0.013144      0.000847
      5.77483      1.88080      1.62044         0.000000      0.013144     -0.000847
      8.66050      4.03931      0.00000         0.000748      0.000000      0.000000
      2.88916      4.03931      0.00000        -0.000748     -0.000000      0.000000
      2.88916     -0.00000      4.03679        -0.000748     -0.000000      0.000000
      8.66050     -0.00000      4.03679         0.000748     -0.000000      0.000000
      2.88567     -0.00000      0.00000         0.000748      0.000000      0.000000
      8.66400     -0.00000      0.00000        -0.000748     -0.000000      0.000000
      8.66400      4.03931      4.03679        -0.000748     -0.000000      0.000000
      2.88567      4.03931      4.03679         0.000748     -0.000000      0.000000
 -----------------------------------------------------------------------------------
    total drift:                                0.000011     -0.000046      0.000092


--------------------------------------------------------------------------------------------------------



  FREE ENERGIE OF THE ION-ELECTRON SYSTEM (eV)
  ---------------------------------------------------
  free  energy   TOTEN  =      -387.48857993 eV

  energy  without entropy=     -387.48857993  energy(sigma->0) =     -387.48857993
 
 d Force = 0.2135158E-03[-0.499E-05, 0.432E-03]  d Energy = 0.2157570E-03-0.224E-05
 d Force =-0.2136656E+00[-0.214E+00,-0.213E+00]  d Ewald  =-0.2136656E+00 0.633E-07


--------------------------------------------------------------------------------------------------------


    POTLOK:  cpu time    0.33: real time    0.33


--------------------------------------------------------------------------------------------------------




--------------------------------------------------------------------------------------------------------


  
 reached required accuracy - stopping structural energy minimisation
     LOOP+:  cpu time  904.48: real time  904.97
    4ORBIT:  cpu time    0.00: real time    0.00
 BZINTS: Fermi energy: -6.041514;128.000000 electrons
         Band energy:***********;  BLOECHL correction:  0.000000

 total amount of memory used by VASP on root node   418389. kBytes
========================================================================

   base      :      30000. kBytes
   nonl-proj :      59645. kBytes
   fftplans  :      13558. kBytes
   grid      :      21584. kBytes
   one-center:        122. kBytes
   wavefun   :     293480. kBytes
 
  
  
 General timing and accounting informations for this job:
 ========================================================
  
                  Total CPU time used (sec):     4486.203
                            User time (sec):     4066.292
                          System time (sec):      419.911
                         Elapsed time (sec):     4488.791
  
                   Maximum memory used (kb):      589512.
                   Average memory used (kb):           0.
  
                          Minor page faults:     53465198
                          Major page faults:            0
                 Voluntary context switches:         1118
