 vasp.5.3.5 31Mar14 (build Nov 02 2014 15:17:37) complex                        
  
 executed on        ion-Intel-MKL date 2017.06.05  18:29:11
 running on    4 total cores
 distrk:  each k-point on    4 cores,    1 groups
 distr:  one band on NCORES_PER_BAND=   2 cores,    2 groups


--------------------------------------------------------------------------------------------------------


 INCAR:
 POTCAR:  PAW_PBE H 15Jun2001                     
 POTCAR:  PAW_PBE C 08Apr2002                     
 POTCAR:  PAW_PBE H 15Jun2001                     
   VRHFIN =H: ultrasoft test                                                    
   LEXCH  = PE                                                                  
   EATOM  =    12.4884 eV,     .9179 Ry                                         
                                                                                
   TITEL  = PAW_PBE H 15Jun2001                                                 
   LULTRA =        F    use ultrasoft PP ?                                      
   IUNSCR =        0    unscreen: 0-lin 1-nonlin 2-no                           
   RPACOR =     .000    partial core radius                                     
   POMASS =    1.000; ZVAL   =    1.000    mass and valenz                      
   RCORE  =    1.100    outmost cutoff radius                                   
   RWIGS  =     .700; RWIGS  =     .370    wigner-seitz radius (au A)           
   ENMAX  =  250.000; ENMIN  =  200.000 eV                                      
   RCLOC  =     .701    cutoff for local pot                                    
   LCOR   =        T    correct aug charges                                     
   LPAW   =        T    paw PP                                                  
   EAUG   =  400.000                                                            
   RMAX   =    2.174    core radius for proj-oper                               
   RAUG   =    1.200    factor for augmentation sphere                          
   RDEP   =    1.112    radius for radial grids                                 
   QCUT   =   -5.749; QGAM   =   11.498    optimization parameters              
                                                                                
   Description                                                                  
     l     E      TYP  RCUT    TYP  RCUT                                        
     0   .000     23  1.100                                                     
     0   .500     23  1.100                                                     
     1  -.300     23  1.100                                                     
  local pseudopotential read in
  atomic valenz-charges read in
  non local Contribution for L=           0  read in
    real space projection operators read in
  non local Contribution for L=           0  read in
    real space projection operators read in
  non local Contribution for L=           1  read in
    real space projection operators read in
    PAW grid and wavefunctions read in
 
   number of l-projection  operators is LMAX  =           3
   number of lm-projection operators is LMMAX =           5
 
 POTCAR:  PAW_PBE C 08Apr2002                     
   VRHFIN =C: s2p2                                                              
   LEXCH  = PE                                                                  
   EATOM  =   147.1560 eV,   10.8157 Ry                                         
                                                                                
   TITEL  = PAW_PBE C 08Apr2002                                                 
   LULTRA =        F    use ultrasoft PP ?                                      
   IUNSCR =        0    unscreen: 0-lin 1-nonlin 2-no                           
   RPACOR =     .000    partial core radius                                     
   POMASS =   12.011; ZVAL   =    4.000    mass and valenz                      
   RCORE  =    1.500    outmost cutoff radius                                   
   RWIGS  =    1.630; RWIGS  =     .863    wigner-seitz radius (au A)           
   ENMAX  =  400.000; ENMIN  =  300.000 eV                                      
   ICORE  =        2    local potential                                         
   LCOR   =        T    correct aug charges                                     
   LPAW   =        T    paw PP                                                  
   EAUG   =  644.873                                                            
   DEXC   =     .000                                                            
   RMAX   =    2.266    core radius for proj-oper                               
   RAUG   =    1.300    factor for augmentation sphere                          
   RDEP   =    1.501    radius for radial grids                                 
   RDEPT  =    1.300    core radius for aug-charge                              
   QCUT   =   -5.516; QGAM   =   11.032    optimization parameters              
                                                                                
   Description                                                                  
     l     E      TYP  RCUT    TYP  RCUT                                        
     0   .000     23  1.200                                                     
     0   .000     23  1.200                                                     
     1   .000     23  1.500                                                     
     1  2.500     23  1.500                                                     
     2   .000      7  1.500                                                     
  local pseudopotential read in
  atomic valenz-charges read in
  non local Contribution for L=           0  read in
    real space projection operators read in
  non local Contribution for L=           0  read in
    real space projection operators read in
  non local Contribution for L=           1  read in
    real space projection operators read in
  non local Contribution for L=           1  read in
    real space projection operators read in
    PAW grid and wavefunctions read in
 
   number of l-projection  operators is LMAX  =           4
   number of lm-projection operators is LMMAX =           8
 

 ----------------------------------------------------------------------------- 
|                                                                             |
|  ADVICE TO THIS USER RUNNING 'VASP/VAMP'   (HEAR YOUR MASTER'S VOICE ...):  |
|                                                                             |
|      You have a (more or less) 'large supercell' and for larger cells       |
|      it might be more efficient to use real space projection operators      |
|      So try LREAL= Auto  in the INCAR   file.                               |
|      Mind: If you want to do a very accurate calculations keep the          |
|      reciprocal projection scheme          (i.e. LREAL=.FALSE.)             |
|                                                                             |
 ----------------------------------------------------------------------------- 

PAW_PBE H 15Jun2001                     :
 energy of atom  1       EATOM=  -12.4884
 kinetic energy error for atom=    0.0004 (will be added to EATOM!!)
PAW_PBE C 08Apr2002                     :
 energy of atom  2       EATOM= -147.1560
 kinetic energy error for atom=    0.0057 (will be added to EATOM!!)
 
 
 POSCAR: methane-high                            
  positions in direct lattice
  No initial velocities read in
 exchange correlation table for  LEXCH =        8
   RHO(1)=    0.500       N(1)  =     2000
   RHO(2)=  100.500       N(2)  =     4000
 


--------------------------------------------------------------------------------------------------------


 ion  position               nearest neighbor table
   1  0.801  0.580  0.934-  65 1.02
   2  0.199  0.420  0.066-  66 1.02
   3  0.199  0.920  0.434-  67 1.02
   4  0.801  0.080  0.566-  68 1.02
   5  0.199  0.080  0.566-  67 1.02
   6  0.801  0.920  0.434-  68 1.02
   7  0.801  0.420  0.066-  65 1.02
   8  0.199  0.580  0.934-  66 1.02
   9  0.301  0.080  0.934-  69 1.02
  10  0.699  0.920  0.066-  70 1.02
  11  0.699  0.420  0.434-  71 1.02
  12  0.301  0.580  0.566-  72 1.02
  13  0.699  0.580  0.566-  71 1.02
  14  0.301  0.420  0.434-  72 1.02
  15  0.301  0.920  0.066-  69 1.02
  16  0.699  0.080  0.934-  70 1.02
  17  0.699  0.566  0.080-  65 1.02
  18  0.301  0.434  0.920-  66 1.02
  19  0.301  0.934  0.580-  67 1.02
  20  0.699  0.066  0.420-  68 1.02
  21  0.301  0.066  0.420-  67 1.02
  22  0.699  0.934  0.580-  68 1.02
  23  0.699  0.434  0.920-  65 1.02
  24  0.301  0.566  0.080-  66 1.02
  25  0.199  0.066  0.080-  69 1.02
  26  0.801  0.934  0.920-  70 1.02
  27  0.801  0.434  0.580-  71 1.02
  28  0.199  0.566  0.420-  72 1.02
  29  0.801  0.566  0.420-  71 1.02
  30  0.199  0.434  0.580-  72 1.02
  31  0.199  0.934  0.920-  69 1.02
  32  0.801  0.066  0.080-  70 1.02
  33  0.073  0.785  0.182-  57 1.03
  34  0.927  0.215  0.818-  58 1.03
  35  0.927  0.715  0.682-  59 1.03
  36  0.073  0.285  0.318-  60 1.03
  37  0.927  0.285  0.318-  60 1.03
  38  0.073  0.715  0.682-  59 1.03
  39  0.073  0.215  0.818-  58 1.03
  40  0.927  0.785  0.182-  57 1.03
  41  0.573  0.285  0.182-  61 1.03
  42  0.427  0.715  0.818-  62 1.03
  43  0.427  0.215  0.682-  63 1.03
  44  0.573  0.785  0.318-  64 1.03
  45  0.427  0.785  0.318-  64 1.03
  46  0.573  0.215  0.682-  63 1.03
  47  0.573  0.715  0.818-  62 1.03
  48  0.427  0.285  0.182-  61 1.03
  49  0.000  0.606  0.199-  57 1.03
  50  0.000  0.394  0.801-  58 1.03
  51  0.000  0.894  0.699-  59 1.03
  52  0.000  0.106  0.301-  60 1.03
  53  0.500  0.106  0.199-  61 1.03
  54  0.500  0.894  0.801-  62 1.03
  55  0.500  0.394  0.699-  63 1.03
  56  0.500  0.606  0.301-  64 1.03
  57  0.000  0.730  0.230-  40 1.03  33 1.03  49 1.03
  58  0.000  0.270  0.770-  34 1.03  39 1.03  50 1.03
  59  0.000  0.770  0.730-  35 1.03  38 1.03  51 1.03
  60  0.000  0.230  0.270-  37 1.03  36 1.03  52 1.03
  61  0.500  0.230  0.230-  41 1.03  48 1.03  53 1.03
  62  0.500  0.770  0.770-  47 1.03  42 1.03  54 1.03
  63  0.500  0.270  0.730-  46 1.03  43 1.03  55 1.03
  64  0.500  0.730  0.270-  44 1.03  45 1.03  56 1.03
  65  0.750  0.500  0.000-   1 1.02   7 1.02  17 1.02  23 1.02
  66  0.250  0.500  0.000-   2 1.02   8 1.02  18 1.02  24 1.02
  67  0.250  0.000  0.500-   3 1.02   5 1.02  19 1.02  21 1.02
  68  0.750  0.000  0.500-   4 1.02   6 1.02  20 1.02  22 1.02
  69  0.250  0.000  0.000-   9 1.02  15 1.02  25 1.02  31 1.02
  70  0.750  0.000  0.000-  10 1.02  16 1.02  26 1.02  32 1.02
  71  0.750  0.500  0.500-  11 1.02  13 1.02  27 1.02  29 1.02
  72  0.250  0.500  0.500-  12 1.02  14 1.02  28 1.02  30 1.02
 
  LATTYP: Found a simple orthorhombic cell.
 ALAT       =     8.0735894287
 B/A-ratio  =     1.0006230659
 C/A-ratio  =     1.4305490624
  
  Lattice vectors:
  
 A1 = (   0.0000000000,   0.0000000000,  -8.0735894287)
 A2 = (   0.0000000000,  -8.0786198073,   0.0000000000)
 A3 = ( -11.5496657878,   0.0000000000,   0.0000000000)


Analysis of symmetry for initial positions (statically):
=====================================================================
 Subroutine PRICEL returns following result:
 
  LATTYP: Found a base centered orthorhombic cell.
 ALAT       =     8.0786198073
 B/A-ratio  =     1.4296582910
 C/A-ratio  =     0.9993773220
  
  Lattice vectors:
  
 A1 = (   5.7748328939,  -4.0393099037,   0.0000000000)
 A2 = (  -5.7748328939,  -4.0393099037,   0.0000000000)
 A3 = (   0.0000000000,   0.0000000000,  -8.0735894287)
 
   2 primitive cells build up your supercell.
 

 Routine SETGRP: Setting up the symmetry group for a 
 simple orthorhombic supercell.


 Subroutine GETGRP returns: Found  8 space group operations
 (whereof  4 operations were pure point group operations)
 out of a pool of  8 trial point group operations.


The static configuration has the point symmetry C_2h.
 The point group associated with its full space group is D_2h.


Analysis of symmetry for dynamics (positions and initial velocities):
=====================================================================
 Subroutine PRICEL returns following result:
 
  LATTYP: Found a base centered orthorhombic cell.
 ALAT       =     8.0786198073
 B/A-ratio  =     1.4296582910
 C/A-ratio  =     0.9993773220
  
  Lattice vectors:
  
 A1 = (   5.7748328939,  -4.0393099037,   0.0000000000)
 A2 = (  -5.7748328939,  -4.0393099037,   0.0000000000)
 A3 = (   0.0000000000,   0.0000000000,  -8.0735894287)
 
   2 primitive cells build up your supercell.
 

 Routine SETGRP: Setting up the symmetry group for a 
 simple orthorhombic supercell.


 Subroutine GETGRP returns: Found  8 space group operations
 (whereof  4 operations were pure point group operations)
 out of a pool of  8 trial point group operations.


The dynamic configuration has the point symmetry C_2h.
 The point group associated with its full space group is D_2h.
 
 
 KPOINTS: B4C B11C-CBC                            

Automatic generation of k-mesh.
Space group operators:
 irot       det(A)        alpha          n_x          n_y          n_z        tau_x        tau_y        tau_z
    1     1.000000     0.000000     1.000000     0.000000     0.000000     0.000000     0.000000     0.000000
    2    -1.000000     0.000000     1.000000     0.000000     0.000000     0.000000     0.000000     0.000000
    3     1.000000   180.000000     1.000000     0.000000     0.000000     0.000000     0.000000     0.000000
    4    -1.000000   180.000000     1.000000     0.000000     0.000000     0.000000     0.000000     0.000000
    5     1.000000   180.000000     0.000000     1.000000     0.000000     0.000000    -0.500000    -0.500000
    6    -1.000000   180.000000     0.000000     1.000000     0.000000     0.000000    -0.500000    -0.500000
    7     1.000000   180.000000     0.000000     0.000000     1.000000     0.000000    -0.500000    -0.500000
    8    -1.000000   180.000000     0.000000     0.000000     1.000000     0.000000    -0.500000    -0.500000
 
 Subroutine IBZKPT returns following result:
 ===========================================
 
 Found     27 irreducible k-points:
 
 Following reciprocal coordinates:
            Coordinates               Weight
  0.000000  0.000000  0.000000      1.000000
  0.250000  0.000000  0.000000      2.000000
  0.500000  0.000000  0.000000      1.000000
  0.000000  0.250000  0.000000      2.000000
  0.250000  0.250000  0.000000      4.000000
  0.500000  0.250000  0.000000      2.000000
  0.000000  0.500000  0.000000      1.000000
  0.250000  0.500000  0.000000      2.000000
  0.500000  0.500000  0.000000      1.000000
  0.000000  0.000000  0.250000      2.000000
  0.250000  0.000000  0.250000      4.000000
  0.500000  0.000000  0.250000      2.000000
  0.000000  0.250000  0.250000      4.000000
  0.250000  0.250000  0.250000      8.000000
  0.500000  0.250000  0.250000      4.000000
  0.000000  0.500000  0.250000      2.000000
  0.250000  0.500000  0.250000      4.000000
  0.500000  0.500000  0.250000      2.000000
  0.000000  0.000000  0.500000      1.000000
  0.250000  0.000000  0.500000      2.000000
  0.500000  0.000000  0.500000      1.000000
  0.000000  0.250000  0.500000      2.000000
  0.250000  0.250000  0.500000      4.000000
  0.500000  0.250000  0.500000      2.000000
  0.000000  0.500000  0.500000      1.000000
  0.250000  0.500000  0.500000      2.000000
  0.500000  0.500000  0.500000      1.000000
 
 Following cartesian coordinates:
            Coordinates               Weight
  0.000000  0.000000  0.000000      1.000000
  0.021353  0.000000  0.000000      2.000000
  0.042706  0.000000  0.000000      1.000000
  0.000000  0.030528  0.000000      2.000000
  0.021353  0.030528  0.000000      4.000000
  0.042706  0.030528  0.000000      2.000000
  0.000000  0.061055  0.000000      1.000000
  0.021353  0.061055  0.000000      2.000000
  0.042706  0.061055  0.000000      1.000000
  0.000000  0.000000  0.030547      2.000000
  0.021353  0.000000  0.030547      4.000000
  0.042706  0.000000  0.030547      2.000000
  0.000000  0.030528  0.030547      4.000000
  0.021353  0.030528  0.030547      8.000000
  0.042706  0.030528  0.030547      4.000000
  0.000000  0.061055  0.030547      2.000000
  0.021353  0.061055  0.030547      4.000000
  0.042706  0.061055  0.030547      2.000000
  0.000000  0.000000  0.061093      1.000000
  0.021353  0.000000  0.061093      2.000000
  0.042706  0.000000  0.061093      1.000000
  0.000000  0.030528  0.061093      2.000000
  0.021353  0.030528  0.061093      4.000000
  0.042706  0.030528  0.061093      2.000000
  0.000000  0.061055  0.061093      1.000000
  0.021353  0.061055  0.061093      2.000000
  0.042706  0.061055  0.061093      1.000000
 
 TETIRR: Found    192 inequivalent tetrahedra from      384


--------------------------------------------------------------------------------------------------------




 Dimension of arrays:
   k-points           NKPTS =     27   k-points in BZ     NKDIM =     27   number of bands    NBANDS=     98
   number of dos      NEDOS =    301   number of ions     NIONS =     72
   non local maximal  LDIM  =      4   non local SUM 2l+1 LMDIM =      8
   total plane-waves  NPLWV = 161280
   max r-space proj   IRMAX =      1   max aug-charges    IRDMAX=   2726
   dimension x,y,z NGX =    70 NGY =   48 NGZ =   48
   dimension x,y,z NGXF=   140 NGYF=   96 NGZF=   96
   support grid    NGXF=   140 NGYF=   96 NGZF=   96
   ions per type =              56  16
 NGX,Y,Z   is equivalent  to a cutoff of  10.08,  9.88,  9.88 a.u.
 NGXF,Y,Z  is equivalent  to a cutoff of  20.15, 19.76, 19.77 a.u.


 I would recommend the setting:
   dimension x,y,z NGX =    69 NGY =   48 NGZ =   48
 SYSTEM =  diamond                                 
 POSCAR =  methane-high                            

 Startparameter for this run:
   NWRITE =      2    write-flag & timer
   PREC   = normal    normal or accurate (medium, high low for compatibility)
   ISTART =      0    job   : 0-new  1-cont  2-samecut
   ICHARG =      2    charge: 1-file 2-atom 10-const
   ISPIN  =      1    spin polarized calculation?
   LNONCOLLINEAR =      F non collinear calculations
   LSORBIT =      F    spin-orbit coupling
   INIWAV =      1    electr: 0-lowe 1-rand  2-diag
   LASPH  =      F    aspherical Exc in radial PAW
   METAGGA=      F    non-selfconsistent MetaGGA calc.

 Electronic Relaxation 1
   ENCUT  =  600.0 eV  44.10 Ry    6.64 a.u.  23.07 16.14 16.12*2*pi/ulx,y,z
   ENINI  =  600.0     initial cutoff
   ENAUG  =  644.9 eV  augmentation charge cutoff
   NELM   =    200;   NELMIN=  2; NELMDL=  0     # of ELM steps 
   EDIFF  = 0.1E-05   stopping-criterion for ELM
   LREAL  =      F    real-space projection
   NLSPLINE    = F    spline interpolate recip. space projectors
   LCOMPAT=      F    compatible to vasp.4.4
   GGA_COMPAT  = T    GGA compatible to vasp.4.4-vasp.4.6
   LMAXPAW     = -100 max onsite density
   LMAXMIX     =    2 max onsite mixed and CHGCAR
   VOSKOWN=      0    Vosko Wilk Nusair interpolation
   ROPT   =    0.00000   0.00000
 Ionic relaxation
   EDIFFG = 0.1E-02   stopping-criterion for IOM
   NSW    =    200    number of steps for IOM
   NBLOCK =      1;   KBLOCK =    200    inner block; outer block 
   IBRION =      2    ionic relax: 0-MD 1-quasi-New 2-CG
   NFREE  =      1    steps in history (QN), initial steepest desc. (CG)
   ISIF   =      2    stress and relaxation
   IWAVPR =     11    prediction:  0-non 1-charg 2-wave 3-comb
   ISYM   =      2    0-nonsym 1-usesym 2-fastsym
   LCORR  =      T    Harris-Foulkes like correction to forces

   POTIM  = 0.5000    time-step for ionic-motion
   TEIN   =    0.0    initial temperature
   TEBEG  =    0.0;   TEEND  =   0.0 temperature during run
   SMASS  =  -3.00    Nose mass-parameter (am)
   estimated Nose-frequenzy (Omega)   =  0.10E-29 period in steps =****** mass=  -0.305E-26a.u.
   SCALEE = 1.0000    scale energy and forces
   NPACO  =    256;   APACO  = 16.0  distance and # of slots for P.C.
   PSTRESS=    0.0 pullay stress

  Mass of Ions in am
   POMASS =   1.00 12.01
  Ionic Valenz
   ZVAL   =   1.00  4.00
  Atomic Wigner-Seitz radii
   RWIGS  =  -1.00 -1.00
  virtual crystal weights 
   VCA    =   1.00  1.00
   NELECT =     120.0000    total number of electrons
   NUPDOWN=      -1.0000    fix difference up-down

 DOS related values:
   EMIN   =  10.00;   EMAX   =-10.00  energy-range for DOS
   EFERMI =   0.00
   ISMEAR =    -5;   SIGMA  =   0.20  broadening in eV -4-tet -1-fermi 0-gaus

 Electronic relaxation 2 (details)
   IALGO  =     38    algorithm
   LDIAG  =      T    sub-space diagonalisation (order eigenvalues)
   LSUBROT=      F    optimize rotation matrix (better conditioning)
   TURBO    =      0    0=normal 1=particle mesh
   IRESTART =      0    0=no restart 2=restart with 2 vectors
   NREBOOT  =      0    no. of reboots
   NMIN     =      0    reboot dimension
   EREF     =   0.00    reference energy to select bands
   IMIX   =      4    mixing-type and parameters
     AMIX     =   0.40;   BMIX     =  1.00
     AMIX_MAG =   1.60;   BMIX_MAG =  1.00
     AMIN     =   0.10
     WC   =   100.;   INIMIX=   1;  MIXPRE=   1;  MAXMIX= -45

 Intra band minimization:
   WEIMIN = 0.0010     energy-eigenvalue tresh-hold
   EBREAK =  0.26E-08  absolut break condition
   DEPER  =   0.30     relativ break condition  

   TIME   =   0.40     timestep for ELM

  volume/ion in A,a.u.               =      10.46        70.61
  Fermi-wavevector in a.u.,A,eV,Ry     =   0.887451  1.677038 10.715520  0.787568
  Thomas-Fermi vector in A             =   2.008750
 
 Write flags
   LWAVE  =      F    write WAVECAR
   LCHARG =      F    write CHGCAR
   LVTOT  =      F    write LOCPOT, total local potential
   LVHAR  =      F    write LOCPOT, Hartree potential only
   LELF   =      F    write electronic localiz. function (ELF)
   LORBIT =      0    0 simple, 1 ext, 2 COOP (PROOUT)


 Dipole corrections
   LMONO  =      F    monopole corrections only (constant potential shift)
   LDIPOL =      F    correct potential (dipole corrections)
   IDIPOL =      0    1-x, 2-y, 3-z, 4-all directions 
   EPSILON=  1.0000000 bulk dielectric constant

 Exchange correlation treatment:
   GGA     =    PE    GGA type
   LEXCH   =     8    internal setting for exchange type
   VOSKOWN=      0    Vosko Wilk Nusair interpolation
   LHFCALC =     F    Hartree Fock is set to
   LHFONE  =     F    Hartree Fock one center treatment
   AEXX    =    0.0000 exact exchange contribution

 Linear response parameters
   LEPSILON=     F    determine dielectric tensor
   LRPA    =     F    only Hartree local field effects (RPA)
   LNABLA  =     F    use nabla operator in PAW spheres
   LVEL    =     F    velocity operator in full k-point grid
   LINTERFAST=   F  fast interpolation
   KINTER  =     0    interpolate to denser k-point grid
   CSHIFT  =0.1000    complex shift for real part using Kramers Kronig
   OMEGAMAX=  -1.0    maximum frequency
   DEG_THRESHOLD= 0.2000000E-02 threshold for treating states as degnerate
   RTIME   =    0.100 relaxation time in fs

 Orbital magnetization related:
   ORBITALMAG=     F  switch on orbital magnetization
   LCHIMAG   =     F  perturbation theory with respect to B field
   DQ        =  0.001000  dq finite difference perturbation B field



--------------------------------------------------------------------------------------------------------


 conjugate gradient relaxation of ions
 charge density and potential will be updated during run
 non-spin polarized calculation
 Variant of blocked Davidson
 Davidson routine will perform the subspace rotation
 perform sub-space diagonalisation
    after iterative eigenvector-optimisation
 modified Broyden-mixing scheme, WC =      100.0
 initial mixing is a Kerker type mixing with AMIX =  0.4000 and BMIX =      1.0000
 Hartree-type preconditioning will be used
 using additional bands           38
 reciprocal scheme for non local part
 calculate Harris-corrections to forces 
   (improved forces if not selfconsistent)
 use gradient corrections 
 use of overlap-Matrix (Vanderbilt PP)
 Fermi weights with tetrahedron method with Bloechl corrections


--------------------------------------------------------------------------------------------------------


  energy-cutoff  :      600.00
  volume of cell :      753.31
      direct lattice vectors                 reciprocal lattice vectors
    11.549665788  0.000000000  0.000000000     0.086582592  0.000000000  0.000000000
     0.000000000  8.078619807  0.000000000     0.000000000  0.123783520  0.000000000
     0.000000000  0.000000000  8.073589429     0.000000000  0.000000000  0.123860646

  length of vectors
    11.549665788  8.078619807  8.073589429     0.086582592  0.123783520  0.123860646


 
 k-points in units of 2pi/SCALE and weight: B4C B11C-CBC                            
   0.00000000  0.00000000  0.00000000       0.016
   0.02135310  0.00000000  0.00000000       0.031
   0.04270621  0.00000000  0.00000000       0.016
   0.00000000  0.03052764  0.00000000       0.031
   0.02135310  0.03052764  0.00000000       0.062
   0.04270621  0.03052764  0.00000000       0.031
   0.00000000  0.06105528  0.00000000       0.016
   0.02135310  0.06105528  0.00000000       0.031
   0.04270621  0.06105528  0.00000000       0.016
   0.00000000  0.00000000  0.03054666       0.031
   0.02135310  0.00000000  0.03054666       0.062
   0.04270621  0.00000000  0.03054666       0.031
   0.00000000  0.03052764  0.03054666       0.062
   0.02135310  0.03052764  0.03054666       0.125
   0.04270621  0.03052764  0.03054666       0.062
   0.00000000  0.06105528  0.03054666       0.031
   0.02135310  0.06105528  0.03054666       0.062
   0.04270621  0.06105528  0.03054666       0.031
   0.00000000  0.00000000  0.06109332       0.016
   0.02135310  0.00000000  0.06109332       0.031
   0.04270621  0.00000000  0.06109332       0.016
   0.00000000  0.03052764  0.06109332       0.031
   0.02135310  0.03052764  0.06109332       0.062
   0.04270621  0.03052764  0.06109332       0.031
   0.00000000  0.06105528  0.06109332       0.016
   0.02135310  0.06105528  0.06109332       0.031
   0.04270621  0.06105528  0.06109332       0.016
 
 k-points in reciprocal lattice and weights: B4C B11C-CBC                            
   0.00000000  0.00000000  0.00000000       0.016
   0.25000000  0.00000000  0.00000000       0.031
   0.50000000  0.00000000  0.00000000       0.016
   0.00000000  0.25000000  0.00000000       0.031
   0.25000000  0.25000000  0.00000000       0.062
   0.50000000  0.25000000  0.00000000       0.031
   0.00000000  0.50000000  0.00000000       0.016
   0.25000000  0.50000000  0.00000000       0.031
   0.50000000  0.50000000  0.00000000       0.016
   0.00000000  0.00000000  0.25000000       0.031
   0.25000000  0.00000000  0.25000000       0.062
   0.50000000  0.00000000  0.25000000       0.031
   0.00000000  0.25000000  0.25000000       0.062
   0.25000000  0.25000000  0.25000000       0.125
   0.50000000  0.25000000  0.25000000       0.062
   0.00000000  0.50000000  0.25000000       0.031
   0.25000000  0.50000000  0.25000000       0.062
   0.50000000  0.50000000  0.25000000       0.031
   0.00000000  0.00000000  0.50000000       0.016
   0.25000000  0.00000000  0.50000000       0.031
   0.50000000  0.00000000  0.50000000       0.016
   0.00000000  0.25000000  0.50000000       0.031
   0.25000000  0.25000000  0.50000000       0.062
   0.50000000  0.25000000  0.50000000       0.031
   0.00000000  0.50000000  0.50000000       0.016
   0.25000000  0.50000000  0.50000000       0.031
   0.50000000  0.50000000  0.50000000       0.016
 
 position of ions in fractional coordinates (direct lattice) 
   0.80100000  0.57950002  0.93360001
   0.19900000  0.42049998  0.06639999
   0.19900000  0.92049998  0.43360001
   0.80100000  0.07950002  0.56639999
   0.19900000  0.07950002  0.56639999
   0.80100000  0.92049998  0.43360001
   0.80100000  0.42049998  0.06639999
   0.19900000  0.57950002  0.93360001
   0.30100000  0.07950002  0.93360001
   0.69900000  0.92049998  0.06639999
   0.69900000  0.42049998  0.43360001
   0.30100000  0.57950002  0.56639999
   0.69900000  0.57950002  0.56639999
   0.30100000  0.42049998  0.43360001
   0.30100000  0.92049998  0.06639999
   0.69900000  0.07950002  0.93360001
   0.69859999  0.56629997  0.07959998
   0.30140001  0.43370003  0.92040002
   0.30140001  0.93370003  0.57959998
   0.69859999  0.06629997  0.42040002
   0.30140001  0.06629997  0.42040002
   0.69859999  0.93370003  0.57959998
   0.69859999  0.43370003  0.92040002
   0.30140001  0.56629997  0.07959998
   0.19859999  0.06629997  0.07959998
   0.80140001  0.93370003  0.92040002
   0.80140001  0.43370003  0.57959998
   0.19859999  0.56629997  0.42040002
   0.80140001  0.56629997  0.42040002
   0.19859999  0.43370003  0.57959998
   0.19859999  0.93370003  0.92040002
   0.80140001  0.06629997  0.07959998
   0.07280000  0.78549999  0.18230000
   0.92720002  0.21450001  0.81770003
   0.92720002  0.71450001  0.68229997
   0.07280000  0.28549999  0.31770000
   0.92720002  0.28549999  0.31770000
   0.07280000  0.71450001  0.68229997
   0.07280000  0.21450001  0.81770003
   0.92720002  0.78549999  0.18230000
   0.57279998  0.28549999  0.18230000
   0.42719999  0.71450001  0.81770003
   0.42719999  0.21450001  0.68229997
   0.57279998  0.78549999  0.31770000
   0.42719999  0.78549999  0.31770000
   0.57279998  0.21450001  0.68229997
   0.57279998  0.71450001  0.81770003
   0.42719999  0.28549999  0.18230000
   0.00000000  0.60589999  0.19920000
   0.00000000  0.39410001  0.80079997
   0.00000000  0.89410001  0.69920003
   0.00000000  0.10589999  0.30080000
   0.50000000  0.10589999  0.19920000
   0.50000000  0.89410001  0.80079997
   0.50000000  0.39410001  0.69920003
   0.50000000  0.60589999  0.30080000
   0.00000000  0.72960001  0.23029999
   0.00000000  0.27039999  0.76969999
   0.00000000  0.77039999  0.73030001
   0.00000000  0.22960001  0.26969999
   0.50000000  0.22960001  0.23029999
   0.50000000  0.77039999  0.76969999
   0.50000000  0.27039999  0.73030001
   0.50000000  0.72960001  0.26969999
   0.74980003  0.50000000  0.00000000
   0.25019997  0.50000000  0.00000000
   0.25019997  0.00000000  0.50000000
   0.74980003  0.00000000  0.50000000
   0.24980003  0.00000000  0.00000000
   0.75019997  0.00000000  0.00000000
   0.75019997  0.50000000  0.50000000
   0.24980003  0.50000000  0.50000000
 
 position of ions in cartesian coordinates  (Angst):
   9.25128228  4.68156034  7.53750316
   2.29838350  3.39705947  0.53608627
   2.29838350  7.43636937  3.50070844
   9.25128228  0.64225044  4.57288099
   2.29838350  0.64225044  4.57288099
   9.25128228  7.43636937  3.50070844
   9.25128228  3.39705947  0.53608627
   2.29838350  4.68156034  7.53750316
   3.47644939  0.64225044  7.53750316
   8.07321640  7.43636937  0.53608627
   8.07321640  3.39705947  3.50070844
   3.47644939  4.68156034  4.57288099
   8.07321640  4.68156034  4.57288099
   3.47644939  3.39705947  3.50070844
   3.47644939  7.43636937  0.53608627
   8.07321640  0.64225044  7.53750316
   8.06859645  4.57492219  0.64265753
   3.48106934  3.50369761  7.43093190
   3.48106934  7.54300752  4.67945225
   8.06859645  0.53561229  3.39413718
   3.48106934  0.53561229  3.39413718
   8.06859645  7.54300752  4.67945225
   8.06859645  3.50369761  7.43093190
   3.48106934  4.57492219  0.64265753
   2.29376356  0.53561229  0.64265753
   9.25590223  7.54300752  7.43093190
   9.25590223  3.50369761  4.67945225
   2.29376356  4.57492219  3.39413718
   9.25590223  4.57492219  3.39413718
   2.29376356  3.50369761  4.67945225
   2.29376356  7.54300752  7.43093190
   9.25590223  0.53561229  0.64265753
   0.84081570  6.34575578  1.47181536
  10.70885034  1.73286403  6.60177430
  10.70885034  5.77217393  5.50860984
   0.84081570  2.30644587  2.56497935
  10.70885034  2.30644587  2.56497935
   0.84081570  5.77217393  5.50860984
   0.84081570  1.73286403  6.60177430
  10.70885034  6.34575578  1.47181536
   6.61564834  2.30644587  1.47181536
   4.93401711  5.77217393  6.60177430
   4.93401711  1.73286403  5.50860984
   6.61564834  6.34575578  2.56497935
   4.93401711  6.34575578  2.56497935
   6.61564834  1.73286403  5.50860984
   6.61564834  5.77217393  6.60177430
   4.93401711  2.30644587  1.47181536
   0.00000000  4.89483566  1.60825905
   0.00000000  3.18378415  6.46533014
   0.00000000  7.22309405  5.64505400
   0.00000000  0.85552576  2.42853567
   5.77483289  0.85552576  1.60825905
   5.77483289  7.22309405  6.46533014
   5.77483289  3.18378415  5.64505400
   5.77483289  4.89483566  2.42853567
   0.00000000  5.89416111  1.85934760
   0.00000000  2.18445870  6.21424171
   0.00000000  6.22376860  5.89614243
   0.00000000  1.85485120  2.17744700
   5.77483289  1.85485120  1.85934760
   5.77483289  6.22376860  6.21424171
   5.77483289  2.18445870  5.89614243
   5.77483289  5.89416111  2.17744700
   8.65993971  4.03930990  0.00000000
   2.88972608  4.03930990  0.00000000
   2.88972608  0.00000000  4.03679471
   8.65993971  0.00000000  4.03679471
   2.88510681  0.00000000  0.00000000
   8.66455897  0.00000000  0.00000000
   8.66455897  4.03930990  4.03679471
   2.88510681  4.03930990  4.03679471
 


--------------------------------------------------------------------------------------------------------


 k-point  1 :   0.0000 0.0000 0.0000  plane waves:   25051
 k-point  2 :   0.2500 0.0000 0.0000  plane waves:   25098
 k-point  3 :   0.5000 0.0000 0.0000  plane waves:   25126
 k-point  4 :   0.0000 0.2500 0.0000  plane waves:   25126
 k-point  5 :   0.2500 0.2500 0.0000  plane waves:   25156
 k-point  6 :   0.5000 0.2500 0.0000  plane waves:   25138
 k-point  7 :   0.0000 0.5000 0.0000  plane waves:   25140
 k-point  8 :   0.2500 0.5000 0.0000  plane waves:   25170
 k-point  9 :   0.5000 0.5000 0.0000  plane waves:   25136
 k-point 10 :   0.0000 0.0000 0.2500  plane waves:   25136
 k-point 11 :   0.2500 0.0000 0.2500  plane waves:   25156
 k-point 12 :   0.5000 0.0000 0.2500  plane waves:   25140
 k-point 13 :   0.0000 0.2500 0.2500  plane waves:   25130
 k-point 14 :   0.2500 0.2500 0.2500  plane waves:   25163
 k-point 15 :   0.5000 0.2500 0.2500  plane waves:   25150
 k-point 16 :   0.0000 0.5000 0.2500  plane waves:   25152
 k-point 17 :   0.2500 0.5000 0.2500  plane waves:   25122
 k-point 18 :   0.5000 0.5000 0.2500  plane waves:   25140
 k-point 19 :   0.0000 0.0000 0.5000  plane waves:   25148
 k-point 20 :   0.2500 0.0000 0.5000  plane waves:   25158
 k-point 21 :   0.5000 0.0000 0.5000  plane waves:   25136
 k-point 22 :   0.0000 0.2500 0.5000  plane waves:   25138
 k-point 23 :   0.2500 0.2500 0.5000  plane waves:   25116
 k-point 24 :   0.5000 0.2500 0.5000  plane waves:   25144
 k-point 25 :   0.0000 0.5000 0.5000  plane waves:   25188
 k-point 26 :   0.2500 0.5000 0.5000  plane waves:   25172
 k-point 27 :   0.5000 0.5000 0.5000  plane waves:   25152

 maximum and minimum number of plane-waves per node :     12614    12496

 maximum number of plane-waves:     25188
 maximum index in each direction: 
   IXMAX=   23   IYMAX=   16   IZMAX=   16
   IXMIN=  -23   IYMIN=  -16   IZMIN=  -16

 WARNING: aliasing errors must be expected set NGX to  94 to avoid them
 WARNING: aliasing errors must be expected set NGY to  66 to avoid them
 WARNING: aliasing errors must be expected set NGZ to  66 to avoid them
 aliasing errors are usually negligible using standard VASP settings
 and one can safely disregard these warnings

 parallel 3D FFT for wavefunctions:
    minimum data exchange during FFTs selected (reduces bandwidth)
 parallel 3D FFT for charge:
    minimum data exchange during FFTs selected (reduces bandwidth)


 total amount of memory used by VASP on root node   394193. kBytes
========================================================================

   base      :      30000. kBytes
   nonl-proj :      58033. kBytes
   fftplans  :      13558. kBytes
   grid      :      21584. kBytes
   one-center:        110. kBytes
   wavefun   :     270908. kBytes
 
     INWAV:  cpu time    0.00: real time    0.00
 Broyden mixing: mesh for mixing (old mesh)
   NGX = 47   NGY = 33   NGZ = 33
  (NGX  =140   NGY  = 96   NGZ  = 96)
  gives a total of  51183 points

 initial charge density was supplied:
 charge density of overlapping atoms calculated
 number of electron     120.0000000 magnetization 
 keeping initial charge density in first step


--------------------------------------------------------------------------------------------------------


 Maximum index for augmentation-charges          620 (set IRDMAX)


--------------------------------------------------------------------------------------------------------


 First call to EWALD:  gamma=   0.195
 Maximum number of real-space cells 2x 3x 3
 Maximum number of reciprocal cells 3x 2x 2

 FEWALD executed in parallel
    FEWALD:  cpu time    0.01: real time    0.01


----------------------------------------- Iteration    1(   1)  ---------------------------------------


    POTLOK:  cpu time    0.30: real time    0.30
    SETDIJ:  cpu time    0.03: real time    0.03
     EDDAV:  cpu time  125.46: real time  125.54
 BZINTS: Fermi energy:  5.327952;120.000000 electrons
         Band energy:-702.849718;  BLOECHL correction: -0.071180
       DOS:  cpu time    0.04: real time    0.04
    --------------------------------------------
      LOOP:  cpu time  125.84: real time  125.92

 eigenvalue-minimisations  :  5316
 total energy-change (2. order) : 0.4693270E+03  (-0.5243306E+04)
 number of electron     120.0000000 magnetization 
 augmentation part      120.0000000 magnetization 

 Free energy of the ion-electron system (eV)
  ---------------------------------------------------
  alpha Z        PSCENC =        73.65070702
  Ewald energy   TEWEN  =     -1157.70671763
  -Hartree energ DENC   =     -1127.49530089
  -exchange      EXHF   =         0.00000000
  -V(xc)+E(xc)   XCENC  =       348.90813554
  PAW double counting   =       649.05732928     -667.96943662
  entropy T*S    EENTRO =         0.00000000
  eigenvalues    EBANDS =      -702.84971848
  atomic energy  EATOM  =      3053.73195627
  ---------------------------------------------------
  free energy    TOTEN  =       469.32695451 eV

  energy without entropy =      469.32695451  energy(sigma->0) =      469.32695451


--------------------------------------------------------------------------------------------------------




----------------------------------------- Iteration    1(   2)  ---------------------------------------


     EDDAV:  cpu time  142.12: real time  142.20
 BZINTS: Fermi energy: -3.866300;120.000000 electrons
         Band energy:***********;  BLOECHL correction: -0.002171
       DOS:  cpu time    0.04: real time    0.04
    --------------------------------------------
      LOOP:  cpu time  142.16: real time  142.25

 eigenvalue-minimisations  :  6396
 total energy-change (2. order) :-0.7646380E+03  (-0.7433077E+03)
 number of electron     120.0000000 magnetization 
 augmentation part      120.0000000 magnetization 

 Free energy of the ion-electron system (eV)
  ---------------------------------------------------
  alpha Z        PSCENC =        73.65070702
  Ewald energy   TEWEN  =     -1157.70671763
  -Hartree energ DENC   =     -1127.49530089
  -exchange      EXHF   =         0.00000000
  -V(xc)+E(xc)   XCENC  =       348.90813554
  PAW double counting   =       649.05732928     -667.96943662
  entropy T*S    EENTRO =         0.00000000
  eigenvalues    EBANDS =     -1467.48769948
  atomic energy  EATOM  =      3053.73195627
  ---------------------------------------------------
  free energy    TOTEN  =      -295.31102649 eV

  energy without entropy =     -295.31102649  energy(sigma->0) =     -295.31102649


--------------------------------------------------------------------------------------------------------




----------------------------------------- Iteration    1(   3)  ---------------------------------------


     EDDAV:  cpu time  154.01: real time  154.10
 BZINTS: Fermi energy: -4.926953;120.000000 electrons
         Band energy:***********;  BLOECHL correction: -0.000002
       DOS:  cpu time    0.03: real time    0.03
    --------------------------------------------
      LOOP:  cpu time  154.04: real time  154.14

 eigenvalue-minimisations  :  6672
 total energy-change (2. order) :-0.8403252E+02  (-0.8335252E+02)
 number of electron     120.0000000 magnetization 
 augmentation part      120.0000000 magnetization 

 Free energy of the ion-electron system (eV)
  ---------------------------------------------------
  alpha Z        PSCENC =        73.65070702
  Ewald energy   TEWEN  =     -1157.70671763
  -Hartree energ DENC   =     -1127.49530089
  -exchange      EXHF   =         0.00000000
  -V(xc)+E(xc)   XCENC  =       348.90813554
  PAW double counting   =       649.05732928     -667.96943662
  entropy T*S    EENTRO =         0.00000000
  eigenvalues    EBANDS =     -1551.52022146
  atomic energy  EATOM  =      3053.73195627
  ---------------------------------------------------
  free energy    TOTEN  =      -379.34354848 eV

  energy without entropy =     -379.34354848  energy(sigma->0) =     -379.34354848


--------------------------------------------------------------------------------------------------------




----------------------------------------- Iteration    1(   4)  ---------------------------------------


     EDDAV:  cpu time  150.70: real time  150.80
 BZINTS: Fermi energy: -4.955341;120.000000 electrons
         Band energy:***********;  BLOECHL correction:  0.000000
       DOS:  cpu time    0.01: real time    0.01
    --------------------------------------------
      LOOP:  cpu time  150.71: real time  150.82

 eigenvalue-minimisations  :  6616
 total energy-change (2. order) :-0.2283562E+01  (-0.2279695E+01)
 number of electron     120.0000000 magnetization 
 augmentation part      120.0000000 magnetization 

 Free energy of the ion-electron system (eV)
  ---------------------------------------------------
  alpha Z        PSCENC =        73.65070702
  Ewald energy   TEWEN  =     -1157.70671763
  -Hartree energ DENC   =     -1127.49530089
  -exchange      EXHF   =         0.00000000
  -V(xc)+E(xc)   XCENC  =       348.90813554
  PAW double counting   =       649.05732928     -667.96943662
  entropy T*S    EENTRO =         0.00000000
  eigenvalues    EBANDS =     -1553.80378340
  atomic energy  EATOM  =      3053.73195627
  ---------------------------------------------------
  free energy    TOTEN  =      -381.62711042 eV

  energy without entropy =     -381.62711042  energy(sigma->0) =     -381.62711042


--------------------------------------------------------------------------------------------------------




----------------------------------------- Iteration    1(   5)  ---------------------------------------


     EDDAV:  cpu time  150.63: real time  150.73
 BZINTS: Fermi energy: -4.961271;120.000000 electrons
         Band energy:***********;  BLOECHL correction:  0.000000
       DOS:  cpu time    0.01: real time    0.01
    CHARGE:  cpu time    2.12: real time    2.12
    MIXING:  cpu time    0.01: real time    0.01
    --------------------------------------------
      LOOP:  cpu time  152.76: real time  152.87

 eigenvalue-minimisations  :  6694
 total energy-change (2. order) :-0.5396194E-01  (-0.5393596E-01)
 number of electron     119.9999962 magnetization 
 augmentation part        3.5877988 magnetization 

 Broyden mixing:
  rms(total) = 0.36045E+01    rms(broyden)= 0.36043E+01
  rms(prec ) = 0.46921E+01
  weight for this iteration     100.00

 Free energy of the ion-electron system (eV)
  ---------------------------------------------------
  alpha Z        PSCENC =        73.65070702
  Ewald energy   TEWEN  =     -1157.70671763
  -Hartree energ DENC   =     -1127.49530089
  -exchange      EXHF   =         0.00000000
  -V(xc)+E(xc)   XCENC  =       348.90813554
  PAW double counting   =       649.05732928     -667.96943662
  entropy T*S    EENTRO =         0.00000000
  eigenvalues    EBANDS =     -1553.85774534
  atomic energy  EATOM  =      3053.73195627
  ---------------------------------------------------
  free energy    TOTEN  =      -381.68107236 eV

  energy without entropy =     -381.68107236  energy(sigma->0) =     -381.68107236


--------------------------------------------------------------------------------------------------------




----------------------------------------- Iteration    1(   6)  ---------------------------------------


    POTLOK:  cpu time    0.26: real time    0.26
    SETDIJ:  cpu time    0.03: real time    0.03
     EDDAV:  cpu time  130.93: real time  131.01
 BZINTS: Fermi energy: -3.325684;120.000000 electrons
         Band energy:***********;  BLOECHL correction:  0.000000
       DOS:  cpu time    0.01: real time    0.01
    CHARGE:  cpu time    2.12: real time    2.12
    MIXING:  cpu time    0.01: real time    0.01
    --------------------------------------------
      LOOP:  cpu time  133.37: real time  133.45

 eigenvalue-minimisations  :  5594
 total energy-change (2. order) : 0.4696825E+02  (-0.8432643E+01)
 number of electron     119.9999948 magnetization 
 augmentation part        3.1324025 magnetization 

 Broyden mixing:
  rms(total) = 0.15561E+01    rms(broyden)= 0.15561E+01
  rms(prec ) = 0.19248E+01
  weight for this iteration     100.00

 eigenvalues of (default mixing * dielectric matrix)
  average eigenvalue GAMMA=   1.3912
  1.3912

 Free energy of the ion-electron system (eV)
  ---------------------------------------------------
  alpha Z        PSCENC =        73.65070702
  Ewald energy   TEWEN  =     -1157.70671763
  -Hartree energ DENC   =     -1386.58351055
  -exchange      EXHF   =         0.00000000
  -V(xc)+E(xc)   XCENC  =       368.92316582
  PAW double counting   =      1123.82082956    -1146.37434774
  entropy T*S    EENTRO =         0.00000000
  eigenvalues    EBANDS =     -1264.17490263
  atomic energy  EATOM  =      3053.73195627
  ---------------------------------------------------
  free energy    TOTEN  =      -334.71281988 eV

  energy without entropy =     -334.71281988  energy(sigma->0) =     -334.71281988


--------------------------------------------------------------------------------------------------------




----------------------------------------- Iteration    1(   7)  ---------------------------------------


    POTLOK:  cpu time    0.31: real time    0.31
    SETDIJ:  cpu time    0.03: real time    0.03
     EDDAV:  cpu time  144.91: real time  145.03
 BZINTS: Fermi energy: -2.729487;120.000000 electrons
         Band energy:***********;  BLOECHL correction:  0.000000
       DOS:  cpu time    0.01: real time    0.01
    CHARGE:  cpu time    2.48: real time    2.48
    MIXING:  cpu time    0.01: real time    0.01
    --------------------------------------------
      LOOP:  cpu time  147.75: real time  147.87

 eigenvalue-minimisations  :  6266
 total energy-change (2. order) : 0.6668926E+01  (-0.1519234E+01)
 number of electron     119.9999944 magnetization 
 augmentation part        2.9791284 magnetization 

 Broyden mixing:
  rms(total) = 0.72377E+00    rms(broyden)= 0.72374E+00
  rms(prec ) = 0.83826E+00
  weight for this iteration     100.00

 eigenvalues of (default mixing * dielectric matrix)
  average eigenvalue GAMMA=   1.9009
  1.3922  2.4095

 Free energy of the ion-electron system (eV)
  ---------------------------------------------------
  alpha Z        PSCENC =        73.65070702
  Ewald energy   TEWEN  =     -1157.70671763
  -Hartree energ DENC   =     -1527.83237074
  -exchange      EXHF   =         0.00000000
  -V(xc)+E(xc)   XCENC  =       381.58842922
  PAW double counting   =      1431.73616857    -1455.30123627
  entropy T*S    EENTRO =         0.00000000
  eigenvalues    EBANDS =     -1127.91082985
  atomic energy  EATOM  =      3053.73195627
  ---------------------------------------------------
  free energy    TOTEN  =      -328.04389341 eV

  energy without entropy =     -328.04389341  energy(sigma->0) =     -328.04389341


--------------------------------------------------------------------------------------------------------




----------------------------------------- Iteration    1(   8)  ---------------------------------------


    POTLOK:  cpu time    0.30: real time    0.30
    SETDIJ:  cpu time    0.03: real time    0.03
     EDDAV:  cpu time  152.68: real time  152.76
 BZINTS: Fermi energy: -2.809646;120.000000 electrons
         Band energy:***********;  BLOECHL correction:  0.000000
       DOS:  cpu time    0.01: real time    0.01
    CHARGE:  cpu time    2.72: real time    2.72
    MIXING:  cpu time    0.01: real time    0.01
    --------------------------------------------
      LOOP:  cpu time  155.74: real time  155.84

 eigenvalue-minimisations  :  6496
 total energy-change (2. order) : 0.9079180E+00  (-0.1960491E+00)
 number of electron     119.9999946 magnetization 
 augmentation part        2.9549970 magnetization 

 Broyden mixing:
  rms(total) = 0.10004E+00    rms(broyden)= 0.10003E+00
  rms(prec ) = 0.12850E+00
  weight for this iteration     100.00

 eigenvalues of (default mixing * dielectric matrix)
  average eigenvalue GAMMA=   1.5138
  2.3102  0.8911  1.3399

 Free energy of the ion-electron system (eV)
  ---------------------------------------------------
  alpha Z        PSCENC =        73.65070702
  Ewald energy   TEWEN  =     -1157.70671763
  -Hartree energ DENC   =     -1571.76584409
  -exchange      EXHF   =         0.00000000
  -V(xc)+E(xc)   XCENC  =       387.90726424
  PAW double counting   =      1553.74287656    -1576.82439080
  entropy T*S    EENTRO =         0.00000000
  eigenvalues    EBANDS =     -1089.87182697
  atomic energy  EATOM  =      3053.73195627
  ---------------------------------------------------
  free energy    TOTEN  =      -327.13597538 eV

  energy without entropy =     -327.13597538  energy(sigma->0) =     -327.13597538


--------------------------------------------------------------------------------------------------------




----------------------------------------- Iteration    1(   9)  ---------------------------------------


    POTLOK:  cpu time    0.31: real time    0.31
    SETDIJ:  cpu time    0.03: real time    0.03
     EDDAV:  cpu time  145.33: real time  145.44
 BZINTS: Fermi energy: -2.752741;120.000000 electrons
         Band energy:***********;  BLOECHL correction:  0.000000
       DOS:  cpu time    0.01: real time    0.01
    CHARGE:  cpu time    1.94: real time    1.95
    MIXING:  cpu time    0.01: real time    0.01
    --------------------------------------------
      LOOP:  cpu time  147.64: real time  147.75

 eigenvalue-minimisations  :  6494
 total energy-change (2. order) : 0.1177257E-01  (-0.1224712E-01)
 number of electron     119.9999946 magnetization 
 augmentation part        2.9510564 magnetization 

 Broyden mixing:
  rms(total) = 0.46884E-01    rms(broyden)= 0.46882E-01
  rms(prec ) = 0.60078E-01
  weight for this iteration     100.00

 eigenvalues of (default mixing * dielectric matrix)
  average eigenvalue GAMMA=   1.6937
  1.0958  1.2173  2.4116  2.0499

 Free energy of the ion-electron system (eV)
  ---------------------------------------------------
  alpha Z        PSCENC =        73.65070702
  Ewald energy   TEWEN  =     -1157.70671763
  -Hartree energ DENC   =     -1576.50999705
  -exchange      EXHF   =         0.00000000
  -V(xc)+E(xc)   XCENC  =       388.13767760
  PAW double counting   =      1557.55505118    -1580.71248003
  entropy T*S    EENTRO =         0.00000000
  eigenvalues    EBANDS =     -1085.27040020
  atomic energy  EATOM  =      3053.73195627
  ---------------------------------------------------
  free energy    TOTEN  =      -327.12420282 eV

  energy without entropy =     -327.12420282  energy(sigma->0) =     -327.12420282


--------------------------------------------------------------------------------------------------------




----------------------------------------- Iteration    1(  10)  ---------------------------------------


    POTLOK:  cpu time    0.29: real time    0.30
    SETDIJ:  cpu time    0.03: real time    0.03
     EDDAV:  cpu time  140.57: real time  140.65
 BZINTS: Fermi energy: -2.700745;120.000000 electrons
         Band energy:***********;  BLOECHL correction:  0.000000
       DOS:  cpu time    0.01: real time    0.01
    CHARGE:  cpu time    3.50: real time    3.50
    MIXING:  cpu time    0.01: real time    0.01
    --------------------------------------------
      LOOP:  cpu time  144.42: real time  144.51

 eigenvalue-minimisations  :  5832
 total energy-change (2. order) :-0.1624500E-01  (-0.4051550E-02)
 number of electron     119.9999946 magnetization 
 augmentation part        2.9462135 magnetization 

 Broyden mixing:
  rms(total) = 0.17297E-01    rms(broyden)= 0.17296E-01
  rms(prec ) = 0.21770E-01
  weight for this iteration     100.00

 eigenvalues of (default mixing * dielectric matrix)
  average eigenvalue GAMMA=   1.5510
  2.3427  2.3427  1.2248  0.9611  0.8837

 Free energy of the ion-electron system (eV)
  ---------------------------------------------------
  alpha Z        PSCENC =        73.65070702
  Ewald energy   TEWEN  =     -1157.70671763
  -Hartree energ DENC   =     -1580.81052356
  -exchange      EXHF   =         0.00000000
  -V(xc)+E(xc)   XCENC  =       388.56565776
  PAW double counting   =      1557.69527136    -1580.84899061
  entropy T*S    EENTRO =         0.00000000
  eigenvalues    EBANDS =     -1081.41780844
  atomic energy  EATOM  =      3053.73195627
  ---------------------------------------------------
  free energy    TOTEN  =      -327.14044781 eV

  energy without entropy =     -327.14044781  energy(sigma->0) =     -327.14044781


--------------------------------------------------------------------------------------------------------




----------------------------------------- Iteration    1(  11)  ---------------------------------------


    POTLOK:  cpu time    0.29: real time    0.29
    SETDIJ:  cpu time    0.03: real time    0.03
     EDDAV:  cpu time  153.22: real time  153.31
 BZINTS: Fermi energy: -2.714848;120.000000 electrons
         Band energy:***********;  BLOECHL correction:  0.000000
       DOS:  cpu time    0.01: real time    0.01
    CHARGE:  cpu time    1.88: real time    1.88
    MIXING:  cpu time    0.01: real time    0.01
    --------------------------------------------
      LOOP:  cpu time  155.45: real time  155.54

 eigenvalue-minimisations  :  6590
 total energy-change (2. order) :-0.1029979E-02  (-0.1730528E-03)
 number of electron     119.9999946 magnetization 
 augmentation part        2.9470204 magnetization 

 Broyden mixing:
  rms(total) = 0.10655E-01    rms(broyden)= 0.10655E-01
  rms(prec ) = 0.13518E-01
  weight for this iteration     100.00

 eigenvalues of (default mixing * dielectric matrix)
  average eigenvalue GAMMA=   1.6253
  2.7441  2.0022  1.0253  1.0253  1.5509  1.4042

 Free energy of the ion-electron system (eV)
  ---------------------------------------------------
  alpha Z        PSCENC =        73.65070702
  Ewald energy   TEWEN  =     -1157.70671763
  -Hartree energ DENC   =     -1580.57279855
  -exchange      EXHF   =         0.00000000
  -V(xc)+E(xc)   XCENC  =       388.54772772
  PAW double counting   =      1555.69241059    -1578.83419551
  entropy T*S    EENTRO =         0.00000000
  eigenvalues    EBANDS =     -1081.65056772
  atomic energy  EATOM  =      3053.73195627
  ---------------------------------------------------
  free energy    TOTEN  =      -327.14147779 eV

  energy without entropy =     -327.14147779  energy(sigma->0) =     -327.14147779


--------------------------------------------------------------------------------------------------------




----------------------------------------- Iteration    1(  12)  ---------------------------------------


    POTLOK:  cpu time    0.31: real time    0.31
    SETDIJ:  cpu time    0.03: real time    0.03
     EDDAV:  cpu time  139.79: real time  139.87
 BZINTS: Fermi energy: -2.710274;120.000000 electrons
         Band energy:***********;  BLOECHL correction:  0.000000
       DOS:  cpu time    0.01: real time    0.01
    CHARGE:  cpu time    2.46: real time    2.47
    MIXING:  cpu time    0.01: real time    0.01
    --------------------------------------------
      LOOP:  cpu time  142.61: real time  142.70

 eigenvalue-minimisations  :  6280
 total energy-change (2. order) :-0.6813337E-03  (-0.1941522E-03)
 number of electron     119.9999946 magnetization 
 augmentation part        2.9478640 magnetization 

 Broyden mixing:
  rms(total) = 0.44250E-02    rms(broyden)= 0.44247E-02
  rms(prec ) = 0.54209E-02
  weight for this iteration     100.00

 eigenvalues of (default mixing * dielectric matrix)
  average eigenvalue GAMMA=   1.6072
  2.7067  2.5290  1.2899  1.2899  0.9642  1.2354  1.2354

 Free energy of the ion-electron system (eV)
  ---------------------------------------------------
  alpha Z        PSCENC =        73.65070702
  Ewald energy   TEWEN  =     -1157.70671763
  -Hartree energ DENC   =     -1580.75242092
  -exchange      EXHF   =         0.00000000
  -V(xc)+E(xc)   XCENC  =       388.59465231
  PAW double counting   =      1554.86606702    -1577.98985385
  entropy T*S    EENTRO =         0.00000000
  eigenvalues    EBANDS =     -1081.53654936
  atomic energy  EATOM  =      3053.73195627
  ---------------------------------------------------
  free energy    TOTEN  =      -327.14215912 eV

  energy without entropy =     -327.14215912  energy(sigma->0) =     -327.14215912


--------------------------------------------------------------------------------------------------------




----------------------------------------- Iteration    1(  13)  ---------------------------------------


    POTLOK:  cpu time    0.30: real time    0.30
    SETDIJ:  cpu time    0.03: real time    0.03
     EDDAV:  cpu time  147.32: real time  147.40
 BZINTS: Fermi energy: -2.709612;120.000000 electrons
         Band energy:***********;  BLOECHL correction:  0.000000
       DOS:  cpu time    0.01: real time    0.01
    CHARGE:  cpu time    2.50: real time    2.50
    MIXING:  cpu time    0.02: real time    0.02
    --------------------------------------------
      LOOP:  cpu time  150.18: real time  150.27

 eigenvalue-minimisations  :  6398
 total energy-change (2. order) :-0.6421331E-04  (-0.3290600E-04)
 number of electron     119.9999946 magnetization 
 augmentation part        2.9476118 magnetization 

 Broyden mixing:
  rms(total) = 0.12355E-02    rms(broyden)= 0.12355E-02
  rms(prec ) = 0.16184E-02
  weight for this iteration     100.00

 eigenvalues of (default mixing * dielectric matrix)
  average eigenvalue GAMMA=   1.6498
  2.9265  2.4927  2.1312  1.3390  1.2072  1.2072  0.9473  0.9473

 Free energy of the ion-electron system (eV)
  ---------------------------------------------------
  alpha Z        PSCENC =        73.65070702
  Ewald energy   TEWEN  =     -1157.70671763
  -Hartree energ DENC   =     -1580.78707085
  -exchange      EXHF   =         0.00000000
  -V(xc)+E(xc)   XCENC  =       388.58548867
  PAW double counting   =      1554.31554400    -1577.44293590
  entropy T*S    EENTRO =         0.00000000
  eigenvalues    EBANDS =     -1081.48919492
  atomic energy  EATOM  =      3053.73195627
  ---------------------------------------------------
  free energy    TOTEN  =      -327.14222334 eV

  energy without entropy =     -327.14222334  energy(sigma->0) =     -327.14222334


--------------------------------------------------------------------------------------------------------




----------------------------------------- Iteration    1(  14)  ---------------------------------------


    POTLOK:  cpu time    0.31: real time    0.31
    SETDIJ:  cpu time    0.03: real time    0.03
     EDDAV:  cpu time  138.24: real time  138.32
 BZINTS: Fermi energy: -2.709069;120.000000 electrons
         Band energy:***********;  BLOECHL correction:  0.000000
       DOS:  cpu time    0.01: real time    0.01
    CHARGE:  cpu time    2.47: real time    2.47
    MIXING:  cpu time    0.02: real time    0.02
    --------------------------------------------
      LOOP:  cpu time  141.09: real time  141.17

 eigenvalue-minimisations  :  5856
 total energy-change (2. order) :-0.2014823E-04  (-0.4041928E-05)
 number of electron     119.9999946 magnetization 
 augmentation part        2.9475643 magnetization 

 Broyden mixing:
  rms(total) = 0.40254E-03    rms(broyden)= 0.40252E-03
  rms(prec ) = 0.56900E-03
  weight for this iteration     100.00

 eigenvalues of (default mixing * dielectric matrix)
  average eigenvalue GAMMA=   1.6315
  3.1552  2.5245  1.9358  1.4528  1.4528  1.1418  1.1418  0.9393  0.9393

 Free energy of the ion-electron system (eV)
  ---------------------------------------------------
  alpha Z        PSCENC =        73.65070702
  Ewald energy   TEWEN  =     -1157.70671763
  -Hartree energ DENC   =     -1580.85578867
  -exchange      EXHF   =         0.00000000
  -V(xc)+E(xc)   XCENC  =       388.59347752
  PAW double counting   =      1554.38977648    -1577.51734078
  entropy T*S    EENTRO =         0.00000000
  eigenvalues    EBANDS =     -1081.42831371
  atomic energy  EATOM  =      3053.73195627
  ---------------------------------------------------
  free energy    TOTEN  =      -327.14224349 eV

  energy without entropy =     -327.14224349  energy(sigma->0) =     -327.14224349


--------------------------------------------------------------------------------------------------------




----------------------------------------- Iteration    1(  15)  ---------------------------------------


    POTLOK:  cpu time    0.30: real time    0.30
    SETDIJ:  cpu time    0.03: real time    0.03
     EDDAV:  cpu time  134.53: real time  134.61
 BZINTS: Fermi energy: -2.708879;120.000000 electrons
         Band energy:***********;  BLOECHL correction:  0.000000
       DOS:  cpu time    0.01: real time    0.01
    CHARGE:  cpu time    2.26: real time    2.27
    MIXING:  cpu time    0.02: real time    0.02
    --------------------------------------------
      LOOP:  cpu time  137.15: real time  137.23

 eigenvalue-minimisations  :  6006
 total energy-change (2. order) :-0.1482956E-05  (-0.3599128E-06)
 number of electron     119.9999946 magnetization 
 augmentation part        2.9475357 magnetization 

 Broyden mixing:
  rms(total) = 0.39130E-03    rms(broyden)= 0.39130E-03
  rms(prec ) = 0.49298E-03
  weight for this iteration     100.00

 eigenvalues of (default mixing * dielectric matrix)
  average eigenvalue GAMMA=   1.6868
  3.3018  2.6657  2.1269  2.1269  1.2092  1.2092  1.3156  1.0121  1.0121  0.8887

 Free energy of the ion-electron system (eV)
  ---------------------------------------------------
  alpha Z        PSCENC =        73.65070702
  Ewald energy   TEWEN  =     -1157.70671763
  -Hartree energ DENC   =     -1580.87515907
  -exchange      EXHF   =         0.00000000
  -V(xc)+E(xc)   XCENC  =       388.59421958
  PAW double counting   =      1554.39996614    -1577.52773831
  entropy T*S    EENTRO =         0.00000000
  eigenvalues    EBANDS =     -1081.40947898
  atomic energy  EATOM  =      3053.73195627
  ---------------------------------------------------
  free energy    TOTEN  =      -327.14224497 eV

  energy without entropy =     -327.14224497  energy(sigma->0) =     -327.14224497


--------------------------------------------------------------------------------------------------------




----------------------------------------- Iteration    1(  16)  ---------------------------------------


    POTLOK:  cpu time    0.30: real time    0.30
    SETDIJ:  cpu time    0.03: real time    0.03
     EDDAV:  cpu time  120.31: real time  120.38
 BZINTS: Fermi energy: -2.708994;120.000000 electrons
         Band energy:***********;  BLOECHL correction:  0.000000
       DOS:  cpu time    0.01: real time    0.01
    --------------------------------------------
      LOOP:  cpu time  120.66: real time  120.72

 eigenvalue-minimisations  :  4824
 total energy-change (2. order) :-0.3814357E-06  (-0.2421480E-06)
 number of electron     119.9999946 magnetization 
 augmentation part        2.9475357 magnetization 

 Free energy of the ion-electron system (eV)
  ---------------------------------------------------
  alpha Z        PSCENC =        73.65070702
  Ewald energy   TEWEN  =     -1157.70671763
  -Hartree energ DENC   =     -1580.85795467
  -exchange      EXHF   =         0.00000000
  -V(xc)+E(xc)   XCENC  =       388.59307566
  PAW double counting   =      1554.40335600    -1577.53075624
  entropy T*S    EENTRO =         0.00000000
  eigenvalues    EBANDS =     -1081.42591177
  atomic energy  EATOM  =      3053.73195627
  ---------------------------------------------------
  free energy    TOTEN  =      -327.14224535 eV

  energy without entropy =     -327.14224535  energy(sigma->0) =     -327.14224535


--------------------------------------------------------------------------------------------------------




 average (electrostatic) potential at core
  the test charge radii are     0.5201  0.6991
  (the norm of the test charge is              1.0000)
       1 -39.5800       2 -39.5800       3 -39.5800       4 -39.5800       5 -39.5800
       6 -39.5800       7 -39.5800       8 -39.5800       9 -39.5800      10 -39.5800
      11 -39.5800      12 -39.5800      13 -39.5800      14 -39.5800      15 -39.5800
      16 -39.5800      17 -39.5824      18 -39.5824      19 -39.5824      20 -39.5824
      21 -39.5824      22 -39.5824      23 -39.5824      24 -39.5824      25 -39.5824
      26 -39.5824      27 -39.5824      28 -39.5824      29 -39.5824      30 -39.5824
      31 -39.5824      32 -39.5824      33 -40.1517      34 -40.1517      35 -40.1517
      36 -40.1517      37 -40.1517      38 -40.1517      39 -40.1517      40 -40.1517
      41 -40.1517      42 -40.1517      43 -40.1517      44 -40.1517      45 -40.1517
      46 -40.1517      47 -40.1517      48 -40.1517      49 -40.1390      50 -40.1390
      51 -40.1390      52 -40.1390      53 -40.1390      54 -40.1390      55 -40.1390
      56 -40.1390      57 -56.3386      58 -56.3386      59 -56.3386      60 -56.3386
      61 -56.3386      62 -56.3386      63 -56.3386      64 -56.3386      65 -54.9932
      66 -54.9932      67 -54.9932      68 -54.9932      69 -54.9932      70 -54.9932
      71 -54.9932      72 -54.9932
 
 
 
 E-fermi :  -2.7090     XC(G=0):  -6.3111     alpha+bet : -4.1849


 k-point     1 :       0.0000    0.0000    0.0000
  band No.  band energies     occupation 
      1     -15.2244      2.00000
      2     -15.0878      2.00000
      3     -14.9738      2.00000
      4     -14.9642      2.00000
      5     -14.9593      2.00000
      6     -14.9572      2.00000
      7     -14.8480      2.00000
      8     -14.8442      2.00000
      9     -14.8440      2.00000
     10     -14.7679      2.00000
     11     -14.7624      2.00000
     12     -14.7121      2.00000
     13     -14.7061      2.00000
     14     -14.6885      2.00000
     15     -14.6468      2.00000
     16     -14.6335      2.00000
     17      -8.0617      2.00000
     18      -7.9792      2.00000
     19      -7.9526      2.00000
     20      -7.9491      2.00000
     21      -7.9489      2.00000
     22      -7.8761      2.00000
     23      -7.8079      2.00000
     24      -7.6329      2.00000
     25      -7.5768      2.00000
     26      -7.5766      2.00000
     27      -7.5384      2.00000
     28      -7.5020      2.00000
     29      -7.4569      2.00000
     30      -7.4147      2.00000
     31      -7.4073      2.00000
     32      -7.3419      2.00000
     33      -7.3154      2.00000
     34      -7.3041      2.00000
     35      -7.2990      2.00000
     36      -7.2809      2.00000
     37      -7.2313      2.00000
     38      -7.1873      2.00000
     39      -7.1836      2.00000
     40      -7.1274      2.00000
     41      -7.1058      2.00000
     42      -7.0598      2.00000
     43      -7.0555      2.00000
     44      -6.9856      2.00000
     45      -6.9697      2.00000
     46      -6.9624      2.00000
     47      -6.8847      2.00000
     48      -6.8674      2.00000
     49      -6.8552      2.00000
     50      -6.8285      2.00000
     51      -6.8122      2.00000
     52      -6.7809      2.00000
     53      -6.7667      2.00000
     54      -6.7629      2.00000
     55      -6.7624      2.00000
     56      -6.7573      2.00000
     57      -3.2651      2.00000
     58      -3.1005      2.00000
     59      -3.0225      2.00000
     60      -2.9461      2.00000
     61      -2.3391      0.00000
     62      -2.3122      0.00000
     63      -2.2545      0.00000
     64      -2.2507      0.00000
     65       1.7736      0.00000
     66       2.9657      0.00000
     67       3.1358      0.00000
     68       3.3199      0.00000
     69       3.6175      0.00000
     70       3.8825      0.00000
     71       3.9403      0.00000
     72       3.9497      0.00000
     73       3.9530      0.00000
     74       4.0911      0.00000
     75       4.0970      0.00000
     76       4.1248      0.00000
     77       4.1249      0.00000
     78       4.3067      0.00000
     79       4.6064      0.00000
     80       4.6233      0.00000
     81       4.8174      0.00000
     82       5.0924      0.00000
     83       5.1831      0.00000
     84       5.2610      0.00000
     85       5.2804      0.00000
     86       5.3267      0.00000
     87       5.3509      0.00000
     88       5.4147      0.00000
     89       5.4480      0.00000
     90       5.7260      0.00000
     91       5.7989      0.00000
     92       5.8552      0.00000
     93       5.8795      0.00000
     94       5.8959      0.00000
     95       5.9335      0.00000
     96       6.2832      0.00000
     97       6.3134      0.00000
     98       6.4099      0.00000

 k-point     2 :       0.2500    0.0000    0.0000
  band No.  band energies     occupation 
      1     -15.2098      2.00000
      2     -15.1169      2.00000
      3     -14.9719      2.00000
      4     -14.9640      2.00000
      5     -14.9606      2.00000
      6     -14.9581      2.00000
      7     -14.8463      2.00000
      8     -14.8444      2.00000
      9     -14.8135      2.00000
     10     -14.7671      2.00000
     11     -14.7632      2.00000
     12     -14.7112      2.00000
     13     -14.7070      2.00000
     14     -14.7062      2.00000
     15     -14.6448      2.00000
     16     -14.6354      2.00000
     17      -8.0387      2.00000
     18      -7.9516      2.00000
     19      -7.9397      2.00000
     20      -7.9174      2.00000
     21      -7.9166      2.00000
     22      -7.9087      2.00000
     23      -7.8243      2.00000
     24      -7.7046      2.00000
     25      -7.6936      2.00000
     26      -7.6874      2.00000
     27      -7.5331      2.00000
     28      -7.5074      2.00000
     29      -7.4010      2.00000
     30      -7.3602      2.00000
     31      -7.3379      2.00000
     32      -7.3016      2.00000
     33      -7.3000      2.00000
     34      -7.2932      2.00000
     35      -7.2816      2.00000
     36      -7.2729      2.00000
     37      -7.2416      2.00000
     38      -7.1725      2.00000
     39      -7.1439      2.00000
     40      -7.1175      2.00000
     41      -7.1107      2.00000
     42      -7.0910      2.00000
     43      -7.0253      2.00000
     44      -7.0246      2.00000
     45      -6.9694      2.00000
     46      -6.9628      2.00000
     47      -6.8812      2.00000
     48      -6.8801      2.00000
     49      -6.8689      2.00000
     50      -6.8535      2.00000
     51      -6.8209      2.00000
     52      -6.7873      2.00000
     53      -6.7658      2.00000
     54      -6.7629      2.00000
     55      -6.7619      2.00000
     56      -6.7579      2.00000
     57      -3.2411      2.00000
     58      -3.1246      2.00000
     59      -3.0114      2.00000
     60      -2.9573      2.00000
     61      -2.3352      0.00000
     62      -2.3162      0.00000
     63      -2.2538      0.00000
     64      -2.2510      0.00000
     65       1.8705      0.00000
     66       2.5593      0.00000
     67       3.4023      0.00000
     68       3.4990      0.00000
     69       3.6642      0.00000
     70       3.8683      0.00000
     71       3.9041      0.00000
     72       3.9155      0.00000
     73       3.9755      0.00000
     74       3.9841      0.00000
     75       4.0651      0.00000
     76       4.1089      0.00000
     77       4.2266      0.00000
     78       4.4049      0.00000
     79       4.5940      0.00000
     80       4.6601      0.00000
     81       4.8913      0.00000
     82       4.9568      0.00000
     83       5.0273      0.00000
     84       5.1593      0.00000
     85       5.2117      0.00000
     86       5.3376      0.00000
     87       5.3386      0.00000
     88       5.3581      0.00000
     89       5.3788      0.00000
     90       5.6510      0.00000
     91       5.8365      0.00000
     92       5.8745      0.00000
     93       5.8940      0.00000
     94       5.9245      0.00000
     95       6.0584      0.00000
     96       6.1468      0.00000
     97       6.2517      0.00000
     98       6.2908      0.00000

 k-point     3 :       0.5000    0.0000    0.0000
  band No.  band energies     occupation 
      1     -15.1693      2.00000
      2     -15.1693      2.00000
      3     -14.9673      2.00000
      4     -14.9673      2.00000
      5     -14.9600      2.00000
      6     -14.9600      2.00000
      7     -14.8454      2.00000
      8     -14.8454      2.00000
      9     -14.7652      2.00000
     10     -14.7652      2.00000
     11     -14.7539      2.00000
     12     -14.7539      2.00000
     13     -14.7091      2.00000
     14     -14.7091      2.00000
     15     -14.6400      2.00000
     16     -14.6400      2.00000
     17      -7.9782      2.00000
     18      -7.9782      2.00000
     19      -7.9166      2.00000
     20      -7.9166      2.00000
     21      -7.8274      2.00000
     22      -7.8274      2.00000
     23      -7.8260      2.00000
     24      -7.8260      2.00000
     25      -7.8107      2.00000
     26      -7.8107      2.00000
     27      -7.5203      2.00000
     28      -7.5203      2.00000
     29      -7.3837      2.00000
     30      -7.3837      2.00000
     31      -7.2902      2.00000
     32      -7.2902      2.00000
     33      -7.2676      2.00000
     34      -7.2676      2.00000
     35      -7.2248      2.00000
     36      -7.2248      2.00000
     37      -7.1901      2.00000
     38      -7.1901      2.00000
     39      -7.1452      2.00000
     40      -7.1452      2.00000
     41      -7.1227      2.00000
     42      -7.1227      2.00000
     43      -6.9807      2.00000
     44      -6.9807      2.00000
     45      -6.9530      2.00000
     46      -6.9530      2.00000
     47      -6.9484      2.00000
     48      -6.9484      2.00000
     49      -6.8735      2.00000
     50      -6.8735      2.00000
     51      -6.8036      2.00000
     52      -6.8036      2.00000
     53      -6.7641      2.00000
     54      -6.7641      2.00000
     55      -6.7597      2.00000
     56      -6.7597      2.00000
     57      -3.1829      2.00000
     58      -3.1829      2.00000
     59      -2.9843      2.00000
     60      -2.9843      2.00000
     61      -2.3257      0.00000
     62      -2.3257      0.00000
     63      -2.2522      0.00000
     64      -2.2522      0.00000
     65       2.1467      0.00000
     66       2.1467      0.00000
     67       3.6289      0.00000
     68       3.6289      0.00000
     69       3.7713      0.00000
     70       3.7713      0.00000
     71       3.7823      0.00000
     72       3.7823      0.00000
     73       4.0245      0.00000
     74       4.0245      0.00000
     75       4.0520      0.00000
     76       4.0520      0.00000
     77       4.4285      0.00000
     78       4.4285      0.00000
     79       4.6643      0.00000
     80       4.6643      0.00000
     81       4.8103      0.00000
     82       4.8103      0.00000
     83       5.0912      0.00000
     84       5.0912      0.00000
     85       5.1387      0.00000
     86       5.1387      0.00000
     87       5.3171      0.00000
     88       5.3171      0.00000
     89       5.4321      0.00000
     90       5.4321      0.00000
     91       5.9342      0.00000
     92       5.9342      0.00000
     93       5.9508      0.00000
     94       5.9508      0.00000
     95       6.1145      0.00000
     96       6.1146      0.00000
     97       6.1699      0.00000
     98       6.1699      0.00000

 k-point     4 :       0.0000    0.2500    0.0000
  band No.  band energies     occupation 
      1     -15.1932      2.00000
      2     -15.0694      2.00000
      3     -15.0135      2.00000
      4     -14.9770      2.00000
      5     -14.9568      2.00000
      6     -14.9429      2.00000
      7     -14.8685      2.00000
      8     -14.8614      2.00000
      9     -14.8260      2.00000
     10     -14.7510      2.00000
     11     -14.7414      2.00000
     12     -14.7274      2.00000
     13     -14.6990      2.00000
     14     -14.6858      2.00000
     15     -14.6645      2.00000
     16     -14.6518      2.00000
     17      -7.9746      2.00000
     18      -7.9189      2.00000
     19      -7.9080      2.00000
     20      -7.9071      2.00000
     21      -7.8856      2.00000
     22      -7.8008      2.00000
     23      -7.7346      2.00000
     24      -7.6700      2.00000
     25      -7.6547      2.00000
     26      -7.6345      2.00000
     27      -7.5652      2.00000
     28      -7.5369      2.00000
     29      -7.5115      2.00000
     30      -7.4974      2.00000
     31      -7.4280      2.00000
     32      -7.3712      2.00000
     33      -7.3328      2.00000
     34      -7.2744      2.00000
     35      -7.2442      2.00000
     36      -7.2414      2.00000
     37      -7.2393      2.00000
     38      -7.1719      2.00000
     39      -7.1267      2.00000
     40      -7.0918      2.00000
     41      -7.0693      2.00000
     42      -7.0683      2.00000
     43      -7.0024      2.00000
     44      -7.0023      2.00000
     45      -6.9759      2.00000
     46      -6.9663      2.00000
     47      -6.9117      2.00000
     48      -6.8751      2.00000
     49      -6.8677      2.00000
     50      -6.8640      2.00000
     51      -6.8591      2.00000
     52      -6.8423      2.00000
     53      -6.8385      2.00000
     54      -6.8257      2.00000
     55      -6.7762      2.00000
     56      -6.7700      2.00000
     57      -3.2174      2.00000
     58      -3.0885      2.00000
     59      -3.0333      2.00000
     60      -2.9919      2.00000
     61      -2.3252      0.00000
     62      -2.3022      0.00000
     63      -2.2649      0.00000
     64      -2.2583      0.00000
     65       1.9724      0.00000
     66       3.1112      0.00000
     67       3.2774      0.00000
     68       3.2939      0.00000
     69       3.4514      0.00000
     70       3.7597      0.00000
     71       3.8128      0.00000
     72       3.9062      0.00000
     73       3.9116      0.00000
     74       4.0988      0.00000
     75       4.2282      0.00000
     76       4.3017      0.00000
     77       4.4756      0.00000
     78       4.5465      0.00000
     79       4.7014      0.00000
     80       4.7650      0.00000
     81       4.9089      0.00000
     82       5.1203      0.00000
[...]
  Hartree   534.09365   542.56414   351.60271    -0.00000    -0.00000    -0.00000
  E(xc)    -400.46671  -400.54097  -404.59018    -0.00000     0.00000    -0.00000
  Local   -1261.06207 -1277.65149  -480.20972     0.00000     0.00000     0.00000
  n-local  -221.22033  -221.03584  -208.76475     0.00061    -0.00859     0.00041
  augment     1.56043     1.56988     1.89373    -0.00000    -0.00000    -0.00000
  Kinetic  1502.62613  1503.10700  1563.17165    -0.00334     0.03015    -0.00124
  Fock        0.00000     0.00000     0.00000     0.00000     0.00000     0.00000
  vdW        -2.96444    -2.96249    -3.03953     0.00000     0.00000    -0.00000
  -------------------------------------------------------------------------------------
  Total      -0.68500    -1.35886   -10.51795     0.00000    -0.00000     0.00000
  in kB      -1.45689    -2.89010   -22.37012     0.00000    -0.00000     0.00000
  external pressure =       -8.91 kB  Pullay stress =        0.00 kB


 VOLUME and BASIS-vectors are now :
 -----------------------------------------------------------------------------
  energy-cutoff  :      600.00
  volume of cell :      753.31
      direct lattice vectors                 reciprocal lattice vectors
    11.549665788  0.000000000  0.000000000     0.086582592  0.000000000  0.000000000
     0.000000000  8.078619807  0.000000000     0.000000000  0.123783520  0.000000000
     0.000000000  0.000000000  8.073589429     0.000000000  0.000000000  0.123860646

  length of vectors
    11.549665788  8.078619807  8.073589429     0.086582592  0.123783520  0.123860646


 FORCES acting on ions
    electron-ion (+dipol)            ewald-force                    non-local-force                 convergence-correction
 -----------------------------------------------------------------------------------------------
   -.258E+02 -.274E+02 0.227E+02   0.291E+02 0.309E+02 -.255E+02   -.326E+01 -.347E+01 0.282E+01   0.401E-04 0.663E-04 -.406E-04
   0.258E+02 0.274E+02 -.227E+02   -.291E+02 -.309E+02 0.255E+02   0.326E+01 0.347E+01 -.282E+01   -.401E-04 -.663E-04 0.406E-04
   0.258E+02 0.274E+02 0.227E+02   -.291E+02 -.309E+02 -.255E+02   0.326E+01 0.347E+01 0.282E+01   -.401E-04 -.663E-04 -.406E-04
   -.258E+02 -.274E+02 -.227E+02   0.291E+02 0.309E+02 0.255E+02   -.326E+01 -.347E+01 -.282E+01   0.401E-04 0.663E-04 0.406E-04
   0.258E+02 -.274E+02 -.227E+02   -.291E+02 0.309E+02 0.255E+02   0.326E+01 -.347E+01 -.282E+01   -.401E-04 0.663E-04 0.406E-04
   -.258E+02 0.274E+02 0.227E+02   0.291E+02 -.309E+02 -.255E+02   -.326E+01 0.347E+01 0.282E+01   0.401E-04 -.663E-04 -.406E-04
   -.258E+02 0.274E+02 -.227E+02   0.291E+02 -.309E+02 0.255E+02   -.326E+01 0.347E+01 -.282E+01   0.401E-04 -.663E-04 0.406E-04
   0.258E+02 -.274E+02 0.227E+02   -.291E+02 0.309E+02 -.255E+02   0.326E+01 -.347E+01 0.282E+01   -.401E-04 0.663E-04 -.406E-04
   -.258E+02 -.274E+02 0.227E+02   0.291E+02 0.309E+02 -.255E+02   -.326E+01 -.347E+01 0.282E+01   0.401E-04 0.663E-04 -.406E-04
   0.258E+02 0.274E+02 -.227E+02   -.291E+02 -.309E+02 0.255E+02   0.326E+01 0.347E+01 -.282E+01   -.401E-04 -.663E-04 0.406E-04
   0.258E+02 0.274E+02 0.227E+02   -.291E+02 -.309E+02 -.255E+02   0.326E+01 0.347E+01 0.282E+01   -.401E-04 -.663E-04 -.406E-04
   -.258E+02 -.274E+02 -.227E+02   0.291E+02 0.309E+02 0.255E+02   -.326E+01 -.347E+01 -.282E+01   0.401E-04 0.663E-04 0.406E-04
   0.258E+02 -.274E+02 -.227E+02   -.291E+02 0.309E+02 0.255E+02   0.326E+01 -.347E+01 -.282E+01   -.401E-04 0.663E-04 0.406E-04
   -.258E+02 0.274E+02 0.227E+02   0.291E+02 -.309E+02 -.255E+02   -.326E+01 0.347E+01 0.282E+01   0.401E-04 -.663E-04 -.406E-04
   -.258E+02 0.274E+02 -.227E+02   0.291E+02 -.309E+02 0.255E+02   -.326E+01 0.347E+01 -.282E+01   0.401E-04 -.663E-04 0.406E-04
   0.258E+02 -.274E+02 0.227E+02   -.291E+02 0.309E+02 -.255E+02   0.326E+01 -.347E+01 0.282E+01   -.401E-04 0.663E-04 -.406E-04
   0.259E+02 -.229E+02 -.270E+02   -.291E+02 0.258E+02 0.304E+02   0.321E+01 -.291E+01 -.343E+01   -.114E-03 0.680E-04 0.838E-04
   -.259E+02 0.229E+02 0.270E+02   0.291E+02 -.258E+02 -.304E+02   -.321E+01 0.291E+01 0.343E+01   0.114E-03 -.680E-04 -.838E-04
   -.259E+02 0.229E+02 -.270E+02   0.291E+02 -.258E+02 0.304E+02   -.321E+01 0.291E+01 -.343E+01   0.114E-03 -.680E-04 0.838E-04
   0.259E+02 -.229E+02 0.270E+02   -.291E+02 0.258E+02 -.304E+02   0.321E+01 -.291E+01 0.343E+01   -.114E-03 0.680E-04 -.838E-04
   -.259E+02 -.229E+02 0.270E+02   0.291E+02 0.258E+02 -.304E+02   -.321E+01 -.291E+01 0.343E+01   0.114E-03 0.680E-04 -.838E-04
   0.259E+02 0.229E+02 -.270E+02   -.291E+02 -.258E+02 0.304E+02   0.321E+01 0.291E+01 -.343E+01   -.114E-03 -.680E-04 0.838E-04
   0.259E+02 0.229E+02 0.270E+02   -.291E+02 -.258E+02 -.304E+02   0.321E+01 0.291E+01 0.343E+01   -.114E-03 -.680E-04 -.838E-04
   -.259E+02 -.229E+02 -.270E+02   0.291E+02 0.258E+02 0.304E+02   -.321E+01 -.291E+01 -.343E+01   0.114E-03 0.680E-04 0.838E-04
   0.259E+02 -.229E+02 -.270E+02   -.291E+02 0.258E+02 0.304E+02   0.321E+01 -.291E+01 -.343E+01   -.114E-03 0.680E-04 0.838E-04
   -.259E+02 0.229E+02 0.270E+02   0.291E+02 -.258E+02 -.304E+02   -.321E+01 0.291E+01 0.343E+01   0.114E-03 -.680E-04 -.838E-04
   -.259E+02 0.229E+02 -.270E+02   0.291E+02 -.258E+02 0.304E+02   -.321E+01 0.291E+01 -.343E+01   0.114E-03 -.680E-04 0.838E-04
   0.259E+02 -.229E+02 0.270E+02   -.291E+02 0.258E+02 -.304E+02   0.321E+01 -.291E+01 0.343E+01   -.114E-03 0.680E-04 -.838E-04
   -.259E+02 -.229E+02 0.270E+02   0.291E+02 0.258E+02 -.304E+02   -.321E+01 -.291E+01 0.343E+01   0.114E-03 0.680E-04 -.838E-04
   0.259E+02 0.229E+02 -.270E+02   -.291E+02 -.258E+02 0.304E+02   0.321E+01 0.291E+01 -.343E+01   -.114E-03 -.680E-04 0.838E-04
   0.259E+02 0.229E+02 0.270E+02   -.291E+02 -.258E+02 -.304E+02   0.321E+01 0.291E+01 0.343E+01   -.114E-03 -.680E-04 -.838E-04
   -.259E+02 -.229E+02 -.270E+02   0.291E+02 0.258E+02 0.304E+02   -.321E+01 -.291E+01 -.343E+01   0.114E-03 0.680E-04 0.838E-04
   -.340E+02 -.198E+02 0.191E+01   0.390E+02 0.227E+02 -.230E+01   -.510E+01 -.290E+01 0.384E+00   -.132E-03 -.944E-05 -.315E-04
   0.340E+02 0.198E+02 -.191E+01   -.390E+02 -.227E+02 0.230E+01   0.510E+01 0.290E+01 -.384E+00   0.132E-03 0.944E-05 0.315E-04
   0.340E+02 0.198E+02 0.191E+01   -.390E+02 -.227E+02 -.230E+01   0.510E+01 0.290E+01 0.384E+00   0.132E-03 0.944E-05 -.315E-04
   -.340E+02 -.198E+02 -.191E+01   0.390E+02 0.227E+02 0.230E+01   -.510E+01 -.290E+01 -.384E+00   -.132E-03 -.944E-05 0.315E-04
   0.340E+02 -.198E+02 -.191E+01   -.390E+02 0.227E+02 0.230E+01   0.510E+01 -.290E+01 -.384E+00   0.132E-03 -.944E-05 0.315E-04
   -.340E+02 0.198E+02 0.191E+01   0.390E+02 -.227E+02 -.230E+01   -.510E+01 0.290E+01 0.384E+00   -.132E-03 0.944E-05 -.315E-04
   -.340E+02 0.198E+02 -.191E+01   0.390E+02 -.227E+02 0.230E+01   -.510E+01 0.290E+01 -.384E+00   -.132E-03 0.944E-05 0.315E-04
   0.340E+02 -.198E+02 0.191E+01   -.390E+02 0.227E+02 -.230E+01   0.510E+01 -.290E+01 0.384E+00   0.132E-03 -.944E-05 -.315E-04
   -.340E+02 -.198E+02 0.191E+01   0.390E+02 0.227E+02 -.230E+01   -.510E+01 -.290E+01 0.384E+00   -.132E-03 -.944E-05 -.315E-04
   0.340E+02 0.198E+02 -.191E+01   -.390E+02 -.227E+02 0.230E+01   0.510E+01 0.290E+01 -.384E+00   0.132E-03 0.944E-05 0.315E-04
   0.340E+02 0.198E+02 0.191E+01   -.390E+02 -.227E+02 -.230E+01   0.510E+01 0.290E+01 0.384E+00   0.132E-03 0.944E-05 -.315E-04
   -.340E+02 -.198E+02 -.191E+01   0.390E+02 0.227E+02 0.230E+01   -.510E+01 -.290E+01 -.384E+00   -.132E-03 -.944E-05 0.315E-04
   0.340E+02 -.198E+02 -.191E+01   -.390E+02 0.227E+02 0.230E+01   0.510E+01 -.290E+01 -.384E+00   0.132E-03 -.944E-05 0.315E-04
   -.340E+02 0.198E+02 0.191E+01   0.390E+02 -.227E+02 -.230E+01   -.510E+01 0.290E+01 0.384E+00   -.132E-03 0.944E-05 -.315E-04
   -.340E+02 0.198E+02 -.191E+01   0.390E+02 -.227E+02 0.230E+01   -.510E+01 0.290E+01 -.384E+00   -.132E-03 0.944E-05 0.315E-04
   0.340E+02 -.198E+02 0.191E+01   -.390E+02 0.227E+02 -.230E+01   0.510E+01 -.290E+01 0.384E+00   0.132E-03 -.944E-05 -.315E-04
   0.151E-07 0.402E+02 -.358E+01   -.708E-06 -.461E+02 0.403E+01   0.132E-22 0.585E+01 -.466E+00   -.383E-10 0.126E-03 -.221E-04
   0.151E-07 -.402E+02 0.358E+01   -.708E-06 0.461E+02 -.403E+01   0.132E-22 -.585E+01 0.466E+00   -.383E-10 -.126E-03 0.221E-04
   0.151E-07 -.402E+02 -.358E+01   -.708E-06 0.461E+02 0.403E+01   0.000E+00 -.585E+01 -.466E+00   -.383E-10 -.126E-03 -.221E-04
   0.151E-07 0.402E+02 0.358E+01   -.708E-06 -.461E+02 -.403E+01   -.212E-21 0.585E+01 0.466E+00   -.382E-10 0.126E-03 0.221E-04
   -.161E-07 0.402E+02 -.358E+01   0.753E-06 -.461E+02 0.403E+01   -.662E-22 0.585E+01 -.466E+00   0.354E-10 0.126E-03 -.221E-04
   -.161E-07 -.402E+02 0.358E+01   0.753E-06 0.461E+02 -.403E+01   0.132E-22 -.585E+01 0.466E+00   0.355E-10 -.126E-03 0.221E-04
   -.161E-07 -.402E+02 -.358E+01   0.753E-06 0.461E+02 0.403E+01   0.000E+00 -.585E+01 -.466E+00   0.354E-10 -.126E-03 -.221E-04
   -.161E-07 0.402E+02 0.358E+01   0.753E-06 -.461E+02 -.403E+01   0.106E-21 0.585E+01 0.466E+00   0.354E-10 0.126E-03 0.221E-04
   -.244E-06 -.982E+00 -.231E+01   0.122E-04 0.925E+00 0.242E+01   0.529E-22 0.668E-01 -.115E+00   -.930E-10 0.210E-03 -.160E-03
   -.244E-06 0.982E+00 0.231E+01   0.122E-04 -.925E+00 -.242E+01   0.318E-21 -.668E-01 0.115E+00   -.932E-10 -.210E-03 0.160E-03
   -.244E-06 0.982E+00 -.231E+01   0.122E-04 -.925E+00 0.242E+01   -.212E-21 -.668E-01 -.115E+00   -.932E-10 -.210E-03 -.160E-03
   -.244E-06 -.982E+00 0.231E+01   0.122E-04 0.925E+00 -.242E+01   -.529E-22 0.668E-01 0.115E+00   -.930E-10 0.210E-03 0.160E-03
   0.337E-06 -.982E+00 -.231E+01   -.169E-04 0.925E+00 0.242E+01   -.318E-21 0.668E-01 -.115E+00   0.615E-10 0.210E-03 -.160E-03
   0.337E-06 0.982E+00 0.231E+01   -.169E-04 -.925E+00 -.242E+01   -.397E-22 -.668E-01 0.115E+00   0.617E-10 -.210E-03 0.160E-03
   0.337E-06 0.982E+00 -.231E+01   -.169E-04 -.925E+00 0.242E+01   -.212E-21 -.668E-01 -.115E+00   0.617E-10 -.210E-03 -.160E-03
   0.337E-06 -.982E+00 0.231E+01   -.169E-04 0.925E+00 -.242E+01   0.212E-21 0.668E-01 0.115E+00   0.616E-10 0.210E-03 0.160E-03
   0.132E+01 -.233E-07 0.592E-08   -.124E+01 -.135E-06 -.281E-06   -.925E-01 -.339E-20 -.339E-20   -.459E-04 -.312E-11 -.228E-09
   -.132E+01 0.290E-07 0.636E-08   0.124E+01 -.135E-06 -.281E-06   0.925E-01 -.678E-20 -.339E-20   0.459E-04 -.298E-11 -.228E-09
   -.132E+01 -.242E-07 -.994E-09   0.124E+01 -.873E-07 0.442E-07   0.925E-01 -.339E-20 -.339E-20   0.459E-04 -.115E-10 0.249E-09
   0.132E+01 0.280E-07 -.142E-08   -.124E+01 -.873E-07 0.442E-07   -.925E-01 -.635E-20 -.678E-20   -.459E-04 -.116E-10 0.249E-09
   0.132E+01 -.233E-07 0.593E-08   -.124E+01 -.135E-06 -.281E-06   -.925E-01 -.339E-20 0.339E-20   -.459E-04 -.267E-11 -.228E-09
   -.132E+01 0.290E-07 0.636E-08   0.124E+01 -.135E-06 -.281E-06   0.925E-01 0.000E+00 0.102E-19   0.459E-04 -.274E-11 -.229E-09
   -.132E+01 -.242E-07 -.993E-09   0.124E+01 -.873E-07 0.442E-07   0.925E-01 -.339E-20 -.339E-20   0.459E-04 -.115E-10 0.248E-09
   0.132E+01 0.280E-07 -.142E-08   -.124E+01 -.873E-07 0.442E-07   -.925E-01 -.424E-21 -.136E-19   -.459E-04 -.117E-10 0.248E-09
 -----------------------------------------------------------------------------------------------
   0.907E-05 0.545E-05 0.114E-03   -.755E-14 -.314E-13 -.202E-13   0.179E-14 -.355E-14 -.122E-14   -.221E-09 -.968E-10 0.223E-09
 
 
 POSITION                                       TOTAL-FORCE (eV/Angst)
 -----------------------------------------------------------------------------------
      9.29607      4.72637      7.50799        -0.004564      0.003490     -0.004008
      2.25360      3.35225      0.56560         0.004564     -0.003490      0.004008
      2.25360      7.39156      3.47120         0.004564     -0.003490     -0.004008
      9.29607      0.68706      4.60239        -0.004564      0.003490      0.004008
      2.25360      0.68706      4.60239         0.004564      0.003490      0.004008
      9.29607      7.39156      3.47120        -0.004564     -0.003490     -0.004008
      9.29607      3.35225      0.56560        -0.004564     -0.003490      0.004008
      2.25360      4.72637      7.50799         0.004564      0.003490     -0.004008
      3.52123      0.68706      7.50799        -0.004564      0.003490     -0.004008
      8.02843      7.39156      0.56560         0.004564     -0.003490      0.004008
      8.02843      3.35225      3.47120         0.004564     -0.003490     -0.004008
      3.52123      4.72637      4.60239        -0.004564      0.003490      0.004008
      8.02843      4.72637      4.60239         0.004564      0.003490      0.004008
      3.52123      3.35225      3.47120        -0.004564     -0.003490     -0.004008
      3.52123      7.39156      0.56560        -0.004564     -0.003490      0.004008
      8.02843      0.68706      7.50799         0.004564      0.003490     -0.004008
      8.02262      4.61484      0.68415         0.003042     -0.008354      0.000450
      3.52704      3.46378      7.38944        -0.003042      0.008354     -0.000450
      3.52704      7.50309      4.72095        -0.003042      0.008354      0.000450
      8.02262      0.57553      3.35264         0.003042     -0.008354     -0.000450
      3.52704      0.57553      3.35264        -0.003042     -0.008354     -0.000450
      8.02262      7.50309      4.72095         0.003042      0.008354      0.000450
      8.02262      3.46378      7.38944         0.003042      0.008354     -0.000450
      3.52704      4.61484      0.68415        -0.003042     -0.008354      0.000450
      2.24779      0.57553      0.68415         0.003042     -0.008354      0.000450
      9.30188      7.50309      7.38944        -0.003042      0.008354     -0.000450
      9.30188      3.46378      4.72095        -0.003042      0.008354      0.000450
      2.24779      4.61484      3.35264         0.003042     -0.008354     -0.000450
      9.30188      4.61484      3.35264        -0.003042     -0.008354     -0.000450
      2.24779      3.46378      4.72095         0.003042      0.008354      0.000450
      2.24779      7.50309      7.38944         0.003042      0.008354     -0.000450
      9.30188      0.57553      0.68415        -0.003042     -0.008354      0.000450
      0.94162      6.41525      1.54325        -0.015172      0.007651     -0.012297
     10.60804      1.66337      6.53034         0.015172     -0.007651      0.012297
     10.60804      5.70268      5.58004         0.015172     -0.007651     -0.012297
      0.94162      2.37594      2.49355        -0.015172      0.007651      0.012297
     10.60804      2.37594      2.49355         0.015172      0.007651      0.012297
      0.94162      5.70268      5.58004        -0.015172     -0.007651     -0.012297
      0.94162      1.66337      6.53034        -0.015172     -0.007651      0.012297
     10.60804      6.41525      1.54325         0.015172      0.007651     -0.012297
      6.71645      2.37594      1.54325        -0.015172      0.007651     -0.012297
      4.83321      5.70268      6.53034         0.015172     -0.007651      0.012297
      4.83321      1.66337      5.58004         0.015172     -0.007651     -0.012297
      6.71645      6.41525      2.49355        -0.015172      0.007651      0.012297
      4.83321      6.41525      2.49355         0.015172      0.007651      0.012297
      6.71645      1.66337      5.58004        -0.015172     -0.007651     -0.012297
      6.71645      5.70268      6.53034        -0.015172     -0.007651      0.012297
      4.83321      2.37594      1.54325         0.015172      0.007651     -0.012297
     -0.00000      4.79466      1.69829        -0.000000      0.026666     -0.015960
     -0.00000      3.28396      6.37530        -0.000000     -0.026666      0.015960
     -0.00000      7.32327      5.73508        -0.000000     -0.026666     -0.015960
     -0.00000      0.75535      2.33851        -0.000000      0.026666      0.015960
      5.77483      0.75535      1.69829        -0.000000      0.026666     -0.015960
      5.77483      7.32327      6.37530        -0.000000     -0.026666      0.015960
      5.77483      3.28396      5.73508        -0.000000     -0.026666     -0.015960
      5.77483      4.79466      2.33851        -0.000000      0.026666      0.015960
     -0.00000      5.87796      1.60930        -0.000000      0.009289     -0.003739
     -0.00000      2.20066      6.46429        -0.000000     -0.009289      0.003739
     -0.00000      6.23997      5.64609        -0.000000     -0.009289     -0.003739
     -0.00000      1.83865      2.42750        -0.000000      0.009289      0.003739
      5.77483      1.83865      1.60930        -0.000000      0.009289     -0.003739
      5.77483      6.23997      6.46429        -0.000000     -0.009289      0.003739
      5.77483      2.20066      5.64609        -0.000000     -0.009289     -0.003739
      5.77483      5.87796      2.42750        -0.000000      0.009289      0.003739
      8.65695      4.03931     -0.00000        -0.012287      0.000000     -0.000000
      2.89272      4.03931     -0.00000         0.012287      0.000000     -0.000000
      2.89272     -0.00000      4.03679         0.012287      0.000000      0.000000
      8.65695     -0.00000      4.03679        -0.012287      0.000000      0.000000
      2.88211     -0.00000     -0.00000        -0.012287      0.000000     -0.000000
      8.66755     -0.00000     -0.00000         0.012287      0.000000     -0.000000
      8.66755      4.03931      4.03679         0.012287      0.000000      0.000000
      2.88211      4.03931      4.03679        -0.012287      0.000000      0.000000
 -----------------------------------------------------------------------------------
    total drift:                                0.000009      0.000005      0.000114


--------------------------------------------------------------------------------------------------------



  FREE ENERGIE OF THE ION-ELECTRON SYSTEM (eV)
  ---------------------------------------------------
  free  energy   TOTEN  =      -337.51103520 eV

  energy  without entropy=     -337.51103520  energy(sigma->0) =     -337.51103520
 
 d Force = 0.2876865E-04[-0.163E-05, 0.592E-04]  d Energy = 0.2986423E-04-0.110E-05
 d Force =-0.2636216E-01[-0.264E-01,-0.264E-01]  d Ewald  =-0.2636218E-01 0.131E-07


--------------------------------------------------------------------------------------------------------


    POTLOK:  cpu time    0.21: real time    0.21


--------------------------------------------------------------------------------------------------------




--------------------------------------------------------------------------------------------------------


  
 reached required accuracy - stopping structural energy minimisation
     LOOP+:  cpu time  485.43: real time  485.69
    4ORBIT:  cpu time    0.00: real time    0.00
 BZINTS: Fermi energy: -1.909925;120.000000 electrons
         Band energy:***********;  BLOECHL correction:  0.000000

 total amount of memory used by VASP on root node   394193. kBytes
========================================================================

   base      :      30000. kBytes
   nonl-proj :      58033. kBytes
   fftplans  :      13558. kBytes
   grid      :      21584. kBytes
   one-center:        110. kBytes
   wavefun   :     270908. kBytes
 
  
  
 General timing and accounting informations for this job:
 ========================================================
  
                  Total CPU time used (sec):    17062.562
                            User time (sec):    14474.719
                          System time (sec):     2587.844
                         Elapsed time (sec):    17072.490
  
                   Maximum memory used (kb):      535608.
                   Average memory used (kb):           0.
  
                          Minor page faults:    204763827
                          Major page faults:            0
                 Voluntary context switches:         2868
