 vasp.5.3.5 31Mar14 (build Nov 02 2014 15:17:37) complex                        
  
 executed on        ion-Intel-MKL date 2017.06.15  21:27:25
 running on    4 total cores
 distrk:  each k-point on    4 cores,    1 groups
 distr:  one band on NCORES_PER_BAND=   2 cores,    2 groups


--------------------------------------------------------------------------------------------------------


 INCAR:
 POTCAR:  PAW_PBE H 15Jun2001                     
 POTCAR:  PAW_PBE C 08Apr2002                     
 POTCAR:  PAW_PBE H 15Jun2001                     
   VRHFIN =H: ultrasoft test                                                    
   LEXCH  = PE                                                                  
   EATOM  =    12.4884 eV,     .9179 Ry                                         
                                                                                
   TITEL  = PAW_PBE H 15Jun2001                                                 
   LULTRA =        F    use ultrasoft PP ?                                      
   IUNSCR =        0    unscreen: 0-lin 1-nonlin 2-no                           
   RPACOR =     .000    partial core radius                                     
   POMASS =    1.000; ZVAL   =    1.000    mass and valenz                      
   RCORE  =    1.100    outmost cutoff radius                                   
   RWIGS  =     .700; RWIGS  =     .370    wigner-seitz radius (au A)           
   ENMAX  =  250.000; ENMIN  =  200.000 eV                                      
   RCLOC  =     .701    cutoff for local pot                                    
   LCOR   =        T    correct aug charges                                     
   LPAW   =        T    paw PP                                                  
   EAUG   =  400.000                                                            
   RMAX   =    2.174    core radius for proj-oper                               
   RAUG   =    1.200    factor for augmentation sphere                          
   RDEP   =    1.112    radius for radial grids                                 
   QCUT   =   -5.749; QGAM   =   11.498    optimization parameters              
                                                                                
   Description                                                                  
     l     E      TYP  RCUT    TYP  RCUT                                        
     0   .000     23  1.100                                                     
     0   .500     23  1.100                                                     
     1  -.300     23  1.100                                                     
  local pseudopotential read in
  atomic valenz-charges read in
  non local Contribution for L=           0  read in
    real space projection operators read in
  non local Contribution for L=           0  read in
    real space projection operators read in
  non local Contribution for L=           1  read in
    real space projection operators read in
    PAW grid and wavefunctions read in
 
   number of l-projection  operators is LMAX  =           3
   number of lm-projection operators is LMMAX =           5
 
 POTCAR:  PAW_PBE C 08Apr2002                     
   VRHFIN =C: s2p2                                                              
   LEXCH  = PE                                                                  
   EATOM  =   147.1560 eV,   10.8157 Ry                                         
                                                                                
   TITEL  = PAW_PBE C 08Apr2002                                                 
   LULTRA =        F    use ultrasoft PP ?                                      
   IUNSCR =        0    unscreen: 0-lin 1-nonlin 2-no                           
   RPACOR =     .000    partial core radius                                     
   POMASS =   12.011; ZVAL   =    4.000    mass and valenz                      
   RCORE  =    1.500    outmost cutoff radius                                   
   RWIGS  =    1.630; RWIGS  =     .863    wigner-seitz radius (au A)           
   ENMAX  =  400.000; ENMIN  =  300.000 eV                                      
   ICORE  =        2    local potential                                         
   LCOR   =        T    correct aug charges                                     
   LPAW   =        T    paw PP                                                  
   EAUG   =  644.873                                                            
   DEXC   =     .000                                                            
   RMAX   =    2.266    core radius for proj-oper                               
   RAUG   =    1.300    factor for augmentation sphere                          
   RDEP   =    1.501    radius for radial grids                                 
   RDEPT  =    1.300    core radius for aug-charge                              
   QCUT   =   -5.516; QGAM   =   11.032    optimization parameters              
                                                                                
   Description                                                                  
     l     E      TYP  RCUT    TYP  RCUT                                        
     0   .000     23  1.200                                                     
     0   .000     23  1.200                                                     
     1   .000     23  1.500                                                     
     1  2.500     23  1.500                                                     
     2   .000      7  1.500                                                     
  local pseudopotential read in
  atomic valenz-charges read in
  non local Contribution for L=           0  read in
    real space projection operators read in
  non local Contribution for L=           0  read in
    real space projection operators read in
  non local Contribution for L=           1  read in
    real space projection operators read in
  non local Contribution for L=           1  read in
    real space projection operators read in
    PAW grid and wavefunctions read in
 
   number of l-projection  operators is LMAX  =           4
   number of lm-projection operators is LMMAX =           8
 

 ----------------------------------------------------------------------------- 
|                                                                             |
|  ADVICE TO THIS USER RUNNING 'VASP/VAMP'   (HEAR YOUR MASTER'S VOICE ...):  |
|                                                                             |
|      You have a (more or less) 'large supercell' and for larger cells       |
|      it might be more efficient to use real space projection operators      |
|      So try LREAL= Auto  in the INCAR   file.                               |
|      Mind: If you want to do a very accurate calculations keep the          |
|      reciprocal projection scheme          (i.e. LREAL=.FALSE.)             |
|                                                                             |
 ----------------------------------------------------------------------------- 

PAW_PBE H 15Jun2001                     :
 energy of atom  1       EATOM=  -12.4884
 kinetic energy error for atom=    0.0004 (will be added to EATOM!!)
PAW_PBE C 08Apr2002                     :
 energy of atom  2       EATOM= -147.1560
 kinetic energy error for atom=    0.0057 (will be added to EATOM!!)
 
 
 POSCAR: methane-low                             
  positions in direct lattice
  No initial velocities read in
 exchange correlation table for  LEXCH =        8
   RHO(1)=    0.500       N(1)  =     2000
   RHO(2)=  100.500       N(2)  =     4000
 


--------------------------------------------------------------------------------------------------------


 ion  position               nearest neighbor table
   1  0.073  0.785  0.182-  65 1.03
   2  0.927  0.215  0.818-  66 1.03
   3  0.927  0.715  0.682-  67 1.03
   4  0.073  0.285  0.318-  68 1.03
   5  0.927  0.285  0.318-  68 1.03
   6  0.073  0.715  0.682-  67 1.03
   7  0.073  0.215  0.818-  66 1.03
   8  0.927  0.785  0.182-  65 1.03
   9  0.573  0.285  0.182-  69 1.03
  10  0.427  0.715  0.818-  70 1.03
  11  0.427  0.215  0.682-  71 1.03
  12  0.573  0.785  0.318-  72 1.03
  13  0.427  0.785  0.318-  72 1.03
  14  0.573  0.215  0.682-  71 1.03
  15  0.573  0.715  0.818-  70 1.03
  16  0.427  0.285  0.182-  69 1.03
  17  0.801  0.580  0.934-  73 1.02
  18  0.199  0.420  0.066-  74 1.02
  19  0.199  0.920  0.434-  75 1.02
  20  0.801  0.080  0.566-  76 1.02
  21  0.199  0.080  0.566-  75 1.02
  22  0.801  0.920  0.434-  76 1.02
  23  0.801  0.420  0.066-  73 1.02
  24  0.199  0.580  0.934-  74 1.02
  25  0.301  0.080  0.934-  77 1.02
  26  0.699  0.920  0.066-  78 1.02
  27  0.699  0.420  0.434-  79 1.02
  28  0.301  0.580  0.566-  80 1.02
  29  0.699  0.580  0.566-  79 1.02
  30  0.301  0.420  0.434-  80 1.02
  31  0.301  0.920  0.066-  77 1.02
  32  0.699  0.080  0.934-  78 1.02
  33  0.699  0.566  0.080-  73 1.02
  34  0.301  0.434  0.920-  74 1.02
  35  0.301  0.934  0.580-  75 1.02
  36  0.699  0.066  0.420-  76 1.02
  37  0.301  0.066  0.420-  75 1.02
  38  0.699  0.934  0.580-  76 1.02
  39  0.699  0.434  0.920-  73 1.02
  40  0.301  0.566  0.080-  74 1.02
  41  0.199  0.066  0.080-  77 1.02
  42  0.801  0.934  0.920-  78 1.02
  43  0.801  0.434  0.580-  79 1.02
  44  0.199  0.566  0.420-  80 1.02
  45  0.801  0.566  0.420-  79 1.02
  46  0.199  0.434  0.580-  80 1.02
  47  0.199  0.934  0.920-  77 1.02
  48  0.801  0.066  0.080-  78 1.02
  49  0.000  0.606  0.199-  65 1.03
  50  0.000  0.394  0.801-  66 1.03
  51  0.000  0.894  0.699-  67 1.03
  52  0.000  0.106  0.301-  68 1.03
  53  0.500  0.106  0.199-  69 1.03
  54  0.500  0.894  0.801-  70 1.03
  55  0.500  0.394  0.699-  71 1.03
  56  0.500  0.606  0.301-  72 1.03
  57  0.000  0.742  0.785-  67 0.50
  58  0.000  0.258  0.215-  68 0.50
  59  0.000  0.758  0.285-  65 0.50
  60  0.000  0.242  0.715-  66 0.50
  61  0.500  0.242  0.785-  71 0.50
  62  0.500  0.758  0.215-  72 0.50
  63  0.500  0.258  0.285-  69 0.50
  64  0.500  0.742  0.715-  70 0.50
  65  0.000  0.730  0.230-  59 0.50   8 1.03   1 1.03  49 1.03
  66  0.000  0.270  0.770-  60 0.50   2 1.03   7 1.03  50 1.03
  67  0.000  0.770  0.730-  57 0.50   3 1.03   6 1.03  51 1.03
  68  0.000  0.230  0.270-  58 0.50   5 1.03   4 1.03  52 1.03
  69  0.500  0.230  0.230-  63 0.50   9 1.03  16 1.03  53 1.03
  70  0.500  0.770  0.770-  64 0.50  15 1.03  10 1.03  54 1.03
  71  0.500  0.270  0.730-  61 0.50  14 1.03  11 1.03  55 1.03
  72  0.500  0.730  0.270-  62 0.50  12 1.03  13 1.03  56 1.03
  73  0.750  0.500  0.000-  17 1.02  23 1.02  33 1.02  39 1.02
  74  0.250  0.500  0.000-  18 1.02  24 1.02  34 1.02  40 1.02
  75  0.250  0.000  0.500-  19 1.02  21 1.02  35 1.02  37 1.02
  76  0.750  0.000  0.500-  20 1.02  22 1.02  36 1.02  38 1.02
  77  0.250  0.000  0.000-  25 1.02  31 1.02  41 1.02  47 1.02
  78  0.750  0.000  0.000-  26 1.02  32 1.02  42 1.02  48 1.02
  79  0.750  0.500  0.500-  27 1.02  29 1.02  43 1.02  45 1.02
  80  0.250  0.500  0.500-  28 1.02  30 1.02  44 1.02  46 1.02
 
  LATTYP: Found a simple orthorhombic cell.
 ALAT       =     8.0735894287
 B/A-ratio  =     1.0006230659
 C/A-ratio  =     1.4305490624
  
  Lattice vectors:
  
 A1 = (   0.0000000000,   0.0000000000,  -8.0735894287)
 A2 = (   0.0000000000,  -8.0786198073,   0.0000000000)
 A3 = ( -11.5496657878,   0.0000000000,   0.0000000000)


Analysis of symmetry for initial positions (statically):
=====================================================================
 Subroutine PRICEL returns following result:
 
  LATTYP: Found a base centered orthorhombic cell.
 ALAT       =     8.0786198073
 B/A-ratio  =     1.4296582910
 C/A-ratio  =     0.9993773220
  
  Lattice vectors:
  
 A1 = (   5.7748328939,  -4.0393099037,   0.0000000000)
 A2 = (  -5.7748328939,  -4.0393099037,   0.0000000000)
 A3 = (   0.0000000000,   0.0000000000,  -8.0735894287)
 
   2 primitive cells build up your supercell.
 

 Routine SETGRP: Setting up the symmetry group for a 
 simple orthorhombic supercell.


 Subroutine GETGRP returns: Found  8 space group operations
 (whereof  4 operations were pure point group operations)
 out of a pool of  8 trial point group operations.


The static configuration has the point symmetry C_2h.
 The point group associated with its full space group is D_2h.


Analysis of symmetry for dynamics (positions and initial velocities):
=====================================================================
 Subroutine PRICEL returns following result:
 
  LATTYP: Found a base centered orthorhombic cell.
 ALAT       =     8.0786198073
 B/A-ratio  =     1.4296582910
 C/A-ratio  =     0.9993773220
  
  Lattice vectors:
  
 A1 = (   5.7748328939,  -4.0393099037,   0.0000000000)
 A2 = (  -5.7748328939,  -4.0393099037,   0.0000000000)
 A3 = (   0.0000000000,   0.0000000000,  -8.0735894287)
 
   2 primitive cells build up your supercell.
 

 Routine SETGRP: Setting up the symmetry group for a 
 simple orthorhombic supercell.


 Subroutine GETGRP returns: Found  8 space group operations
 (whereof  4 operations were pure point group operations)
 out of a pool of  8 trial point group operations.


The dynamic configuration has the point symmetry C_2h.
 The point group associated with its full space group is D_2h.
 
 
 KPOINTS: B4C B11C-CBC                            

Automatic generation of k-mesh.
Space group operators:
 irot       det(A)        alpha          n_x          n_y          n_z        tau_x        tau_y        tau_z
    1     1.000000     0.000000     1.000000     0.000000     0.000000     0.000000     0.000000     0.000000
    2    -1.000000     0.000000     1.000000     0.000000     0.000000     0.000000     0.000000     0.000000
    3     1.000000   180.000000     1.000000     0.000000     0.000000     0.000000     0.000000     0.000000
    4    -1.000000   180.000000     1.000000     0.000000     0.000000     0.000000     0.000000     0.000000
    5     1.000000   180.000000     0.000000     1.000000     0.000000     0.000000    -0.500000    -0.500000
    6    -1.000000   180.000000     0.000000     1.000000     0.000000     0.000000    -0.500000    -0.500000
    7     1.000000   180.000000     0.000000     0.000000     1.000000     0.000000    -0.500000    -0.500000
    8    -1.000000   180.000000     0.000000     0.000000     1.000000     0.000000    -0.500000    -0.500000
 
 Subroutine IBZKPT returns following result:
 ===========================================
 
 Found     27 irreducible k-points:
 
 Following reciprocal coordinates:
            Coordinates               Weight
  0.000000  0.000000  0.000000      1.000000
  0.250000  0.000000  0.000000      2.000000
  0.500000  0.000000  0.000000      1.000000
  0.000000  0.250000  0.000000      2.000000
  0.250000  0.250000  0.000000      4.000000
  0.500000  0.250000  0.000000      2.000000
  0.000000  0.500000  0.000000      1.000000
  0.250000  0.500000  0.000000      2.000000
  0.500000  0.500000  0.000000      1.000000
  0.000000  0.000000  0.250000      2.000000
  0.250000  0.000000  0.250000      4.000000
  0.500000  0.000000  0.250000      2.000000
  0.000000  0.250000  0.250000      4.000000
  0.250000  0.250000  0.250000      8.000000
  0.500000  0.250000  0.250000      4.000000
  0.000000  0.500000  0.250000      2.000000
  0.250000  0.500000  0.250000      4.000000
  0.500000  0.500000  0.250000      2.000000
  0.000000  0.000000  0.500000      1.000000
  0.250000  0.000000  0.500000      2.000000
  0.500000  0.000000  0.500000      1.000000
  0.000000  0.250000  0.500000      2.000000
  0.250000  0.250000  0.500000      4.000000
  0.500000  0.250000  0.500000      2.000000
  0.000000  0.500000  0.500000      1.000000
  0.250000  0.500000  0.500000      2.000000
  0.500000  0.500000  0.500000      1.000000
 
 Following cartesian coordinates:
            Coordinates               Weight
  0.000000  0.000000  0.000000      1.000000
  0.021353  0.000000  0.000000      2.000000
  0.042706  0.000000  0.000000      1.000000
  0.000000  0.030528  0.000000      2.000000
  0.021353  0.030528  0.000000      4.000000
  0.042706  0.030528  0.000000      2.000000
  0.000000  0.061055  0.000000      1.000000
  0.021353  0.061055  0.000000      2.000000
  0.042706  0.061055  0.000000      1.000000
  0.000000  0.000000  0.030547      2.000000
  0.021353  0.000000  0.030547      4.000000
  0.042706  0.000000  0.030547      2.000000
  0.000000  0.030528  0.030547      4.000000
  0.021353  0.030528  0.030547      8.000000
  0.042706  0.030528  0.030547      4.000000
  0.000000  0.061055  0.030547      2.000000
  0.021353  0.061055  0.030547      4.000000
  0.042706  0.061055  0.030547      2.000000
  0.000000  0.000000  0.061093      1.000000
  0.021353  0.000000  0.061093      2.000000
  0.042706  0.000000  0.061093      1.000000
  0.000000  0.030528  0.061093      2.000000
  0.021353  0.030528  0.061093      4.000000
  0.042706  0.030528  0.061093      2.000000
  0.000000  0.061055  0.061093      1.000000
  0.021353  0.061055  0.061093      2.000000
  0.042706  0.061055  0.061093      1.000000
 
 TETIRR: Found    192 inequivalent tetrahedra from      384


--------------------------------------------------------------------------------------------------------




 Dimension of arrays:
   k-points           NKPTS =     27   k-points in BZ     NKDIM =     27   number of bands    NBANDS=    106
   number of dos      NEDOS =    301   number of ions     NIONS =     80
   non local maximal  LDIM  =      4   non local SUM 2l+1 LMDIM =      8
   total plane-waves  NPLWV = 161280
   max r-space proj   IRMAX =      1   max aug-charges    IRDMAX=   2726
   dimension x,y,z NGX =    70 NGY =   48 NGZ =   48
   dimension x,y,z NGXF=   140 NGYF=   96 NGZF=   96
   support grid    NGXF=   140 NGYF=   96 NGZF=   96
   ions per type =              64  16
 NGX,Y,Z   is equivalent  to a cutoff of  10.08,  9.88,  9.88 a.u.
 NGXF,Y,Z  is equivalent  to a cutoff of  20.15, 19.76, 19.77 a.u.


 I would recommend the setting:
   dimension x,y,z NGX =    69 NGY =   48 NGZ =   48
 SYSTEM =  diamond                                 
 POSCAR =  methane-low                             

 Startparameter for this run:
   NWRITE =      2    write-flag & timer
   PREC   = normal    normal or accurate (medium, high low for compatibility)
   ISTART =      0    job   : 0-new  1-cont  2-samecut
   ICHARG =      2    charge: 1-file 2-atom 10-const
   ISPIN  =      1    spin polarized calculation?
   LNONCOLLINEAR =      F non collinear calculations
   LSORBIT =      F    spin-orbit coupling
   INIWAV =      1    electr: 0-lowe 1-rand  2-diag
   LASPH  =      F    aspherical Exc in radial PAW
   METAGGA=      F    non-selfconsistent MetaGGA calc.

 Electronic Relaxation 1
   ENCUT  =  600.0 eV  44.10 Ry    6.64 a.u.  23.07 16.14 16.12*2*pi/ulx,y,z
   ENINI  =  600.0     initial cutoff
   ENAUG  =  644.9 eV  augmentation charge cutoff
   NELM   =    200;   NELMIN=  2; NELMDL=  0     # of ELM steps 
   EDIFF  = 0.1E-05   stopping-criterion for ELM
   LREAL  =      F    real-space projection
   NLSPLINE    = F    spline interpolate recip. space projectors
   LCOMPAT=      F    compatible to vasp.4.4
   GGA_COMPAT  = T    GGA compatible to vasp.4.4-vasp.4.6
   LMAXPAW     = -100 max onsite density
   LMAXMIX     =    2 max onsite mixed and CHGCAR
   VOSKOWN=      0    Vosko Wilk Nusair interpolation
   ROPT   =    0.00000   0.00000
 Ionic relaxation
   EDIFFG = 0.1E-02   stopping-criterion for IOM
   NSW    =    200    number of steps for IOM
   NBLOCK =      1;   KBLOCK =    200    inner block; outer block 
   IBRION =      2    ionic relax: 0-MD 1-quasi-New 2-CG
   NFREE  =      1    steps in history (QN), initial steepest desc. (CG)
   ISIF   =      2    stress and relaxation
   IWAVPR =     11    prediction:  0-non 1-charg 2-wave 3-comb
   ISYM   =      2    0-nonsym 1-usesym 2-fastsym
   LCORR  =      T    Harris-Foulkes like correction to forces

   POTIM  = 0.5000    time-step for ionic-motion
   TEIN   =    0.0    initial temperature
   TEBEG  =    0.0;   TEEND  =   0.0 temperature during run
   SMASS  =  -3.00    Nose mass-parameter (am)
   estimated Nose-frequenzy (Omega)   =  0.10E-29 period in steps =****** mass=  -0.305E-26a.u.
   SCALEE = 1.0000    scale energy and forces
   NPACO  =    256;   APACO  = 16.0  distance and # of slots for P.C.
   PSTRESS=    0.0 pullay stress

  Mass of Ions in am
   POMASS =   1.00 12.01
  Ionic Valenz
   ZVAL   =   1.00  4.00
  Atomic Wigner-Seitz radii
   RWIGS  =  -1.00 -1.00
  virtual crystal weights 
   VCA    =   1.00  1.00
   NELECT =     128.0000    total number of electrons
   NUPDOWN=      -1.0000    fix difference up-down

 DOS related values:
   EMIN   =  10.00;   EMAX   =-10.00  energy-range for DOS
   EFERMI =   0.00
   ISMEAR =    -5;   SIGMA  =   0.20  broadening in eV -4-tet -1-fermi 0-gaus

 Electronic relaxation 2 (details)
   IALGO  =     38    algorithm
   LDIAG  =      T    sub-space diagonalisation (order eigenvalues)
   LSUBROT=      F    optimize rotation matrix (better conditioning)
   TURBO    =      0    0=normal 1=particle mesh
   IRESTART =      0    0=no restart 2=restart with 2 vectors
   NREBOOT  =      0    no. of reboots
   NMIN     =      0    reboot dimension
   EREF     =   0.00    reference energy to select bands
   IMIX   =      4    mixing-type and parameters
     AMIX     =   0.40;   BMIX     =  1.00
     AMIX_MAG =   1.60;   BMIX_MAG =  1.00
     AMIN     =   0.10
     WC   =   100.;   INIMIX=   1;  MIXPRE=   1;  MAXMIX= -45

 Intra band minimization:
   WEIMIN = 0.0010     energy-eigenvalue tresh-hold
   EBREAK =  0.24E-08  absolut break condition
   DEPER  =   0.30     relativ break condition  

   TIME   =   0.40     timestep for ELM

  volume/ion in A,a.u.               =       9.42        63.54
  Fermi-wavevector in a.u.,A,eV,Ry     =   0.906749  1.713507 11.186624  0.822194
  Thomas-Fermi vector in A             =   2.030474
 
 Write flags
   LWAVE  =      F    write WAVECAR
   LCHARG =      F    write CHGCAR
   LVTOT  =      F    write LOCPOT, total local potential
   LVHAR  =      F    write LOCPOT, Hartree potential only
   LELF   =      F    write electronic localiz. function (ELF)
   LORBIT =      0    0 simple, 1 ext, 2 COOP (PROOUT)


 Dipole corrections
   LMONO  =      F    monopole corrections only (constant potential shift)
   LDIPOL =      F    correct potential (dipole corrections)
   IDIPOL =      0    1-x, 2-y, 3-z, 4-all directions 
   EPSILON=  1.0000000 bulk dielectric constant

 Exchange correlation treatment:
   GGA     =    PE    GGA type
   LEXCH   =     8    internal setting for exchange type
   VOSKOWN=      0    Vosko Wilk Nusair interpolation
   LHFCALC =     F    Hartree Fock is set to
   LHFONE  =     F    Hartree Fock one center treatment
   AEXX    =    0.0000 exact exchange contribution

 Linear response parameters
   LEPSILON=     F    determine dielectric tensor
   LRPA    =     F    only Hartree local field effects (RPA)
   LNABLA  =     F    use nabla operator in PAW spheres
   LVEL    =     F    velocity operator in full k-point grid
   LINTERFAST=   F  fast interpolation
   KINTER  =     0    interpolate to denser k-point grid
   CSHIFT  =0.1000    complex shift for real part using Kramers Kronig
   OMEGAMAX=  -1.0    maximum frequency
   DEG_THRESHOLD= 0.2000000E-02 threshold for treating states as degnerate
   RTIME   =    0.100 relaxation time in fs

 Orbital magnetization related:
   ORBITALMAG=     F  switch on orbital magnetization
   LCHIMAG   =     F  perturbation theory with respect to B field
   DQ        =  0.001000  dq finite difference perturbation B field



--------------------------------------------------------------------------------------------------------


 conjugate gradient relaxation of ions
 charge density and potential will be updated during run
 non-spin polarized calculation
 Variant of blocked Davidson
 Davidson routine will perform the subspace rotation
 perform sub-space diagonalisation
    after iterative eigenvector-optimisation
 modified Broyden-mixing scheme, WC =      100.0
 initial mixing is a Kerker type mixing with AMIX =  0.4000 and BMIX =      1.0000
 Hartree-type preconditioning will be used
 using additional bands           42
 reciprocal scheme for non local part
 calculate Harris-corrections to forces 
   (improved forces if not selfconsistent)
 use gradient corrections 
 use of overlap-Matrix (Vanderbilt PP)
 Fermi weights with tetrahedron method with Bloechl corrections


--------------------------------------------------------------------------------------------------------


  energy-cutoff  :      600.00
  volume of cell :      753.31
      direct lattice vectors                 reciprocal lattice vectors
    11.549665788  0.000000000  0.000000000     0.086582592  0.000000000  0.000000000
     0.000000000  8.078619807  0.000000000     0.000000000  0.123783520  0.000000000
     0.000000000  0.000000000  8.073589429     0.000000000  0.000000000  0.123860646

  length of vectors
    11.549665788  8.078619807  8.073589429     0.086582592  0.123783520  0.123860646


 
 k-points in units of 2pi/SCALE and weight: B4C B11C-CBC                            
   0.00000000  0.00000000  0.00000000       0.016
   0.02135310  0.00000000  0.00000000       0.031
   0.04270621  0.00000000  0.00000000       0.016
   0.00000000  0.03052764  0.00000000       0.031
   0.02135310  0.03052764  0.00000000       0.062
   0.04270621  0.03052764  0.00000000       0.031
   0.00000000  0.06105528  0.00000000       0.016
   0.02135310  0.06105528  0.00000000       0.031
   0.04270621  0.06105528  0.00000000       0.016
   0.00000000  0.00000000  0.03054666       0.031
   0.02135310  0.00000000  0.03054666       0.062
   0.04270621  0.00000000  0.03054666       0.031
   0.00000000  0.03052764  0.03054666       0.062
   0.02135310  0.03052764  0.03054666       0.125
   0.04270621  0.03052764  0.03054666       0.062
   0.00000000  0.06105528  0.03054666       0.031
   0.02135310  0.06105528  0.03054666       0.062
   0.04270621  0.06105528  0.03054666       0.031
   0.00000000  0.00000000  0.06109332       0.016
   0.02135310  0.00000000  0.06109332       0.031
   0.04270621  0.00000000  0.06109332       0.016
   0.00000000  0.03052764  0.06109332       0.031
   0.02135310  0.03052764  0.06109332       0.062
   0.04270621  0.03052764  0.06109332       0.031
   0.00000000  0.06105528  0.06109332       0.016
   0.02135310  0.06105528  0.06109332       0.031
   0.04270621  0.06105528  0.06109332       0.016
 
 k-points in reciprocal lattice and weights: B4C B11C-CBC                            
   0.00000000  0.00000000  0.00000000       0.016
   0.25000000  0.00000000  0.00000000       0.031
   0.50000000  0.00000000  0.00000000       0.016
   0.00000000  0.25000000  0.00000000       0.031
   0.25000000  0.25000000  0.00000000       0.062
   0.50000000  0.25000000  0.00000000       0.031
   0.00000000  0.50000000  0.00000000       0.016
   0.25000000  0.50000000  0.00000000       0.031
   0.50000000  0.50000000  0.00000000       0.016
   0.00000000  0.00000000  0.25000000       0.031
   0.25000000  0.00000000  0.25000000       0.062
   0.50000000  0.00000000  0.25000000       0.031
   0.00000000  0.25000000  0.25000000       0.062
   0.25000000  0.25000000  0.25000000       0.125
   0.50000000  0.25000000  0.25000000       0.062
   0.00000000  0.50000000  0.25000000       0.031
   0.25000000  0.50000000  0.25000000       0.062
   0.50000000  0.50000000  0.25000000       0.031
   0.00000000  0.00000000  0.50000000       0.016
   0.25000000  0.00000000  0.50000000       0.031
   0.50000000  0.00000000  0.50000000       0.016
   0.00000000  0.25000000  0.50000000       0.031
   0.25000000  0.25000000  0.50000000       0.062
   0.50000000  0.25000000  0.50000000       0.031
   0.00000000  0.50000000  0.50000000       0.016
   0.25000000  0.50000000  0.50000000       0.031
   0.50000000  0.50000000  0.50000000       0.016
 
 position of ions in fractional coordinates (direct lattice) 
   0.07280000  0.78549999  0.18230000
   0.92720002  0.21450001  0.81770003
   0.92720002  0.71450001  0.68229997
   0.07280000  0.28549999  0.31770000
   0.92720002  0.28549999  0.31770000
   0.07280000  0.71450001  0.68229997
   0.07280000  0.21450001  0.81770003
   0.92720002  0.78549999  0.18230000
   0.57279998  0.28549999  0.18230000
   0.42719999  0.71450001  0.81770003
   0.42719999  0.21450001  0.68229997
   0.57279998  0.78549999  0.31770000
   0.42719999  0.78549999  0.31770000
   0.57279998  0.21450001  0.68229997
   0.57279998  0.71450001  0.81770003
   0.42719999  0.28549999  0.18230000
   0.80100000  0.57950002  0.93360001
   0.19900000  0.42049998  0.06639999
   0.19900000  0.92049998  0.43360001
   0.80100000  0.07950002  0.56639999
   0.19900000  0.07950002  0.56639999
   0.80100000  0.92049998  0.43360001
   0.80100000  0.42049998  0.06639999
   0.19900000  0.57950002  0.93360001
   0.30100000  0.07950002  0.93360001
   0.69900000  0.92049998  0.06639999
   0.69900000  0.42049998  0.43360001
   0.30100000  0.57950002  0.56639999
   0.69900000  0.57950002  0.56639999
   0.30100000  0.42049998  0.43360001
   0.30100000  0.92049998  0.06639999
   0.69900000  0.07950002  0.93360001
   0.69859999  0.56629997  0.07959998
   0.30140001  0.43370003  0.92040002
   0.30140001  0.93370003  0.57959998
   0.69859999  0.06629997  0.42040002
   0.30140001  0.06629997  0.42040002
   0.69859999  0.93370003  0.57959998
   0.69859999  0.43370003  0.92040002
   0.30140001  0.56629997  0.07959998
   0.19859999  0.06629997  0.07959998
   0.80140001  0.93370003  0.92040002
   0.80140001  0.43370003  0.57959998
   0.19859999  0.56629997  0.42040002
   0.80140001  0.56629997  0.42040002
   0.19859999  0.43370003  0.57959998
   0.19859999  0.93370003  0.92040002
   0.80140001  0.06629997  0.07959998
   0.00000000  0.60589999  0.19920000
   0.00000000  0.39410001  0.80079997
   0.00000000  0.89410001  0.69920003
   0.00000000  0.10589999  0.30080000
   0.50000000  0.10589999  0.19920000
   0.50000000  0.89410001  0.80079997
   0.50000000  0.39410001  0.69920003
   0.50000000  0.60589999  0.30080000
   0.00000000  0.74159998  0.78549999
   0.00000000  0.25840002  0.21450001
   0.00000000  0.75840002  0.28549999
   0.00000000  0.24159998  0.71450001
   0.50000000  0.24159998  0.78549999
   0.50000000  0.75840002  0.21450001
   0.50000000  0.25840002  0.28549999
   0.50000000  0.74159998  0.71450001
   0.00000000  0.72960001  0.23029999
   0.00000000  0.27039999  0.76969999
   0.00000000  0.77039999  0.73030001
   0.00000000  0.22960001  0.26969999
   0.50000000  0.22960001  0.23029999
   0.50000000  0.77039999  0.76969999
   0.50000000  0.27039999  0.73030001
   0.50000000  0.72960001  0.26969999
   0.74980003  0.50000000  0.00000000
   0.25019997  0.50000000  0.00000000
   0.25019997  0.00000000  0.50000000
   0.74980003  0.00000000  0.50000000
   0.24980003  0.00000000  0.00000000
   0.75019997  0.00000000  0.00000000
   0.75019997  0.50000000  0.50000000
   0.24980003  0.50000000  0.50000000
 
 position of ions in cartesian coordinates  (Angst):
   0.84081570  6.34575578  1.47181536
  10.70885034  1.73286403  6.60177430
  10.70885034  5.77217393  5.50860984
   0.84081570  2.30644587  2.56497935
  10.70885034  2.30644587  2.56497935
   0.84081570  5.77217393  5.50860984
   0.84081570  1.73286403  6.60177430
  10.70885034  6.34575578  1.47181536
   6.61564834  2.30644587  1.47181536
   4.93401711  5.77217393  6.60177430
   4.93401711  1.73286403  5.50860984
   6.61564834  6.34575578  2.56497935
   4.93401711  6.34575578  2.56497935
   6.61564834  1.73286403  5.50860984
   6.61564834  5.77217393  6.60177430
   4.93401711  2.30644587  1.47181536
   9.25128228  4.68156034  7.53750316
   2.29838350  3.39705947  0.53608627
   2.29838350  7.43636937  3.50070844
   9.25128228  0.64225044  4.57288099
   2.29838350  0.64225044  4.57288099
   9.25128228  7.43636937  3.50070844
   9.25128228  3.39705947  0.53608627
   2.29838350  4.68156034  7.53750316
   3.47644939  0.64225044  7.53750316
   8.07321640  7.43636937  0.53608627
   8.07321640  3.39705947  3.50070844
   3.47644939  4.68156034  4.57288099
   8.07321640  4.68156034  4.57288099
   3.47644939  3.39705947  3.50070844
   3.47644939  7.43636937  0.53608627
   8.07321640  0.64225044  7.53750316
   8.06859645  4.57492219  0.64265753
   3.48106934  3.50369761  7.43093190
   3.48106934  7.54300752  4.67945225
   8.06859645  0.53561229  3.39413718
   3.48106934  0.53561229  3.39413718
   8.06859645  7.54300752  4.67945225
   8.06859645  3.50369761  7.43093190
   3.48106934  4.57492219  0.64265753
   2.29376356  0.53561229  0.64265753
   9.25590223  7.54300752  7.43093190
   9.25590223  3.50369761  4.67945225
   2.29376356  4.57492219  3.39413718
   9.25590223  4.57492219  3.39413718
   2.29376356  3.50369761  4.67945225
   2.29376356  7.54300752  7.43093190
   9.25590223  0.53561229  0.64265753
   0.00000000  4.89483566  1.60825905
   0.00000000  3.18378415  6.46533014
   0.00000000  7.22309405  5.64505400
   0.00000000  0.85552576  2.42853567
   5.77483289  0.85552576  1.60825905
   5.77483289  7.22309405  6.46533014
   5.77483289  3.18378415  5.64505400
   5.77483289  4.89483566  2.42853567
   0.00000000  5.99110426  6.34180442
   0.00000000  2.08751554  1.73178501
   0.00000000  6.12682545  2.30500970
   0.00000000  1.95179436  5.76857973
   5.77483289  1.95179436  6.34180442
   5.77483289  6.12682545  1.73178501
   5.77483289  2.08751554  2.30500970
   5.77483289  5.99110426  5.76857973
   0.00000000  5.89416111  1.85934760
   0.00000000  2.18445870  6.21424171
   0.00000000  6.22376860  5.89614243
   0.00000000  1.85485120  2.17744700
   5.77483289  1.85485120  1.85934760
   5.77483289  6.22376860  6.21424171
   5.77483289  2.18445870  5.89614243
   5.77483289  5.89416111  2.17744700
   8.65993971  4.03930990  0.00000000
   2.88972608  4.03930990  0.00000000
   2.88972608  0.00000000  4.03679471
   8.65993971  0.00000000  4.03679471
   2.88510681  0.00000000  0.00000000
   8.66455897  0.00000000  0.00000000
   8.66455897  4.03930990  4.03679471
   2.88510681  4.03930990  4.03679471
 


--------------------------------------------------------------------------------------------------------


 k-point  1 :   0.0000 0.0000 0.0000  plane waves:   25051
 k-point  2 :   0.2500 0.0000 0.0000  plane waves:   25098
 k-point  3 :   0.5000 0.0000 0.0000  plane waves:   25126
 k-point  4 :   0.0000 0.2500 0.0000  plane waves:   25126
 k-point  5 :   0.2500 0.2500 0.0000  plane waves:   25156
 k-point  6 :   0.5000 0.2500 0.0000  plane waves:   25138
 k-point  7 :   0.0000 0.5000 0.0000  plane waves:   25140
 k-point  8 :   0.2500 0.5000 0.0000  plane waves:   25170
 k-point  9 :   0.5000 0.5000 0.0000  plane waves:   25136
 k-point 10 :   0.0000 0.0000 0.2500  plane waves:   25136
 k-point 11 :   0.2500 0.0000 0.2500  plane waves:   25156
 k-point 12 :   0.5000 0.0000 0.2500  plane waves:   25140
 k-point 13 :   0.0000 0.2500 0.2500  plane waves:   25130
 k-point 14 :   0.2500 0.2500 0.2500  plane waves:   25163
 k-point 15 :   0.5000 0.2500 0.2500  plane waves:   25150
 k-point 16 :   0.0000 0.5000 0.2500  plane waves:   25152
 k-point 17 :   0.2500 0.5000 0.2500  plane waves:   25122
 k-point 18 :   0.5000 0.5000 0.2500  plane waves:   25140
 k-point 19 :   0.0000 0.0000 0.5000  plane waves:   25148
 k-point 20 :   0.2500 0.0000 0.5000  plane waves:   25158
 k-point 21 :   0.5000 0.0000 0.5000  plane waves:   25136
 k-point 22 :   0.0000 0.2500 0.5000  plane waves:   25138
 k-point 23 :   0.2500 0.2500 0.5000  plane waves:   25116
 k-point 24 :   0.5000 0.2500 0.5000  plane waves:   25144
 k-point 25 :   0.0000 0.5000 0.5000  plane waves:   25188
 k-point 26 :   0.2500 0.5000 0.5000  plane waves:   25172
 k-point 27 :   0.5000 0.5000 0.5000  plane waves:   25152

 maximum and minimum number of plane-waves per node :     12614    12496

 maximum number of plane-waves:     25188
 maximum index in each direction: 
   IXMAX=   23   IYMAX=   16   IZMAX=   16
   IXMIN=  -23   IYMIN=  -16   IZMIN=  -16

 WARNING: aliasing errors must be expected set NGX to  94 to avoid them
 WARNING: aliasing errors must be expected set NGY to  66 to avoid them
 WARNING: aliasing errors must be expected set NGZ to  66 to avoid them
 aliasing errors are usually negligible using standard VASP settings
 and one can safely disregard these warnings

 parallel 3D FFT for wavefunctions:
    minimum data exchange during FFTs selected (reduces bandwidth)
 parallel 3D FFT for charge:
    minimum data exchange during FFTs selected (reduces bandwidth)


 total amount of memory used by VASP on root node   418389. kBytes
========================================================================

   base      :      30000. kBytes
   nonl-proj :      59645. kBytes
   fftplans  :      13558. kBytes
   grid      :      21584. kBytes
   one-center:        122. kBytes
   wavefun   :     293480. kBytes
 
     INWAV:  cpu time    0.00: real time    0.00
 Broyden mixing: mesh for mixing (old mesh)
   NGX = 47   NGY = 33   NGZ = 33
  (NGX  =140   NGY  = 96   NGZ  = 96)
  gives a total of  51183 points

 initial charge density was supplied:
 charge density of overlapping atoms calculated
 number of electron     128.0000000 magnetization 
 keeping initial charge density in first step


--------------------------------------------------------------------------------------------------------


 Maximum index for augmentation-charges          620 (set IRDMAX)


--------------------------------------------------------------------------------------------------------


 First call to EWALD:  gamma=   0.195
 Maximum number of real-space cells 2x 3x 3
 Maximum number of reciprocal cells 3x 2x 2

 FEWALD executed in parallel
    FEWALD:  cpu time    0.01: real time    0.02


----------------------------------------- Iteration    1(   1)  ---------------------------------------


    POTLOK:  cpu time    0.47: real time    0.62
    SETDIJ:  cpu time    0.07: real time    0.10
     EDDAV:  cpu time  209.57: real time  318.12
 BZINTS: Fermi energy:  6.219044;128.000000 electrons
         Band energy:-916.013102;  BLOECHL correction: -0.004727
       DOS:  cpu time    0.04: real time    0.04
    --------------------------------------------
      LOOP:  cpu time  210.15: real time  318.88

 eigenvalue-minimisations  :  5788
 total energy-change (2. order) : 0.7533376E+03  (-0.5788242E+04)
 number of electron     128.0000000 magnetization 
 augmentation part      128.0000000 magnetization 

 Free energy of the ion-electron system (eV)
  ---------------------------------------------------
  alpha Z        PSCENC =        81.87236959
  Ewald energy   TEWEN  =      -639.93737530
  -Hartree energ DENC   =     -1287.68078137
  -exchange      EXHF   =         0.00000000
  -V(xc)+E(xc)   XCENC  =       380.44483304
  PAW double counting   =       655.30793496     -674.29210410
  entropy T*S    EENTRO =         0.00000000
  eigenvalues    EBANDS =      -916.01310192
  atomic energy  EATOM  =      3153.63586372
  ---------------------------------------------------
  free energy    TOTEN  =       753.33763862 eV

  energy without entropy =      753.33763862  energy(sigma->0) =      753.33763862


--------------------------------------------------------------------------------------------------------




----------------------------------------- Iteration    1(   2)  ---------------------------------------


     EDDAV:  cpu time  241.67: real time  368.98
 BZINTS: Fermi energy: -8.155970;128.000000 electrons
         Band energy:***********;  BLOECHL correction:  0.000000
       DOS:  cpu time    0.01: real time    0.02
    --------------------------------------------
      LOOP:  cpu time  241.74: real time  369.10

 eigenvalue-minimisations  :  6818
 total energy-change (2. order) :-0.9464448E+03  (-0.9265583E+03)
 number of electron     128.0000000 magnetization 
 augmentation part      128.0000000 magnetization 

 Free energy of the ion-electron system (eV)
  ---------------------------------------------------
  alpha Z        PSCENC =        81.87236959
  Ewald energy   TEWEN  =      -639.93737530
  -Hartree energ DENC   =     -1287.68078137
  -exchange      EXHF   =         0.00000000
  -V(xc)+E(xc)   XCENC  =       380.44483304
  PAW double counting   =       655.30793496     -674.29210410
  entropy T*S    EENTRO =         0.00000000
  eigenvalues    EBANDS =     -1862.45786411
  atomic energy  EATOM  =      3153.63586372
  ---------------------------------------------------
  free energy    TOTEN  =      -193.10712356 eV

  energy without entropy =     -193.10712356  energy(sigma->0) =     -193.10712356


--------------------------------------------------------------------------------------------------------




----------------------------------------- Iteration    1(   3)  ---------------------------------------


     EDDAV:  cpu time  264.47: real time  397.32
 BZINTS: Fermi energy:-11.081715;128.000000 electrons
         Band energy:***********;  BLOECHL correction:  0.000000
       DOS:  cpu time    0.02: real time    0.02
    --------------------------------------------
      LOOP:  cpu time  264.51: real time  397.37

 eigenvalue-minimisations  :  7352
 total energy-change (2. order) :-0.1029111E+03  (-0.1023746E+03)
 number of electron     128.0000000 magnetization 
 augmentation part      128.0000000 magnetization 

 Free energy of the ion-electron system (eV)
  ---------------------------------------------------
  alpha Z        PSCENC =        81.87236959
  Ewald energy   TEWEN  =      -639.93737530
  -Hartree energ DENC   =     -1287.68078137
  -exchange      EXHF   =         0.00000000
  -V(xc)+E(xc)   XCENC  =       380.44483304
  PAW double counting   =       655.30793496     -674.29210410
  entropy T*S    EENTRO =         0.00000000
  eigenvalues    EBANDS =     -1965.36900104
  atomic energy  EATOM  =      3153.63586372
  ---------------------------------------------------
  free energy    TOTEN  =      -296.01826049 eV

  energy without entropy =     -296.01826049  energy(sigma->0) =     -296.01826049


--------------------------------------------------------------------------------------------------------




----------------------------------------- Iteration    1(   4)  ---------------------------------------


     EDDAV:  cpu time  254.56: real time  380.37
 BZINTS: Fermi energy:-11.062817;128.000000 electrons
         Band energy:***********;  BLOECHL correction:  0.000000
       DOS:  cpu time    0.01: real time    0.02
    --------------------------------------------
      LOOP:  cpu time  254.61: real time  380.45

 eigenvalue-minimisations  :  7112
 total energy-change (2. order) :-0.2513148E+01  (-0.2510164E+01)
 number of electron     128.0000000 magnetization 
 augmentation part      128.0000000 magnetization 

 Free energy of the ion-electron system (eV)
  ---------------------------------------------------
  alpha Z        PSCENC =        81.87236959
  Ewald energy   TEWEN  =      -639.93737530
  -Hartree energ DENC   =     -1287.68078137
  -exchange      EXHF   =         0.00000000
  -V(xc)+E(xc)   XCENC  =       380.44483304
  PAW double counting   =       655.30793496     -674.29210410
  entropy T*S    EENTRO =         0.00000000
  eigenvalues    EBANDS =     -1967.88214865
  atomic energy  EATOM  =      3153.63586372
  ---------------------------------------------------
  free energy    TOTEN  =      -298.53140810 eV

  energy without entropy =     -298.53140810  energy(sigma->0) =     -298.53140810


--------------------------------------------------------------------------------------------------------




----------------------------------------- Iteration    1(   5)  ---------------------------------------


     EDDAV:  cpu time  255.53: real time  381.75
 BZINTS: Fermi energy:-11.122076;128.000000 electrons
         Band energy:***********;  BLOECHL correction:  0.000000
       DOS:  cpu time    0.01: real time    0.02
    CHARGE:  cpu time    3.07: real time    5.04
    MIXING:  cpu time    0.05: real time    0.08
    --------------------------------------------
      LOOP:  cpu time  258.67: real time  386.92

 eigenvalue-minimisations  :  7228
 total energy-change (2. order) :-0.4859864E-01  (-0.4858899E-01)
 number of electron     128.0000039 magnetization 
 augmentation part        5.1794859 magnetization 

 Broyden mixing:
  rms(total) = 0.56884E+01    rms(broyden)= 0.56878E+01
  rms(prec ) = 0.72023E+01
  weight for this iteration     100.00

 Free energy of the ion-electron system (eV)
  ---------------------------------------------------
  alpha Z        PSCENC =        81.87236959
  Ewald energy   TEWEN  =      -639.93737530
  -Hartree energ DENC   =     -1287.68078137
  -exchange      EXHF   =         0.00000000
  -V(xc)+E(xc)   XCENC  =       380.44483304
  PAW double counting   =       655.30793496     -674.29210410
  entropy T*S    EENTRO =         0.00000000
  eigenvalues    EBANDS =     -1967.93074729
  atomic energy  EATOM  =      3153.63586372
  ---------------------------------------------------
  free energy    TOTEN  =      -298.58000675 eV

  energy without entropy =     -298.58000675  energy(sigma->0) =     -298.58000675


--------------------------------------------------------------------------------------------------------




----------------------------------------- Iteration    1(   6)  ---------------------------------------


    POTLOK:  cpu time    0.53: real time    0.80
    SETDIJ:  cpu time    0.07: real time    0.13
     EDDAV:  cpu time  227.96: real time  341.31
 BZINTS: Fermi energy: -8.305801;128.000000 electrons
         Band energy:***********;  BLOECHL correction:  0.000000
       DOS:  cpu time    0.01: real time    0.02
    CHARGE:  cpu time    3.43: real time    5.06
    MIXING:  cpu time    0.02: real time    0.06
    --------------------------------------------
      LOOP:  cpu time  232.02: real time  347.39

 eigenvalue-minimisations  :  6180
 total energy-change (2. order) : 0.1091340E+03  (-0.2072438E+02)
 number of electron     128.0000015 magnetization 
 augmentation part        4.3708954 magnetization 

 Broyden mixing:
  rms(total) = 0.21938E+01    rms(broyden)= 0.21936E+01
  rms(prec ) = 0.26422E+01
  weight for this iteration     100.00

 eigenvalues of (default mixing * dielectric matrix)
  average eigenvalue GAMMA=   1.3227
  1.3227

 Free energy of the ion-electron system (eV)
  ---------------------------------------------------
  alpha Z        PSCENC =        81.87236959
  Ewald energy   TEWEN  =      -639.93737530
  -Hartree energ DENC   =     -1692.59167027
  -exchange      EXHF   =         0.00000000
  -V(xc)+E(xc)   XCENC  =       409.59468037
  PAW double counting   =      1507.27190236    -1533.72623601
  entropy T*S    EENTRO =         0.00000000
  eigenvalues    EBANDS =     -1475.56552596
  atomic energy  EATOM  =      3153.63586372
  ---------------------------------------------------
  free energy    TOTEN  =      -189.44599150 eV

  energy without entropy =     -189.44599150  energy(sigma->0) =     -189.44599150


--------------------------------------------------------------------------------------------------------




----------------------------------------- Iteration    1(   7)  ---------------------------------------


    POTLOK:  cpu time    0.49: real time    0.76
    SETDIJ:  cpu time    0.06: real time    0.08
     EDDAV:  cpu time  239.56: real time  362.29
 BZINTS: Fermi energy: -6.631262;128.000000 electrons
         Band energy:***********;  BLOECHL correction:  0.000000
       DOS:  cpu time    0.01: real time    0.01
    CHARGE:  cpu time    3.60: real time    5.72
    MIXING:  cpu time    0.02: real time    0.02
    --------------------------------------------
      LOOP:  cpu time  243.74: real time  368.88

 eigenvalue-minimisations  :  6764
 total energy-change (2. order) : 0.1087001E+02  (-0.3798024E+01)
 number of electron     128.0000002 magnetization 
 augmentation part        4.0530617 magnetization 

 Broyden mixing:
  rms(total) = 0.99567E+00    rms(broyden)= 0.99556E+00
  rms(prec ) = 0.11401E+01
  weight for this iteration     100.00

 eigenvalues of (default mixing * dielectric matrix)
  average eigenvalue GAMMA=   1.6732
  1.4724  1.8741

 Free energy of the ion-electron system (eV)
  ---------------------------------------------------
  alpha Z        PSCENC =        81.87236959
  Ewald energy   TEWEN  =      -639.93737530
  -Hartree energ DENC   =     -1889.46963218
  -exchange      EXHF   =         0.00000000
  -V(xc)+E(xc)   XCENC  =       426.05857586
  PAW double counting   =      2074.28902557    -2103.13074146
  entropy T*S    EENTRO =         0.00000000
  eigenvalues    EBANDS =     -1281.89406526
  atomic energy  EATOM  =      3153.63586372
  ---------------------------------------------------
  free energy    TOTEN  =      -178.57597946 eV

  energy without entropy =     -178.57597946  energy(sigma->0) =     -178.57597946


--------------------------------------------------------------------------------------------------------




----------------------------------------- Iteration    1(   8)  ---------------------------------------


    POTLOK:  cpu time    0.43: real time    0.64
    SETDIJ:  cpu time    0.10: real time    0.10
     EDDAV:  cpu time  253.13: real time  376.93
 BZINTS: Fermi energy: -6.302716;128.000000 electrons
         Band energy:***********;  BLOECHL correction:  0.000000
       DOS:  cpu time    0.01: real time    0.02
    CHARGE:  cpu time    2.79: real time    4.20
    MIXING:  cpu time    0.03: real time    0.04
    --------------------------------------------
      LOOP:  cpu time  256.49: real time  381.95

 eigenvalue-minimisations  :  6996
 total energy-change (2. order) : 0.1413261E+01  (-0.3345853E+00)
 number of electron     128.0000003 magnetization 
 augmentation part        4.0205828 magnetization 

 Broyden mixing:
  rms(total) = 0.14184E+00    rms(broyden)= 0.14180E+00
  rms(prec ) = 0.20137E+00
  weight for this iteration     100.00

 eigenvalues of (default mixing * dielectric matrix)
  average eigenvalue GAMMA=   1.5176
  2.2205  1.0240  1.3083

 Free energy of the ion-electron system (eV)
  ---------------------------------------------------
  alpha Z        PSCENC =        81.87236959
  Ewald energy   TEWEN  =      -639.93737530
  -Hartree energ DENC   =     -1933.39706110
  -exchange      EXHF   =         0.00000000
  -V(xc)+E(xc)   XCENC  =       432.87000101
  PAW double counting   =      2264.49005626    -2292.85426960
  entropy T*S    EENTRO =         0.00000000
  eigenvalues    EBANDS =     -1243.84230329
  atomic energy  EATOM  =      3153.63586372
  ---------------------------------------------------
  free energy    TOTEN  =      -177.16271870 eV

  energy without entropy =     -177.16271870  energy(sigma->0) =     -177.16271870


--------------------------------------------------------------------------------------------------------




----------------------------------------- Iteration    1(   9)  ---------------------------------------


    POTLOK:  cpu time    0.46: real time    0.72
    SETDIJ:  cpu time    0.03: real time    0.06
     EDDAV:  cpu time  237.09: real time  359.84
 BZINTS: Fermi energy: -6.156489;128.000000 electrons
         Band energy:***********;  BLOECHL correction:  0.000000
       DOS:  cpu time    0.01: real time    0.01
    CHARGE:  cpu time    3.56: real time    5.24
    MIXING:  cpu time    0.02: real time    0.03
    --------------------------------------------
      LOOP:  cpu time  241.17: real time  365.91

 eigenvalue-minimisations  :  6596
 total energy-change (2. order) : 0.6099189E-01  (-0.2177085E-01)
 number of electron     128.0000003 magnetization 
 augmentation part        4.0017101 magnetization 

 Broyden mixing:
  rms(total) = 0.51523E-01    rms(broyden)= 0.51514E-01
  rms(prec ) = 0.67576E-01
  weight for this iteration     100.00

 eigenvalues of (default mixing * dielectric matrix)
  average eigenvalue GAMMA=   1.5140
  2.1671  1.1474  1.1474  1.5941

 Free energy of the ion-electron system (eV)
  ---------------------------------------------------
  alpha Z        PSCENC =        81.87236959
  Ewald energy   TEWEN  =      -639.93737530
  -Hartree energ DENC   =     -1955.66922686
  -exchange      EXHF   =         0.00000000
  -V(xc)+E(xc)   XCENC  =       434.97312844
  PAW double counting   =      2322.92229228    -2351.41070860
  entropy T*S    EENTRO =         0.00000000
  eigenvalues    EBANDS =     -1223.48807009
  atomic energy  EATOM  =      3153.63586372
  ---------------------------------------------------
  free energy    TOTEN  =      -177.10172682 eV

  energy without entropy =     -177.10172682  energy(sigma->0) =     -177.10172682


--------------------------------------------------------------------------------------------------------




----------------------------------------- Iteration    1(  10)  ---------------------------------------


    POTLOK:  cpu time    0.46: real time    0.71
    SETDIJ:  cpu time    0.10: real time    0.11
     EDDAV:  cpu time  231.42: real time  343.77
 BZINTS: Fermi energy: -6.135040;128.000000 electrons
         Band energy:***********;  BLOECHL correction:  0.000000
       DOS:  cpu time    0.01: real time    0.01
    CHARGE:  cpu time    3.12: real time    4.58
    MIXING:  cpu time    0.04: real time    0.08
    --------------------------------------------
      LOOP:  cpu time  235.15: real time  349.28

 eigenvalue-minimisations  :  6302
 total energy-change (2. order) :-0.2039592E-01  (-0.4348623E-02)
 number of electron     128.0000003 magnetization 
 augmentation part        3.9926979 magnetization 

 Broyden mixing:
  rms(total) = 0.31405E-01    rms(broyden)= 0.31402E-01
  rms(prec ) = 0.38190E-01
  weight for this iteration     100.00

 eigenvalues of (default mixing * dielectric matrix)
  average eigenvalue GAMMA=   1.6706
  2.6169  2.3003  1.0223  1.2067  1.2067

 Free energy of the ion-electron system (eV)
  ---------------------------------------------------
  alpha Z        PSCENC =        81.87236959
  Ewald energy   TEWEN  =      -639.93737530
  -Hartree energ DENC   =     -1960.32962239
  -exchange      EXHF   =         0.00000000
  -V(xc)+E(xc)   XCENC  =       435.38023340
  PAW double counting   =      2326.15218802    -2354.63146818
  entropy T*S    EENTRO =         0.00000000
  eigenvalues    EBANDS =     -1219.26431160
  atomic energy  EATOM  =      3153.63586372
  ---------------------------------------------------
  free energy    TOTEN  =      -177.12212274 eV

  energy without entropy =     -177.12212274  energy(sigma->0) =     -177.12212274


--------------------------------------------------------------------------------------------------------




----------------------------------------- Iteration    1(  11)  ---------------------------------------


    POTLOK:  cpu time    0.55: real time    0.80
    SETDIJ:  cpu time    0.04: real time    0.08
     EDDAV:  cpu time  225.39: real time  337.76
 BZINTS: Fermi energy: -6.130351;128.000000 electrons
         Band energy:***********;  BLOECHL correction:  0.000000
       DOS:  cpu time    0.01: real time    0.02
    CHARGE:  cpu time    2.65: real time    4.05
    MIXING:  cpu time    0.03: real time    0.05
    --------------------------------------------
      LOOP:  cpu time  228.66: real time  342.76

 eigenvalue-minimisations  :  6098
 total energy-change (2. order) :-0.6979526E-02  (-0.9212959E-03)
 number of electron     128.0000003 magnetization 
 augmentation part        3.9950684 magnetization 

 Broyden mixing:
  rms(total) = 0.11108E-01    rms(broyden)= 0.11108E-01
  rms(prec ) = 0.13642E-01
  weight for this iteration     100.00

 eigenvalues of (default mixing * dielectric matrix)
  average eigenvalue GAMMA=   1.6057
  2.7486  2.2047  1.4711  0.9631  1.1233  1.1233

 Free energy of the ion-electron system (eV)
  ---------------------------------------------------
  alpha Z        PSCENC =        81.87236959
  Ewald energy   TEWEN  =      -639.93737530
  -Hartree energ DENC   =     -1961.19476869
  -exchange      EXHF   =         0.00000000
  -V(xc)+E(xc)   XCENC  =       435.61454340
  PAW double counting   =      2322.80899806    -2351.20545701
  entropy T*S    EENTRO =         0.00000000
  eigenvalues    EBANDS =     -1218.72327605
  atomic energy  EATOM  =      3153.63586372
  ---------------------------------------------------
  free energy    TOTEN  =      -177.12910227 eV

  energy without entropy =     -177.12910227  energy(sigma->0) =     -177.12910227


--------------------------------------------------------------------------------------------------------




----------------------------------------- Iteration    1(  12)  ---------------------------------------


    POTLOK:  cpu time    0.43: real time    0.58
    SETDIJ:  cpu time    0.07: real time    0.09
     EDDAV:  cpu time  260.99: real time  394.93
 BZINTS: Fermi energy: -6.123545;128.000000 electrons
         Band energy:***********;  BLOECHL correction:  0.000000
       DOS:  cpu time    0.01: real time    0.01
    CHARGE:  cpu time    3.14: real time    4.92
    MIXING:  cpu time    0.03: real time    0.03
    --------------------------------------------
      LOOP:  cpu time  264.68: real time  400.57

 eigenvalue-minimisations  :  7296
 total energy-change (2. order) : 0.1792916E-03  (-0.1230652E-03)
 number of electron     128.0000003 magnetization 
 augmentation part        3.9942179 magnetization 

 Broyden mixing:
  rms(total) = 0.39036E-02    rms(broyden)= 0.39035E-02
  rms(prec ) = 0.45029E-02
  weight for this iteration     100.00

 eigenvalues of (default mixing * dielectric matrix)
  average eigenvalue GAMMA=   1.6345
  2.8099  2.3354  1.5354  1.5354  0.9706  1.1274  1.1274

 Free energy of the ion-electron system (eV)
  ---------------------------------------------------
  alpha Z        PSCENC =        81.87236959
  Ewald energy   TEWEN  =      -639.93737530
  -Hartree energ DENC   =     -1961.98779237
  -exchange      EXHF   =         0.00000000
  -V(xc)+E(xc)   XCENC  =       435.66369546
  PAW double counting   =      2324.20412693    -2352.61703551
  entropy T*S    EENTRO =         0.00000000
  eigenvalues    EBANDS =     -1217.96277549
  atomic energy  EATOM  =      3153.63586372
  ---------------------------------------------------
  free energy    TOTEN  =      -177.12892297 eV

  energy without entropy =     -177.12892297  energy(sigma->0) =     -177.12892297


--------------------------------------------------------------------------------------------------------




----------------------------------------- Iteration    1(  13)  ---------------------------------------


    POTLOK:  cpu time    0.44: real time    0.72
    SETDIJ:  cpu time    0.06: real time    0.07
     EDDAV:  cpu time  236.59: real time  352.24
 BZINTS: Fermi energy: -6.124958;128.000000 electrons
         Band energy:***********;  BLOECHL correction:  0.000000
       DOS:  cpu time    0.01: real time    0.01
    CHARGE:  cpu time    3.03: real time    4.82
    MIXING:  cpu time    0.05: real time    0.08
    --------------------------------------------
      LOOP:  cpu time  240.18: real time  357.96

 eigenvalue-minimisations  :  6288
 total energy-change (2. order) :-0.6116831E-04  (-0.1516400E-04)
 number of electron     128.0000003 magnetization 
 augmentation part        3.9941936 magnetization 

 Broyden mixing:
  rms(total) = 0.15330E-02    rms(broyden)= 0.15329E-02
  rms(prec ) = 0.19567E-02
  weight for this iteration     100.00

 eigenvalues of (default mixing * dielectric matrix)
  average eigenvalue GAMMA=   1.6328
  2.9623  2.3563  1.7380  1.7380  0.9642  1.1582  1.0728  1.0728

 Free energy of the ion-electron system (eV)
  ---------------------------------------------------
  alpha Z        PSCENC =        81.87236959
  Ewald energy   TEWEN  =      -639.93737530
  -Hartree energ DENC   =     -1961.87560720
  -exchange      EXHF   =         0.00000000
  -V(xc)+E(xc)   XCENC  =       435.65250109
  PAW double counting   =      2323.41532369    -2351.82997669
  entropy T*S    EENTRO =         0.00000000
  eigenvalues    EBANDS =     -1218.06208303
  atomic energy  EATOM  =      3153.63586372
  ---------------------------------------------------
  free energy    TOTEN  =      -177.12898414 eV

  energy without entropy =     -177.12898414  energy(sigma->0) =     -177.12898414


--------------------------------------------------------------------------------------------------------




----------------------------------------- Iteration    1(  14)  ---------------------------------------


    POTLOK:  cpu time    0.42: real time    0.62
    SETDIJ:  cpu time    0.08: real time    0.08
     EDDAV:  cpu time  235.19: real time  348.96
 BZINTS: Fermi energy: -6.124679;128.000000 electrons
         Band energy:***********;  BLOECHL correction:  0.000000
       DOS:  cpu time    0.01: real time    0.01
    CHARGE:  cpu time    3.62: real time    4.81
    MIXING:  cpu time    0.04: real time    0.07
    --------------------------------------------
      LOOP:  cpu time  239.36: real time  354.57

 eigenvalue-minimisations  :  6428
 total energy-change (2. order) :-0.5571731E-05  (-0.5544638E-05)
 number of electron     128.0000003 magnetization 
 augmentation part        3.9938733 magnetization 

 Broyden mixing:
  rms(total) = 0.53026E-03    rms(broyden)= 0.53011E-03
  rms(prec ) = 0.66129E-03
  weight for this iteration     100.00

 eigenvalues of (default mixing * dielectric matrix)
  average eigenvalue GAMMA=   1.6269
  2.9399  2.4014  2.3220  1.3472  1.3472  1.1728  1.1728  0.9694  0.9694

 Free energy of the ion-electron system (eV)
  ---------------------------------------------------
  alpha Z        PSCENC =        81.87236959
  Ewald energy   TEWEN  =      -639.93737530
  -Hartree energ DENC   =     -1962.03591117
  -exchange      EXHF   =         0.00000000
  -V(xc)+E(xc)   XCENC  =       435.66310745
  PAW double counting   =      2323.61873590    -2352.03695182
  entropy T*S    EENTRO =         0.00000000
  eigenvalues    EBANDS =     -1217.90882808
  atomic energy  EATOM  =      3153.63586372
  ---------------------------------------------------
  free energy    TOTEN  =      -177.12898972 eV

  energy without entropy =     -177.12898972  energy(sigma->0) =     -177.12898972


--------------------------------------------------------------------------------------------------------




----------------------------------------- Iteration    1(  15)  ---------------------------------------


    POTLOK:  cpu time    0.40: real time    0.66
    SETDIJ:  cpu time    0.04: real time    0.06
     EDDAV:  cpu time  235.70: real time  351.89
 BZINTS: Fermi energy: -6.125200;128.000000 electrons
         Band energy:***********;  BLOECHL correction:  0.000000
       DOS:  cpu time    0.01: real time    0.01
    --------------------------------------------
      LOOP:  cpu time  236.16: real time  352.63

 eigenvalue-minimisations  :  6298
 total energy-change (2. order) :-0.6876703E-06  (-0.3627308E-06)
 number of electron     128.0000003 magnetization 
 augmentation part        3.9938733 magnetization 

 Free energy of the ion-electron system (eV)
  ---------------------------------------------------
  alpha Z        PSCENC =        81.87236959
  Ewald energy   TEWEN  =      -639.93737530
  -Hartree energ DENC   =     -1962.02484614
  -exchange      EXHF   =         0.00000000
  -V(xc)+E(xc)   XCENC  =       435.66256746
  PAW double counting   =      2323.60676311    -2352.02489596
  entropy T*S    EENTRO =         0.00000000
  eigenvalues    EBANDS =     -1217.91943687
  atomic energy  EATOM  =      3153.63586372
  ---------------------------------------------------
  free energy    TOTEN  =      -177.12899040 eV

  energy without entropy =     -177.12899040  energy(sigma->0) =     -177.12899040


--------------------------------------------------------------------------------------------------------




 average (electrostatic) potential at core
  the test charge radii are     0.5201  0.6991
  (the norm of the test charge is              1.0000)
       1 -39.5992       2 -39.5992       3 -39.5992       4 -39.5992       5 -39.5992
       6 -39.5992       7 -39.5992       8 -39.5992       9 -39.5992      10 -39.5992
      11 -39.5992      12 -39.5992      13 -39.5992      14 -39.5992      15 -39.5992
      16 -39.5992      17 -39.6492      18 -39.6492      19 -39.6492      20 -39.6492
      21 -39.6492      22 -39.6492      23 -39.6492      24 -39.6492      25 -39.6492
      26 -39.6492      27 -39.6492      28 -39.6492      29 -39.6492      30 -39.6492
      31 -39.6492      32 -39.6492      33 -39.6160      34 -39.6160      35 -39.6160
      36 -39.6160      37 -39.6160      38 -39.6160      39 -39.6160      40 -39.6160
      41 -39.6160      42 -39.6160      43 -39.6160      44 -39.6160      45 -39.6160
      46 -39.6160      47 -39.6160      48 -39.6160      49 -39.6098      50 -39.6098
      51 -39.6098      52 -39.6098      53 -39.6098      54 -39.6098      55 -39.6098
      56 -39.6098      57 -65.0402      58 -65.0402      59 -65.0401      60 -65.0401
      61 -65.0401      62 -65.0402      63 -65.0401      64 -65.0401      65 -56.9785
      66 -56.9785      67 -56.9785      68 -56.9785      69 -56.9785      70 -56.9785
      71 -56.9785      72 -56.9785      73 -55.0526      74 -55.0526      75 -55.0526
      76 -55.0526      77 -55.0526      78 -55.0526      79 -55.0526      80 -55.0526
 
 
 
 E-fermi :  -6.1252     XC(G=0):  -6.2790     alpha+bet : -4.4781


 k-point     1 :       0.0000    0.0000    0.0000
  band No.  band energies     occupation 
      1     -17.0855      2.00000
      2     -17.0735      2.00000
      3     -17.0218      2.00000
      4     -17.0196      2.00000
      5     -17.0019      2.00000
      6     -16.9996      2.00000
      7     -16.9535      2.00000
      8     -16.9522      2.00000
      9     -15.1332      2.00000
     10     -15.1117      2.00000
     11     -15.0100      2.00000
     12     -15.0088      2.00000
     13     -15.0055      2.00000
     14     -15.0034      2.00000
     15     -14.8932      2.00000
     16     -14.8907      2.00000
     17      -9.1195      2.00000
     18      -9.1078      2.00000
     19      -8.9729      2.00000
     20      -8.9519      2.00000
     21      -8.8930      2.00000
     22      -8.8904      2.00000
     23      -8.8358      2.00000
     24      -8.7985      2.00000
     25      -7.8911      2.00000
     26      -7.8653      2.00000
     27      -7.8266      2.00000
     28      -7.5111      2.00000
     29      -7.4910      2.00000
     30      -7.4158      2.00000
     31      -7.4001      2.00000
     32      -7.3754      2.00000
     33      -7.3605      2.00000
     34      -7.3509      2.00000
     35      -7.3438      2.00000
     36      -7.3400      2.00000
     37      -7.3183      2.00000
     38      -7.2850      2.00000
     39      -7.2820      2.00000
     40      -7.2716      2.00000
     41      -7.2112      2.00000
     42      -7.1522      2.00000
     43      -7.1018      2.00000
     44      -7.0423      2.00000
     45      -7.0113      2.00000
     46      -6.9608      2.00000
     47      -6.9439      2.00000
     48      -6.9091      2.00000
     49      -6.9024      2.00000
     50      -6.8997      2.00000
     51      -6.8764      2.00000
     52      -6.8317      2.00000
     53      -6.8131      2.00000
     54      -6.8081      2.00000
     55      -6.8007      2.00000
     56      -6.7616      2.00000
     57      -6.5704      2.00000
     58      -6.4964      2.00000
     59      -6.4298      2.00000
     60      -6.3744      2.00000
     61      -6.3191      2.00000
     62      -6.2824      2.00000
     63      -6.1427      2.00000
     64      -6.1382      2.00000
     65       1.6538      0.00000
     66       2.9637      0.00000
     67       3.0888      0.00000
     68       3.1511      0.00000
     69       3.3198      0.00000
     70       3.5011      0.00000
     71       3.6278      0.00000
     72       3.7315      0.00000
     73       3.8904      0.00000
     74       3.9126      0.00000
     75       3.9713      0.00000
     76       3.9918      0.00000
     77       4.0948      0.00000
     78       4.1358      0.00000
     79       4.1569      0.00000
     80       4.6484      0.00000
     81       4.8692      0.00000
     82       5.0130      0.00000
     83       5.0594      0.00000
     84       5.1107      0.00000
     85       5.1917      0.00000
     86       5.2403      0.00000
     87       5.2876      0.00000
     88       5.3071      0.00000
     89       5.3577      0.00000
     90       5.4826      0.00000
     91       5.6622      0.00000
     92       5.7920      0.00000
     93       5.8684      0.00000
     94       5.9222      0.00000
     95       5.9833      0.00000
     96       6.2395      0.00000
     97       6.2862      0.00000
     98       6.3131      0.00000
     99       6.3358      0.00000
    100       6.3709      0.00000
    101       6.4446      0.00000
    102       6.4888      0.00000
    103       6.4966      0.00000
    104       6.7725      0.00000
    105       6.9698      0.00000
    106       7.0237      0.00000

 k-point     2 :       0.2500    0.0000    0.0000
  band No.  band energies     occupation 
      1     -17.0838      2.00000
      2     -17.0752      2.00000
      3     -17.0215      2.00000
      4     -17.0199      2.00000
      5     -17.0016      2.00000
      6     -17.0000      2.00000
      7     -16.9534      2.00000
      8     -16.9524      2.00000
      9     -15.1301      2.00000
     10     -15.1149      2.00000
     11     -15.0094      2.00000
     12     -15.0080      2.00000
     13     -15.0061      2.00000
     14     -15.0042      2.00000
     15     -14.8928      2.00000
     16     -14.8911      2.00000
     17      -9.1175      2.00000
     18      -9.1093      2.00000
     19      -8.9699      2.00000
     20      -8.9551      2.00000
     21      -8.8927      2.00000
     22      -8.8909      2.00000
     23      -8.8309      2.00000
     24      -8.8046      2.00000
     25      -7.8578      2.00000
     26      -7.8329      2.00000
     27      -7.7883      2.00000
     28      -7.6240      2.00000
     29      -7.6053      2.00000
     30      -7.5307      2.00000
     31      -7.3953      2.00000
     32      -7.3704      2.00000
     33      -7.3630      2.00000
     34      -7.3447      2.00000
     35      -7.3134      2.00000
     36      -7.2940      2.00000
     37      -7.2880      2.00000
     38      -7.2874      2.00000
     39      -7.2375      2.00000
     40      -7.2252      2.00000
     41      -7.1296      2.00000
     42      -7.0960      2.00000
     43      -7.0937      2.00000
     44      -7.0386      2.00000
     45      -7.0126      2.00000
     46      -6.9962      2.00000
     47      -6.9569      2.00000
     48      -6.9260      2.00000
     49      -6.9119      2.00000
     50      -6.8981      2.00000
     51      -6.8800      2.00000
     52      -6.8282      2.00000
     53      -6.8157      2.00000
     54      -6.8065      2.00000
     55      -6.8046      2.00000
     56      -6.8015      2.00000
     57      -6.5616      2.00000
     58      -6.5088      2.00000
     59      -6.4203      2.00000
     60      -6.3815      2.00000
     61      -6.3139      2.00000
     62      -6.2879      2.00000
     63      -6.1418      2.00000
     64      -6.1387      2.00000
     65       1.7596      0.00000
     66       2.5133      0.00000
     67       3.1625      0.00000
     68       3.3639      0.00000
     69       3.4609      0.00000
     70       3.5553      0.00000
     71       3.5831      0.00000
     72       3.7609      0.00000
     73       3.8751      0.00000
     74       3.8779      0.00000
     75       3.9051      0.00000
     76       3.9622      0.00000
     77       4.0804      0.00000
     78       4.2604      0.00000
     79       4.2657      0.00000
     80       4.6990      0.00000
     81       4.9043      0.00000
     82       4.9056      0.00000
     83       4.9721      0.00000
     84       5.0507      0.00000
     85       5.0781      0.00000
     86       5.1802      0.00000
     87       5.1917      0.00000
     88       5.2291      0.00000
     89       5.3530      0.00000
     90       5.4178      0.00000
     91       5.8363      0.00000
     92       5.8414      0.00000
     93       5.9123      0.00000
     94       5.9365      0.00000
     95       5.9689      0.00000
     96       6.0726      0.00000
     97       6.1810      0.00000
     98       6.1989      0.00000
     99       6.3166      0.00000
    100       6.4120      0.00000
    101       6.4354      0.00000
    102       6.6090      0.00000
    103       6.7811      0.00000
    104       6.8667      0.00000
    105       6.9528      0.00000
    106       7.1219      0.00000

 k-point     3 :       0.5000    0.0000    0.0000
  band No.  band energies     occupation 
      1     -17.0795      2.00000
      2     -17.0795      2.00000
      3     -17.0207      2.00000
      4     -17.0207      2.00000
      5     -17.0008      2.00000
      6     -17.0008      2.00000
      7     -16.9529      2.00000
      8     -16.9529      2.00000
      9     -15.1225      2.00000
     10     -15.1225      2.00000
     11     -15.0078      2.00000
     12     -15.0078      2.00000
     13     -15.0060      2.00000
     14     -15.0060      2.00000
     15     -14.8920      2.00000
     16     -14.8920      2.00000
     17      -9.1131      2.00000
     18      -9.1131      2.00000
     19      -8.9626      2.00000
     20      -8.9626      2.00000
     21      -8.8919      2.00000
     22      -8.8919      2.00000
     23      -8.8184      2.00000
     24      -8.8184      2.00000
     25      -7.7632      2.00000
     26      -7.7632      2.00000
     27      -7.7408      2.00000
     28      -7.7408      2.00000
     29      -7.6817      2.00000
     30      -7.6817      2.00000
     31      -7.3832      2.00000
     32      -7.3832      2.00000
     33      -7.3547      2.00000
     34      -7.3546      2.00000
     35      -7.3024      2.00000
     36      -7.3024      2.00000
     37      -7.2997      2.00000
     38      -7.2997      2.00000
     39      -7.1006      2.00000
     40      -7.1006      2.00000
     41      -7.0955      2.00000
     42      -7.0955      2.00000
     43      -7.0676      2.00000
     44      -7.0676      2.00000
     45      -7.0308      2.00000
     46      -7.0308      2.00000
     47      -6.9215      2.00000
     48      -6.9215      2.00000
     49      -6.9204      2.00000
     50      -6.9204      2.00000
     51      -6.8886      2.00000
     52      -6.8886      2.00000
     53      -6.8220      2.00000
     54      -6.8220      2.00000
     55      -6.8037      2.00000
     56      -6.8037      2.00000
     57      -6.5369      2.00000
     58      -6.5369      2.00000
     59      -6.3998      2.00000
     60      -6.3998      2.00000
     61      -6.3011      2.00000
     62      -6.3011      2.00000
     63      -6.1401      2.00000
     64      -6.1401      2.00000
     65       2.0613      0.00000
     66       2.0613      0.00000
     67       3.3337      0.00000
     68       3.3337      0.00000
     69       3.4729      0.00000
     70       3.4729      0.00000
     71       3.8251      0.00000
     72       3.8251      0.00000
     73       3.8278      0.00000
     74       3.8278      0.00000
     75       3.8320      0.00000
     76       3.8320      0.00000
     77       4.2538      0.00000
     78       4.2538      0.00000
     79       4.5630      0.00000
     80       4.5630      0.00000
     81       4.8434      0.00000
     82       4.8434      0.00000
     83       5.0029      0.00000
     84       5.0029      0.00000
     85       5.0377      0.00000
     86       5.0377      0.00000
     87       5.1180      0.00000
     88       5.1180      0.00000
     89       5.3501      0.00000
     90       5.3501      0.00000
     91       5.8181      0.00000
     92       5.8181      0.00000
     93       6.0162      0.00000
     94       6.0162      0.00000
     95       6.0661      0.00000
     96       6.0661      0.00000
     97       6.1728      0.00000
     98       6.1728      0.00000
     99       6.2711      0.00000
    100       6.2711      0.00000
    101       6.4569      0.00000
    102       6.4569      0.00000
    103       6.8579      0.00000
    104       6.8579      0.00000
    105       7.3726      0.00000
    106       7.3987      0.00000

 k-point     4 :       0.0000    0.2500    0.0000
  band No.  band energies     occupation 
      1     -17.0736      2.00000
      2     -17.0629      2.00000
      3     -17.0145      2.00000
      4     -17.0120      2.00000
      5     -17.0107      2.00000
      6     -17.0098      2.00000
      7     -16.9637      2.00000
      8     -16.9623      2.00000
      9     -15.1149      2.00000
     10     -15.0970      2.00000
     11     -15.0242      2.00000
     12     -15.0231      2.00000
     13     -14.9935      2.00000
     14     -14.9892      2.00000
     15     -14.9109      2.00000
     16     -14.9080      2.00000
     17      -9.0876      2.00000
     18      -9.0764      2.00000
     19      -8.9458      2.00000
     20      -8.9297      2.00000
     21      -8.9289      2.00000
     22      -8.9247      2.00000
     23      -8.8438      2.00000
     24      -8.8225      2.00000
     25      -7.8213      2.00000
     26      -7.8184      2.00000
     27      -7.7822      2.00000
     28      -7.5150      2.00000
     29      -7.4851      2.00000
     30      -7.4792      2.00000
     31      -7.4752      2.00000
     32      -7.4507      2.00000
     33      -7.3657      2.00000
     34      -7.3462      2.00000
     35      -7.3388      2.00000
     36      -7.2891      2.00000
     37      -7.2854      2.00000
     38      -7.2665      2.00000
     39      -7.2216      2.00000
     40      -7.2031      2.00000
     41      -7.2009      2.00000
     42      -7.0981      2.00000
     43      -7.0738      2.00000
     44      -7.0547      2.00000
     45      -7.0021      2.00000
     46      -6.9837      2.00000
     47      -6.9601      2.00000
     48      -6.9227      2.00000
     49      -6.9167      2.00000
     50      -6.9140      2.00000
     51      -6.9040      2.00000
     52      -6.8915      2.00000
     53      -6.8767      2.00000
     54      -6.8251      2.00000
     55      -6.8180      2.00000
     56      -6.7866      2.00000
     57      -6.5438      2.00000
     58      -6.4757      2.00000
     59      -6.3872      2.00000
     60      -6.3686      2.00000
     61      -6.3462      2.00000
     62      -6.3217      2.00000
     63      -6.1864      2.00000
     64      -6.1819      2.00000
     65       1.8528      0.00000
     66       3.0670      0.00000
     67       3.1101      0.00000
     68       3.2897      0.00000
     69       3.2989      0.00000
     70       3.4843      0.00000
     71       3.5751      0.00000
     72       3.6212      0.00000
     73       3.7268      0.00000
     74       3.8319      0.00000
     75       4.0879      0.00000
     76       4.1392      0.00000
     77       4.2205      0.00000
     78       4.3442      0.00000
     79       4.4249      0.00000
     80       4.7377      0.00000
     81       4.8984      0.00000
     82       4.9657      0.00000
     83       4.9780      0.00000
[...]
 -----------------------------------------------------------------------------------------------
   -.345E+02 -.200E+02 0.137E+02   0.390E+02 0.226E+02 -.156E+02   -.453E+01 -.258E+01 0.192E+01   0.481E-04 -.227E-04 -.926E-05
   0.345E+02 0.200E+02 -.137E+02   -.390E+02 -.226E+02 0.156E+02   0.453E+01 0.258E+01 -.192E+01   -.481E-04 0.227E-04 0.926E-05
   0.345E+02 0.200E+02 0.137E+02   -.390E+02 -.226E+02 -.156E+02   0.453E+01 0.258E+01 0.192E+01   -.481E-04 0.227E-04 -.926E-05
   -.345E+02 -.200E+02 -.137E+02   0.390E+02 0.226E+02 0.156E+02   -.453E+01 -.258E+01 -.192E+01   0.481E-04 -.227E-04 0.926E-05
   0.345E+02 -.200E+02 -.137E+02   -.390E+02 0.226E+02 0.156E+02   0.453E+01 -.258E+01 -.192E+01   -.481E-04 -.227E-04 0.926E-05
   -.345E+02 0.200E+02 0.137E+02   0.390E+02 -.226E+02 -.156E+02   -.453E+01 0.258E+01 0.192E+01   0.481E-04 0.227E-04 -.926E-05
   -.345E+02 0.200E+02 -.137E+02   0.390E+02 -.226E+02 0.156E+02   -.453E+01 0.258E+01 -.192E+01   0.481E-04 0.227E-04 0.926E-05
   0.345E+02 -.200E+02 0.137E+02   -.390E+02 0.226E+02 -.156E+02   0.453E+01 -.258E+01 0.192E+01   -.481E-04 -.227E-04 -.926E-05
   -.345E+02 -.200E+02 0.137E+02   0.390E+02 0.226E+02 -.156E+02   -.453E+01 -.258E+01 0.192E+01   0.481E-04 -.227E-04 -.926E-05
   0.345E+02 0.200E+02 -.137E+02   -.390E+02 -.226E+02 0.156E+02   0.453E+01 0.258E+01 -.192E+01   -.481E-04 0.227E-04 0.926E-05
   0.345E+02 0.200E+02 0.137E+02   -.390E+02 -.226E+02 -.156E+02   0.453E+01 0.258E+01 0.192E+01   -.481E-04 0.227E-04 -.926E-05
   -.345E+02 -.200E+02 -.137E+02   0.390E+02 0.226E+02 0.156E+02   -.453E+01 -.258E+01 -.192E+01   0.481E-04 -.227E-04 0.926E-05
   0.345E+02 -.200E+02 -.137E+02   -.390E+02 0.226E+02 0.156E+02   0.453E+01 -.258E+01 -.192E+01   -.481E-04 -.227E-04 0.926E-05
   -.345E+02 0.200E+02 0.137E+02   0.390E+02 -.226E+02 -.156E+02   -.453E+01 0.258E+01 0.192E+01   0.481E-04 0.227E-04 -.926E-05
   -.345E+02 0.200E+02 -.137E+02   0.390E+02 -.226E+02 0.156E+02   -.453E+01 0.258E+01 -.192E+01   0.481E-04 0.227E-04 0.926E-05
   0.345E+02 -.200E+02 0.137E+02   -.390E+02 0.226E+02 -.156E+02   0.453E+01 -.258E+01 0.192E+01   -.481E-04 -.227E-04 -.926E-05
   -.245E+02 -.271E+02 0.233E+02   0.277E+02 0.306E+02 -.262E+02   -.321E+01 -.347E+01 0.290E+01   -.438E-04 -.762E-04 0.639E-04
   0.245E+02 0.271E+02 -.233E+02   -.277E+02 -.306E+02 0.262E+02   0.321E+01 0.347E+01 -.290E+01   0.438E-04 0.762E-04 -.639E-04
   0.245E+02 0.271E+02 0.233E+02   -.277E+02 -.306E+02 -.262E+02   0.321E+01 0.347E+01 0.290E+01   0.438E-04 0.762E-04 0.639E-04
   -.245E+02 -.271E+02 -.233E+02   0.277E+02 0.306E+02 0.262E+02   -.321E+01 -.347E+01 -.290E+01   -.438E-04 -.762E-04 -.639E-04
   0.245E+02 -.271E+02 -.233E+02   -.277E+02 0.306E+02 0.262E+02   0.321E+01 -.347E+01 -.290E+01   0.438E-04 -.762E-04 -.639E-04
   -.245E+02 0.271E+02 0.233E+02   0.277E+02 -.306E+02 -.262E+02   -.321E+01 0.347E+01 0.290E+01   -.438E-04 0.762E-04 0.639E-04
   -.245E+02 0.271E+02 -.233E+02   0.277E+02 -.306E+02 0.262E+02   -.321E+01 0.347E+01 -.290E+01   -.438E-04 0.762E-04 -.639E-04
   0.245E+02 -.271E+02 0.233E+02   -.277E+02 0.306E+02 -.262E+02   0.321E+01 -.347E+01 0.290E+01   0.438E-04 -.762E-04 0.639E-04
   -.245E+02 -.271E+02 0.233E+02   0.277E+02 0.306E+02 -.262E+02   -.321E+01 -.347E+01 0.290E+01   -.438E-04 -.762E-04 0.639E-04
   0.245E+02 0.271E+02 -.233E+02   -.277E+02 -.306E+02 0.262E+02   0.321E+01 0.347E+01 -.290E+01   0.438E-04 0.762E-04 -.639E-04
   0.245E+02 0.271E+02 0.233E+02   -.277E+02 -.306E+02 -.262E+02   0.321E+01 0.347E+01 0.290E+01   0.438E-04 0.762E-04 0.639E-04
   -.245E+02 -.271E+02 -.233E+02   0.277E+02 0.306E+02 0.262E+02   -.321E+01 -.347E+01 -.290E+01   -.438E-04 -.762E-04 -.639E-04
   0.245E+02 -.271E+02 -.233E+02   -.277E+02 0.306E+02 0.262E+02   0.321E+01 -.347E+01 -.290E+01   0.438E-04 -.762E-04 -.639E-04
   -.245E+02 0.271E+02 0.233E+02   0.277E+02 -.306E+02 -.262E+02   -.321E+01 0.347E+01 0.290E+01   -.438E-04 0.762E-04 0.639E-04
   -.245E+02 0.271E+02 -.233E+02   0.277E+02 -.306E+02 0.262E+02   -.321E+01 0.347E+01 -.290E+01   -.438E-04 0.762E-04 -.639E-04
   0.245E+02 -.271E+02 0.233E+02   -.277E+02 0.306E+02 -.262E+02   0.321E+01 -.347E+01 0.290E+01   0.438E-04 -.762E-04 0.639E-04
   0.247E+02 -.226E+02 -.275E+02   -.279E+02 0.255E+02 0.310E+02   0.319E+01 -.289E+01 -.349E+01   0.903E-04 -.518E-04 -.535E-04
   -.247E+02 0.226E+02 0.275E+02   0.279E+02 -.255E+02 -.310E+02   -.319E+01 0.289E+01 0.349E+01   -.903E-04 0.518E-04 0.535E-04
   -.247E+02 0.226E+02 -.275E+02   0.279E+02 -.255E+02 0.310E+02   -.319E+01 0.289E+01 -.349E+01   -.903E-04 0.518E-04 -.535E-04
   0.247E+02 -.226E+02 0.275E+02   -.279E+02 0.255E+02 -.310E+02   0.319E+01 -.289E+01 0.349E+01   0.903E-04 -.518E-04 0.535E-04
   -.247E+02 -.226E+02 0.275E+02   0.279E+02 0.255E+02 -.310E+02   -.319E+01 -.289E+01 0.349E+01   -.903E-04 -.518E-04 0.535E-04
   0.247E+02 0.226E+02 -.275E+02   -.279E+02 -.255E+02 0.310E+02   0.319E+01 0.289E+01 -.349E+01   0.903E-04 0.518E-04 -.535E-04
   0.247E+02 0.226E+02 0.275E+02   -.279E+02 -.255E+02 -.310E+02   0.319E+01 0.289E+01 0.349E+01   0.903E-04 0.518E-04 0.535E-04
   -.247E+02 -.226E+02 -.275E+02   0.279E+02 0.255E+02 0.310E+02   -.319E+01 -.289E+01 -.349E+01   -.903E-04 -.518E-04 -.535E-04
   0.247E+02 -.226E+02 -.275E+02   -.279E+02 0.255E+02 0.310E+02   0.319E+01 -.289E+01 -.349E+01   0.903E-04 -.518E-04 -.535E-04
   -.247E+02 0.226E+02 0.275E+02   0.279E+02 -.255E+02 -.310E+02   -.319E+01 0.289E+01 0.349E+01   -.903E-04 0.518E-04 0.535E-04
   -.247E+02 0.226E+02 -.275E+02   0.279E+02 -.255E+02 0.310E+02   -.319E+01 0.289E+01 -.349E+01   -.903E-04 0.518E-04 -.535E-04
   0.247E+02 -.226E+02 0.275E+02   -.279E+02 0.255E+02 -.310E+02   0.319E+01 -.289E+01 0.349E+01   0.903E-04 -.518E-04 0.535E-04
   -.247E+02 -.226E+02 0.275E+02   0.279E+02 0.255E+02 -.310E+02   -.319E+01 -.289E+01 0.349E+01   -.903E-04 -.518E-04 0.535E-04
   0.247E+02 0.226E+02 -.275E+02   -.279E+02 -.255E+02 0.310E+02   0.319E+01 0.289E+01 -.349E+01   0.903E-04 0.518E-04 -.535E-04
   0.247E+02 0.226E+02 0.275E+02   -.279E+02 -.255E+02 -.310E+02   0.319E+01 0.289E+01 0.349E+01   0.903E-04 0.518E-04 0.535E-04
   -.247E+02 -.226E+02 -.275E+02   0.279E+02 0.255E+02 0.310E+02   -.319E+01 -.289E+01 -.349E+01   -.903E-04 -.518E-04 -.535E-04
   0.157E-07 0.411E+02 0.130E+02   -.724E-06 -.464E+02 -.147E+02   0.596E-22 0.526E+01 0.173E+01   0.309E-10 -.229E-03 -.726E-04
   0.157E-07 -.411E+02 -.130E+02   -.724E-06 0.464E+02 0.147E+02   -.529E-22 -.526E+01 -.173E+01   0.310E-10 0.229E-03 0.726E-04
   0.157E-07 -.411E+02 0.130E+02   -.724E-06 0.464E+02 -.147E+02   0.529E-22 -.526E+01 0.173E+01   0.310E-10 0.229E-03 -.726E-04
   0.157E-07 0.411E+02 -.130E+02   -.724E-06 -.464E+02 0.147E+02   -.529E-22 0.526E+01 -.173E+01   0.310E-10 -.229E-03 0.726E-04
   -.168E-07 0.411E+02 0.130E+02   0.774E-06 -.464E+02 -.147E+02   0.596E-22 0.526E+01 0.173E+01   -.242E-10 -.229E-03 -.726E-04
   -.168E-07 -.411E+02 -.130E+02   0.774E-06 0.464E+02 0.147E+02   -.662E-22 -.526E+01 -.173E+01   -.243E-10 0.229E-03 0.726E-04
   -.168E-07 -.411E+02 0.130E+02   0.774E-06 0.464E+02 -.147E+02   0.529E-22 -.526E+01 0.173E+01   -.243E-10 0.229E-03 -.726E-04
   -.168E-07 0.411E+02 -.130E+02   0.774E-06 -.464E+02 0.147E+02   -.529E-22 0.526E+01 -.173E+01   -.242E-10 -.229E-03 0.726E-04
   0.163E-07 0.566E+00 0.422E+02   -.749E-06 -.673E+00 -.477E+02   0.529E-22 0.113E+00 0.552E+01   0.305E-10 0.323E-04 -.993E-04
   0.163E-07 -.566E+00 -.422E+02   -.749E-06 0.673E+00 0.477E+02   0.000E+00 -.113E+00 -.552E+01   0.304E-10 -.323E-04 0.993E-04
   0.163E-07 -.566E+00 0.422E+02   -.749E-06 0.673E+00 -.477E+02   -.529E-22 -.113E+00 0.552E+01   0.304E-10 -.323E-04 -.993E-04
   0.163E-07 0.566E+00 -.422E+02   -.749E-06 -.673E+00 0.477E+02   -.662E-22 0.113E+00 -.552E+01   0.304E-10 0.323E-04 0.993E-04
   -.175E-07 0.566E+00 0.422E+02   0.805E-06 -.673E+00 -.477E+02   0.529E-22 0.113E+00 0.552E+01   -.233E-10 0.323E-04 -.993E-04
   -.175E-07 -.566E+00 -.422E+02   0.805E-06 0.673E+00 0.477E+02   0.000E+00 -.113E+00 -.552E+01   -.234E-10 -.323E-04 0.993E-04
   -.175E-07 -.566E+00 0.422E+02   0.805E-06 0.673E+00 -.477E+02   0.265E-22 -.113E+00 0.552E+01   -.233E-10 -.323E-04 -.993E-04
   -.175E-07 0.566E+00 -.422E+02   0.805E-06 -.673E+00 0.477E+02   -.794E-22 0.113E+00 -.552E+01   -.234E-10 0.323E-04 0.993E-04
   -.180E-06 -.580E+00 0.211E+01   0.901E-05 0.557E+00 -.200E+01   0.741E-21 0.728E-03 -.128E+00   -.139E-10 0.274E-05 -.460E-04
   -.180E-06 0.580E+00 -.211E+01   0.901E-05 -.557E+00 0.200E+01   -.979E-21 -.728E-03 0.128E+00   -.138E-10 -.274E-05 0.460E-04
   -.180E-06 0.580E+00 0.211E+01   0.901E-05 -.557E+00 -.200E+01   0.847E-21 -.728E-03 -.128E+00   -.137E-10 -.274E-05 -.460E-04
   -.180E-06 -.580E+00 -.211E+01   0.901E-05 0.557E+00 0.200E+01   -.847E-21 0.728E-03 0.128E+00   -.140E-10 0.274E-05 0.460E-04
   0.253E-06 -.580E+00 0.211E+01   -.126E-04 0.557E+00 -.200E+01   0.635E-21 0.728E-03 -.128E+00   0.860E-10 0.274E-05 -.460E-04
   0.253E-06 0.580E+00 -.211E+01   -.126E-04 -.557E+00 0.200E+01   -.741E-21 -.728E-03 0.128E+00   0.855E-10 -.274E-05 0.460E-04
   0.253E-06 0.580E+00 0.211E+01   -.126E-04 -.557E+00 -.200E+01   0.847E-21 -.728E-03 -.128E+00   0.856E-10 -.274E-05 -.460E-04
   0.253E-06 -.580E+00 -.211E+01   -.126E-04 0.557E+00 0.200E+01   -.424E-21 0.728E-03 0.128E+00   0.857E-10 0.274E-05 0.460E-04
   0.977E+00 -.762E-09 0.221E-07   -.923E+00 -.170E-06 -.909E-06   -.556E-01 0.127E-20 -.296E-20   0.121E-03 0.924E-11 -.964E-10
   -.977E+00 0.824E-08 0.199E-07   0.923E+00 -.170E-06 -.909E-06   0.556E-01 0.116E-20 0.847E-21   -.121E-03 0.919E-11 -.971E-10
   -.977E+00 -.169E-08 -.161E-07   0.923E+00 -.134E-06 0.671E-06   0.556E-01 0.127E-20 0.339E-20   -.121E-03 0.410E-11 0.958E-10
   0.977E+00 0.731E-08 -.139E-07   -.923E+00 -.134E-06 0.671E-06   -.556E-01 0.127E-20 -.678E-20   0.121E-03 0.371E-11 0.951E-10
   0.977E+00 -.762E-09 0.221E-07   -.923E+00 -.170E-06 -.909E-06   -.556E-01 -.953E-21 0.296E-20   0.121E-03 0.864E-11 -.960E-10
   -.977E+00 0.824E-08 0.199E-07   0.923E+00 -.170E-06 -.909E-06   0.556E-01 0.529E-21 -.169E-20   -.121E-03 0.819E-11 -.954E-10
   -.977E+00 -.169E-08 -.161E-07   0.923E+00 -.134E-06 0.671E-06   0.556E-01 0.424E-21 -.339E-20   -.121E-03 0.474E-11 0.961E-10
   0.977E+00 0.731E-08 -.139E-07   -.923E+00 -.134E-06 0.671E-06   -.556E-01 0.424E-21 -.508E-20   0.121E-03 0.420E-11 0.966E-10
 -----------------------------------------------------------------------------------------------
   0.108E-04 -.457E-04 0.924E-04   0.477E-13 -.515E-13 0.419E-14   -.694E-17 -.418E-16 -.127E-19   0.393E-09 0.584E-09 -.192E-09
 
 
 POSITION                                       TOTAL-FORCE (eV/Angst)
 -----------------------------------------------------------------------------------
      0.89389      6.42878      1.24346         0.007891      0.004990      0.007392
     10.65577      1.64984      6.83013        -0.007891     -0.004990     -0.007392
     10.65577      5.68915      5.28026        -0.007891     -0.004990      0.007392
      0.89389      2.38947      2.79333         0.007891      0.004990     -0.007392
     10.65577      2.38947      2.79333        -0.007891      0.004990     -0.007392
      0.89389      5.68915      5.28026         0.007891     -0.004990      0.007392
      0.89389      1.64984      6.83013         0.007891     -0.004990     -0.007392
     10.65577      6.42878      1.24346        -0.007891      0.004990      0.007392
      6.66873      2.38947      1.24346         0.007891      0.004990      0.007392
      4.88094      5.68915      6.83013        -0.007891     -0.004990     -0.007392
      4.88094      1.64984      5.28026        -0.007891     -0.004990      0.007392
      6.66873      6.42878      2.79333         0.007891      0.004990     -0.007392
      4.88094      6.42878      2.79333        -0.007891      0.004990     -0.007392
      6.66873      1.64984      5.28026         0.007891     -0.004990      0.007392
      6.66873      5.68915      6.83013         0.007891     -0.004990     -0.007392
      4.88094      2.38947      1.24346        -0.007891      0.004990      0.007392
      9.29383      4.72522      7.50120        -0.000642      0.005832     -0.005931
      2.25583      3.35340      0.57239         0.000642     -0.005832      0.005931
      2.25583      7.39271      3.46440         0.000642     -0.005832     -0.005931
      9.29383      0.68591      4.60919        -0.000642      0.005832      0.005931
      2.25583      0.68591      4.60919         0.000642      0.005832      0.005931
      9.29383      7.39271      3.46440        -0.000642     -0.005832     -0.005931
      9.29383      3.35340      0.57239        -0.000642     -0.005832      0.005931
      2.25583      4.72522      7.50120         0.000642      0.005832     -0.005931
      3.51900      0.68591      7.50120        -0.000642      0.005832     -0.005931
      8.03066      7.39271      0.57239         0.000642     -0.005832      0.005931
      8.03066      3.35340      3.46440         0.000642     -0.005832     -0.005931
      3.51900      4.72522      4.60919        -0.000642      0.005832      0.005931
      8.03066      4.72522      4.60919         0.000642      0.005832      0.005931
      3.51900      3.35340      3.46440        -0.000642     -0.005832     -0.005931
      3.51900      7.39271      0.57239        -0.000642     -0.005832      0.005931
      8.03066      0.68591      7.50120         0.000642      0.005832     -0.005931
      8.02918      4.61184      0.68829         0.001429      0.003459      0.007134
      3.52048      3.46678      7.38530        -0.001429     -0.003459     -0.007134
      3.52048      7.50609      4.72509        -0.001429     -0.003459      0.007134
      8.02918      0.57253      3.34850         0.001429      0.003459     -0.007134
      3.52048      0.57253      3.34850        -0.001429      0.003459     -0.007134
      8.02918      7.50609      4.72509         0.001429     -0.003459      0.007134
      8.02918      3.46678      7.38530         0.001429     -0.003459     -0.007134
      3.52048      4.61184      0.68829        -0.001429      0.003459      0.007134
      2.25435      0.57253      0.68829         0.001429      0.003459      0.007134
      9.29531      7.50609      7.38530        -0.001429     -0.003459     -0.007134
      9.29531      3.46678      4.72509        -0.001429     -0.003459      0.007134
      2.25435      4.61184      3.34850         0.001429      0.003459     -0.007134
      9.29531      4.61184      3.34850        -0.001429      0.003459     -0.007134
      2.25435      3.46678      4.72509         0.001429     -0.003459      0.007134
      2.25435      7.50609      7.38530         0.001429     -0.003459     -0.007134
      9.29531      0.57253      0.68829        -0.001429      0.003459      0.007134
      0.00000      4.87963      1.27805         0.000000      0.007396      0.016981
      0.00000      3.19899      6.79554         0.000000     -0.007396     -0.016981
      0.00000      7.23830      5.31484         0.000000     -0.007396      0.016981
      0.00000      0.84032      2.75875         0.000000      0.007396     -0.016981
      5.77483      0.84032      1.27805         0.000000      0.007396      0.016981
      5.77483      7.23830      6.79554         0.000000     -0.007396     -0.016981
      5.77483      3.19899      5.31484         0.000000     -0.007396      0.016981
      5.77483      4.87963      2.75875         0.000000      0.007396     -0.016981
      0.00000      2.13452      5.35769         0.000000      0.004849      0.002543
      0.00000      5.94410     -5.35769         0.000000     -0.004849     -0.002543
      0.00000      1.90479      1.32090         0.000000     -0.004849      0.002543
      0.00000     -1.90479     -1.32090         0.000000      0.004849     -0.002543
      5.77483     -1.90479      5.35769         0.000000      0.004849      0.002543
      5.77483      1.90479     -5.35769         0.000000     -0.004849     -0.002543
      5.77483      5.94410      1.32090         0.000000     -0.004849      0.002543
      5.77483      2.13452     -1.32090         0.000000      0.004849     -0.002543
      0.00000      1.88131     -5.65685         0.000000     -0.022613     -0.017496
      0.00000      6.19731      5.65685         0.000000      0.022613      0.017496
      0.00000      2.15800     -1.62005         0.000000      0.022613     -0.017496
      0.00000     -2.15800      1.62005         0.000000     -0.022613      0.017496
      5.77483     -2.15800     -5.65685         0.000000     -0.022613     -0.017496
      5.77483      2.15800      5.65685         0.000000      0.022613      0.017496
      5.77483      6.19731     -1.62005         0.000000      0.022613     -0.017496
      5.77483      1.88131      1.62005         0.000000     -0.022613      0.017496
      8.66049      4.03931     -0.00000         0.000668     -0.000000     -0.000000
      2.88918      4.03931     -0.00000        -0.000668     -0.000000     -0.000000
      2.88918      0.00000      4.03679        -0.000668     -0.000000     -0.000000
      8.66049      0.00000      4.03679         0.000668     -0.000000     -0.000000
      2.88566      0.00000     -0.00000         0.000668     -0.000000     -0.000000
      8.66401      0.00000     -0.00000        -0.000668     -0.000000     -0.000000
      8.66401      4.03931      4.03679        -0.000668     -0.000000     -0.000000
      2.88566      4.03931      4.03679         0.000668     -0.000000     -0.000000
 -----------------------------------------------------------------------------------
    total drift:                                0.000011     -0.000046      0.000092


--------------------------------------------------------------------------------------------------------



  FREE ENERGIE OF THE ION-ELECTRON SYSTEM (eV)
  ---------------------------------------------------
  free  energy   TOTEN  =      -387.48842743 eV

  energy  without entropy=     -387.48842743  energy(sigma->0) =     -387.48842743
 
 d Force = 0.2213429E-04[-0.704E-06, 0.450E-04]  d Energy = 0.2160705E-04 0.527E-06
 d Force =-0.7558458E-02[-0.762E-02,-0.750E-02]  d Ewald  =-0.7558458E-02 0.225E-09


--------------------------------------------------------------------------------------------------------


    POTLOK:  cpu time    0.77: real time    1.20


--------------------------------------------------------------------------------------------------------




--------------------------------------------------------------------------------------------------------


  
 reached required accuracy - stopping structural energy minimisation
     LOOP+:  cpu time  990.89: real time 1483.68
    4ORBIT:  cpu time    0.00: real time    0.00
 BZINTS: Fermi energy: -6.044224;128.000000 electrons
         Band energy:***********;  BLOECHL correction:  0.000000

 total amount of memory used by VASP on root node   418389. kBytes
========================================================================

   base      :      30000. kBytes
   nonl-proj :      59645. kBytes
   fftplans  :      13558. kBytes
   grid      :      21584. kBytes
   one-center:        122. kBytes
   wavefun   :     293480. kBytes
 
  
  
 General timing and accounting informations for this job:
 ========================================================
  
                  Total CPU time used (sec):    63451.156
                            User time (sec):    45876.167
                          System time (sec):    17574.990
                         Elapsed time (sec):    95195.464
  
                   Maximum memory used (kb):      590096.
                   Average memory used (kb):           0.
  
                          Minor page faults:    371293475
                          Major page faults:            0
                 Voluntary context switches:         4583
