# Thermal properties / unit cell (natom)

unit:
  temperature:   K
  free_energy:   kJ/mol
  entropy:       J/K/mol
  heat_capacity: J/K/mol

natom:     2
num_modes: 1944
num_integrated_modes: 1944

zero_point_energy:      32.4174621
high_T_entropy:        111.8670809

thermal_properties:
- temperature:         0.0000000
  free_energy:        32.4174621
  entropy:             0.0000000
  heat_capacity:       0.0000000
  energy:             32.4174621

- temperature:        10.0000000
  free_energy:        32.4174621
  entropy:             0.0000000
  heat_capacity:       0.0000000
  energy:             32.4174621

- temperature:        20.0000000
  free_energy:        32.4174621
  entropy:             0.0000080
  heat_capacity:       0.0000965
  energy:             32.4174622

- temperature:        30.0000000
  free_energy:        32.4174607
  entropy:             0.0004455
  heat_capacity:       0.0035933
  energy:             32.4174741

- temperature:        40.0000000
  free_energy:        32.4174449
  entropy:             0.0033998
  heat_capacity:       0.0209952
  energy:             32.4175809

- temperature:        50.0000000
  free_energy:        32.4173740
  entropy:             0.0119357
  heat_capacity:       0.0613084
  energy:             32.4179708

- temperature:        60.0000000
  free_energy:        32.4171787
  entropy:             0.0287018
  heat_capacity:       0.1297495
  energy:             32.4189008

- temperature:        70.0000000
  free_energy:        32.4167653
  entropy:             0.0558649
  heat_capacity:       0.2312531
  energy:             32.4206759

- temperature:        80.0000000
  free_energy:        32.4160200
  entropy:             0.0954498
  heat_capacity:       0.3718014
  energy:             32.4236559

- temperature:        90.0000000
  free_energy:        32.4148081
  entropy:             0.1494996
  heat_capacity:       0.5576703
  energy:             32.4282631

- temperature:       100.0000000
  free_energy:        32.4129750
  entropy:             0.2200342
  heat_capacity:       0.7942024
  energy:             32.4349784

- temperature:       110.0000000
  free_energy:        32.4103462
  entropy:             0.3089293
  heat_capacity:       1.0850633
  energy:             32.4443284

- temperature:       120.0000000
  free_energy:        32.4067298
  entropy:             0.4178121
  heat_capacity:       1.4321317
  energy:             32.4568672

- temperature:       130.0000000
  free_energy:        32.4019189
  entropy:             0.5480068
  heat_capacity:       1.8357730
  energy:             32.4731598

- temperature:       140.0000000
  free_energy:        32.3956952
  entropy:             0.7005256
  heat_capacity:       2.2952111
  energy:             32.4937688

- temperature:       150.0000000
  free_energy:        32.3878315
  entropy:             0.8760876
  heat_capacity:       2.8088359
  energy:             32.5192447

- temperature:       160.0000000
  free_energy:        32.3780951
  entropy:             1.0751475
  heat_capacity:       3.3744009
  energy:             32.5501187

- temperature:       170.0000000
  free_energy:        32.3662495
  entropy:             1.2979243
  heat_capacity:       3.9891328
  energy:             32.5868966

- temperature:       180.0000000
  free_energy:        32.3520575
  entropy:             1.5444277
  heat_capacity:       4.6497942
  energy:             32.6300545

- temperature:       190.0000000
  free_energy:        32.3352824
  entropy:             1.8144792
  heat_capacity:       5.3527345
  energy:             32.6800335

- temperature:       200.0000000
  free_energy:        32.3156905
  entropy:             2.1077312
  heat_capacity:       6.0939499
  energy:             32.7372368

- temperature:       210.0000000
  free_energy:        32.2930521
  entropy:             2.4236842
  heat_capacity:       6.8691582
  energy:             32.8020258

- temperature:       220.0000000
  free_energy:        32.2671433
  entropy:             2.7617048
  heat_capacity:       7.6738869
  energy:             32.8747183

- temperature:       230.0000000
  free_energy:        32.2377470
  entropy:             3.1210425
  heat_capacity:       8.5035680
  energy:             32.9555867

- temperature:       240.0000000
  free_energy:        32.2046542
  entropy:             3.5008477
  heat_capacity:       9.3536325
  energy:             33.0448576

- temperature:       250.0000000
  free_energy:        32.1676649
  entropy:             3.9001899
  heat_capacity:      10.2195974
  energy:             33.1427124

- temperature:       260.0000000
  free_energy:        32.1265886
  entropy:             4.3180753
  heat_capacity:      11.0971416
  energy:             33.2492882

- temperature:       270.0000000
  free_energy:        32.0812450
  entropy:             4.7534633
  heat_capacity:      11.9821676
  energy:             33.3646801

- temperature:       280.0000000
  free_energy:        32.0314645
  entropy:             5.2052826
  heat_capacity:      12.8708486
  energy:             33.4889437

- temperature:       290.0000000
  free_energy:        31.9770882
  entropy:             5.6724457
  heat_capacity:      13.7596606
  energy:             33.6220975

- temperature:       300.0000000
  free_energy:        31.9179681
  entropy:             6.1538616
  heat_capacity:      14.6454025
  energy:             33.7641266

- temperature:       310.0000000
  free_energy:        31.8539671
  entropy:             6.6484471
  heat_capacity:      15.5252038
  energy:             33.9149857

- temperature:       320.0000000
  free_energy:        31.7849588
  entropy:             7.1551360
  heat_capacity:      16.3965233
  energy:             34.0746024

- temperature:       330.0000000
  free_energy:        31.7108275
  entropy:             7.6728877
  heat_capacity:      17.2571409
  energy:             34.2428805

- temperature:       340.0000000
  free_energy:        31.6314676
  entropy:             8.2006927
  heat_capacity:      18.1051433
  energy:             34.4197031

- temperature:       350.0000000
  free_energy:        31.5467834
  entropy:             8.7375784
  heat_capacity:      18.9389058
  energy:             34.6049358

- temperature:       360.0000000
  free_energy:        31.4566889
  entropy:             9.2826121
  heat_capacity:      19.7570720
  energy:             34.7984292

- temperature:       370.0000000
  free_energy:        31.3611070
  entropy:             9.8349043
  heat_capacity:      20.5585314
  energy:             35.0000216

- temperature:       380.0000000
  free_energy:        31.2599694
  entropy:            10.3936099
  heat_capacity:      21.3423972
  energy:             35.2095412

- temperature:       390.0000000
  free_energy:        31.1532161
  entropy:            10.9579295
  heat_capacity:      22.1079835
  energy:             35.4268085

- temperature:       400.0000000
  free_energy:        31.0407946
  entropy:            11.5271090
  heat_capacity:      22.8547840
  energy:             35.6516382

- temperature:       410.0000000
  free_energy:        30.9226600
  entropy:            12.1004400
  heat_capacity:      23.5824508
  energy:             35.8838404

- temperature:       420.0000000
  free_energy:        30.7987742
  entropy:            12.6772584
  heat_capacity:      24.2907756
  energy:             36.1232227

- temperature:       430.0000000
  free_energy:        30.6691053
  entropy:            13.2569438
  heat_capacity:      24.9796710
  energy:             36.3695912

- temperature:       440.0000000
  free_energy:        30.5336277
  entropy:            13.8389176
  heat_capacity:      25.6491547
  energy:             36.6227514

- temperature:       450.0000000
  free_energy:        30.3923211
  entropy:            14.4226417
  heat_capacity:      26.2993336
  energy:             36.8825099

- temperature:       460.0000000
  free_energy:        30.2451707
  entropy:            15.0076167
  heat_capacity:      26.9303912
  energy:             37.1486744

- temperature:       470.0000000
  free_energy:        30.0921662
  entropy:            15.5933800
  heat_capacity:      27.5425748
  energy:             37.4210548

- temperature:       480.0000000
  free_energy:        29.9333019
  entropy:            16.1795043
  heat_capacity:      28.1361848
  energy:             37.6994639

- temperature:       490.0000000
  free_energy:        29.7685762
  entropy:            16.7655949
  heat_capacity:      28.7115651
  energy:             37.9837177

- temperature:       500.0000000
  free_energy:        29.5979913
  entropy:            17.3512888
  heat_capacity:      29.2690951
  energy:             38.2736357

- temperature:       510.0000000
  free_energy:        29.4215529
  entropy:            17.9362522
  heat_capacity:      29.8091817
  energy:             38.5690415

- temperature:       520.0000000
  free_energy:        29.2392697
  entropy:            18.5201787
  heat_capacity:      30.3322531
  energy:             38.8697627

- temperature:       530.0000000
  free_energy:        29.0511537
  entropy:            19.1027880
  heat_capacity:      30.8387533
  energy:             39.1756313

- temperature:       540.0000000
  free_energy:        28.8572192
  entropy:            19.6838237
  heat_capacity:      31.3291371
  energy:             39.4864840

- temperature:       550.0000000
  free_energy:        28.6574833
  entropy:            20.2630520
  heat_capacity:      31.8038663
  energy:             39.8021619

- temperature:       560.0000000
  free_energy:        28.4519649
  entropy:            20.8402603
  heat_capacity:      32.2634057
  energy:             40.1225107

- temperature:       570.0000000
  free_energy:        28.2406854
  entropy:            21.4152552
  heat_capacity:      32.7082205
  energy:             40.4473809

- temperature:       580.0000000
  free_energy:        28.0236678
  entropy:            21.9878617
  heat_capacity:      33.1387734
  energy:             40.7766276

- temperature:       590.0000000
  free_energy:        27.8009367
  entropy:            22.5579215
  heat_capacity:      33.5555229
  energy:             41.1101104

- temperature:       600.0000000
  free_energy:        27.5725183
  entropy:            23.1252920
  heat_capacity:      33.9589213
  energy:             41.4476935

- temperature:       610.0000000
  free_energy:        27.3384402
  entropy:            23.6898451
  heat_capacity:      34.3494134
  energy:             41.7892458

- temperature:       620.0000000
  free_energy:        27.0987312
  entropy:            24.2514662
  heat_capacity:      34.7274350
  energy:             42.1346402

- temperature:       630.0000000
  free_energy:        26.8534210
  entropy:            24.8100529
  heat_capacity:      35.0934125
  energy:             42.4837543

- temperature:       640.0000000
  free_energy:        26.6025406
  entropy:            25.3655143
  heat_capacity:      35.4477618
  energy:             42.8364697

- temperature:       650.0000000
  free_energy:        26.3461214
  entropy:            25.9177703
  heat_capacity:      35.7908880
  energy:             43.1926722

- temperature:       660.0000000
  free_energy:        26.0841961
  entropy:            26.4667505
  heat_capacity:      36.1231848
  energy:             43.5522514

- temperature:       670.0000000
  free_energy:        25.8167975
  entropy:            27.0123933
  heat_capacity:      36.4450343
  energy:             43.9151010

- temperature:       680.0000000
  free_energy:        25.5439595
  entropy:            27.5546455
  heat_capacity:      36.7568070
  energy:             44.2811185

- temperature:       690.0000000
  free_energy:        25.2657161
  entropy:            28.0934619
  heat_capacity:      37.0588614
  energy:             44.6502048

- temperature:       700.0000000
  free_energy:        24.9821018
  entropy:            28.6288037
  heat_capacity:      37.3515446
  energy:             45.0222645

- temperature:       710.0000000
  free_energy:        24.6931517
  entropy:            29.1606392
  heat_capacity:      37.6351916
  energy:             45.3972055

- temperature:       720.0000000
  free_energy:        24.3989008
  entropy:            29.6889423
  heat_capacity:      37.9101261
  energy:             45.7749393

- temperature:       730.0000000
  free_energy:        24.0993847
  entropy:            30.2136923
  heat_capacity:      38.1766604
  energy:             46.1553801

- temperature:       740.0000000
  free_energy:        23.7946389
  entropy:            30.7348738
  heat_capacity:      38.4350955
  energy:             46.5384455

- temperature:       750.0000000
  free_energy:        23.4846992
  entropy:            31.2524757
  heat_capacity:      38.6857218
  energy:             46.9240559

- temperature:       760.0000000
  free_energy:        23.1696013
  entropy:            31.7664914
  heat_capacity:      38.9288186
  energy:             47.3121348

- temperature:       770.0000000
  free_energy:        22.8493813
  entropy:            32.2769180
  heat_capacity:      39.1646553
  energy:             47.7026081

- temperature:       780.0000000
  free_energy:        22.5240749
  entropy:            32.7837560
  heat_capacity:      39.3934908
  energy:             48.0954046

- temperature:       790.0000000
  free_energy:        22.1937181
  entropy:            33.2870093
  heat_capacity:      39.6155745
  energy:             48.4904554

- temperature:       800.0000000
  free_energy:        21.8583467
  entropy:            33.7866846
  heat_capacity:      39.8311463
  energy:             48.8876944

- temperature:       810.0000000
  free_energy:        21.5179963
  entropy:            34.2827915
  heat_capacity:      40.0404367
  energy:             49.2870574

- temperature:       820.0000000
  free_energy:        21.1727027
  entropy:            34.7753417
  heat_capacity:      40.2436677
  energy:             49.6884829

- temperature:       830.0000000
  free_energy:        20.8225013
  entropy:            35.2643494
  heat_capacity:      40.4410525
  energy:             50.0919113

- temperature:       840.0000000
  free_energy:        20.4674275
  entropy:            35.7498306
  heat_capacity:      40.6327962
  energy:             50.4972851

- temperature:       850.0000000
  free_energy:        20.1075164
  entropy:            36.2318032
  heat_capacity:      40.8190960
  energy:             50.9045491

- temperature:       860.0000000
  free_energy:        19.7428030
  entropy:            36.7102866
  heat_capacity:      41.0001411
  energy:             51.3136496

- temperature:       870.0000000
  free_energy:        19.3733222
  entropy:            37.1853020
  heat_capacity:      41.1761139
  energy:             51.7245350

- temperature:       880.0000000
  free_energy:        18.9991085
  entropy:            37.6568716
  heat_capacity:      41.3471894
  energy:             52.1371555

- temperature:       890.0000000
  free_energy:        18.6201962
  entropy:            38.1250189
  heat_capacity:      41.5135358
  energy:             52.5514630

- temperature:       900.0000000
  free_energy:        18.2366194
  entropy:            38.5897684
  heat_capacity:      41.6753149
  energy:             52.9674110

- temperature:       910.0000000
  free_energy:        17.8484121
  entropy:            39.0511456
  heat_capacity:      41.8326821
  energy:             53.3849546

- temperature:       920.0000000
  free_energy:        17.4556077
  entropy:            39.5091769
  heat_capacity:      41.9857868
  energy:             53.8040504

- temperature:       930.0000000
  free_energy:        17.0582396
  entropy:            39.9638893
  heat_capacity:      42.1347729
  energy:             54.2246566

- temperature:       940.0000000
  free_energy:        16.6563409
  entropy:            40.4153104
  heat_capacity:      42.2797783
  energy:             54.6467326

- temperature:       950.0000000
  free_energy:        16.2499443
  entropy:            40.8634685
  heat_capacity:      42.4209359
  energy:             55.0702393

- temperature:       960.0000000
  free_energy:        15.8390823
  entropy:            41.3083924
  heat_capacity:      42.5583734
  energy:             55.4951389

- temperature:       970.0000000
  free_energy:        15.4237871
  entropy:            41.7501111
  heat_capacity:      42.6922137
  energy:             55.9213948

- temperature:       980.0000000
  free_energy:        15.0040906
  entropy:            42.1886541
  heat_capacity:      42.8225748
  energy:             56.3489716

- temperature:       990.0000000
  free_energy:        14.5800245
  entropy:            42.6240511
  heat_capacity:      42.9495704
  energy:             56.7778351

- temperature:      1000.0000000
  free_energy:        14.1516200
  entropy:            43.0563322
  heat_capacity:      43.0733099
  energy:             57.2079522
