<?xml version="1.0" encoding="ISO-8859-1"?>
<modeling>
 <generator>
  <i name="program" type="string">vasp </i>
  <i name="version" type="string">5.3.5  </i>
  <i name="subversion" type="string">31Mar14 (build Nov 02 2014 15:17:37) complex                          parallel </i>
  <i name="platform" type="string">ion-Intel-MKL </i>
  <i name="date" type="string">2017 05 07 </i>
  <i name="time" type="string">21:31:50 </i>
 </generator>
 <incar>
  <i type="string" name="SYSTEM">diamond</i>
  <i type="string" name="PREC">accurate</i>
  <i type="int" name="NELM">   200</i>
  <i type="int" name="IBRION">     2</i>
  <i name="EDIFF">      0.00000100</i>
  <i name="EDIFFG">      0.00100000</i>
  <i type="int" name="NSW">   200</i>
  <i type="int" name="ISIF">     2</i>
  <i name="ENCUT">    600.00000000</i>
  <i type="int" name="ISMEAR">    -5</i>
  <i type="logical" name="LWAVE"> F  </i>
  <i type="logical" name="LCHARG"> F  </i>
  <i type="int" name="NELM">   200</i>
  <i type="string" name="GGA">PE</i>
 </incar>
 <kpoints>
  <generation param="Gamma">
   <v type="int" name="divisions">       4        4        4 </v>
   <v name="usershift">      0.00000000       0.00000000       0.00000000 </v>
   <v name="genvec1">      0.25000000       0.00000000       0.00000000 </v>
   <v name="genvec2">      0.00000000       0.25000000       0.00000000 </v>
   <v name="genvec3">      0.00000000       0.00000000       0.25000000 </v>
   <v name="shift">      0.00000000       0.00000000       0.00000000 </v>
  </generation>
  <varray name="kpointlist" >
   <v>       0.00000000       0.00000000       0.00000000 </v>
   <v>       0.25000000       0.00000000       0.00000000 </v>
   <v>       0.50000000       0.00000000       0.00000000 </v>
   <v>       0.00000000       0.25000000       0.00000000 </v>
   <v>       0.25000000       0.25000000       0.00000000 </v>
   <v>       0.50000000       0.25000000       0.00000000 </v>
   <v>      -0.25000000       0.25000000       0.00000000 </v>
   <v>       0.00000000       0.50000000       0.00000000 </v>
   <v>       0.25000000       0.50000000       0.00000000 </v>
   <v>       0.50000000       0.50000000       0.00000000 </v>
   <v>       0.00000000       0.00000000       0.25000000 </v>
   <v>       0.25000000       0.00000000       0.25000000 </v>
   <v>       0.50000000       0.00000000       0.25000000 </v>
   <v>      -0.25000000       0.00000000       0.25000000 </v>
   <v>       0.00000000       0.25000000       0.25000000 </v>
   <v>       0.25000000       0.25000000       0.25000000 </v>
   <v>       0.50000000       0.25000000       0.25000000 </v>
   <v>      -0.25000000       0.25000000       0.25000000 </v>
   <v>       0.00000000       0.50000000       0.25000000 </v>
   <v>       0.25000000       0.50000000       0.25000000 </v>
   <v>       0.50000000       0.50000000       0.25000000 </v>
   <v>      -0.25000000       0.50000000       0.25000000 </v>
   <v>       0.00000000      -0.25000000       0.25000000 </v>
   <v>       0.25000000      -0.25000000       0.25000000 </v>
   <v>       0.50000000      -0.25000000       0.25000000 </v>
   <v>      -0.25000000      -0.25000000       0.25000000 </v>
   <v>       0.00000000       0.00000000       0.50000000 </v>
   <v>       0.25000000       0.00000000       0.50000000 </v>
   <v>       0.50000000       0.00000000       0.50000000 </v>
   <v>       0.00000000       0.25000000       0.50000000 </v>
   <v>       0.25000000       0.25000000       0.50000000 </v>
   <v>       0.50000000       0.25000000       0.50000000 </v>
   <v>      -0.25000000       0.25000000       0.50000000 </v>
   <v>       0.00000000       0.50000000       0.50000000 </v>
   <v>       0.25000000       0.50000000       0.50000000 </v>
   <v>       0.50000000       0.50000000       0.50000000 </v>
  </varray>
  <varray name="weights" >
   <v>       0.01562500 </v>
   <v>       0.03125000 </v>
   <v>       0.01562500 </v>
   <v>       0.03125000 </v>
   <v>       0.03125000 </v>
   <v>       0.03125000 </v>
   <v>       0.03125000 </v>
   <v>       0.01562500 </v>
   <v>       0.03125000 </v>
   <v>       0.01562500 </v>
   <v>       0.03125000 </v>
   <v>       0.03125000 </v>
   <v>       0.03125000 </v>
   <v>       0.03125000 </v>
   <v>       0.03125000 </v>
   <v>       0.03125000 </v>
   <v>       0.03125000 </v>
   <v>       0.03125000 </v>
   <v>       0.03125000 </v>
   <v>       0.03125000 </v>
   <v>       0.03125000 </v>
   <v>       0.03125000 </v>
   <v>       0.03125000 </v>
   <v>       0.03125000 </v>
   <v>       0.03125000 </v>
   <v>       0.03125000 </v>
   <v>       0.01562500 </v>
   <v>       0.03125000 </v>
   <v>       0.01562500 </v>
   <v>       0.03125000 </v>
   <v>       0.03125000 </v>
   <v>       0.03125000 </v>
   <v>       0.03125000 </v>
   <v>       0.01562500 </v>
   <v>       0.03125000 </v>
   <v>       0.01562500 </v>
  </varray>
  <varray name="tetrahedronlist"  type="int" >
   <v type="int" >        2        1        2        5       11 </v>
   <v type="int" >        2        1        4        5       11 </v>
   <v type="int" >        2        4        5       11       15 </v>
   <v type="int" >        2        2        5       11       12 </v>
   <v type="int" >        2        5       11       12       16 </v>
   <v type="int" >        2        5       11       15       16 </v>
   <v type="int" >        2        2        3        6       12 </v>
   <v type="int" >        2        2        5        6       12 </v>
   <v type="int" >        2        5        6       12       16 </v>
   <v type="int" >        2        3        6       12       13 </v>
   <v type="int" >        2        6       12       13       17 </v>
   <v type="int" >        2        6       12       16       17 </v>
   <v type="int" >        2        2        3        7       13 </v>
   <v type="int" >        2        3        6        7       13 </v>
   <v type="int" >        2        6        7       13       17 </v>
   <v type="int" >        2        2        7       13       14 </v>
   <v type="int" >        2        7       13       14       18 </v>
   <v type="int" >        2        7       13       17       18 </v>
   <v type="int" >        2        1        2        4       14 </v>
   <v type="int" >        2        2        4        7       14 </v>
   <v type="int" >        2        4        7       14       18 </v>
   <v type="int" >        2        1        4       11       14 </v>
   <v type="int" >        2        4       11       14       15 </v>
   <v type="int" >        2        4       14       15       18 </v>
   <v type="int" >        2        4        5        9       15 </v>
   <v type="int" >        2        4        8        9       15 </v>
   <v type="int" >        2        8        9       15       19 </v>
   <v type="int" >        2        5        9       15       16 </v>
   <v type="int" >        2        9       15       16       20 </v>
   <v type="int" >        2        9       15       19       20 </v>
   <v type="int" >        2        5        6       10       16 </v>
   <v type="int" >        2        5        9       10       16 </v>
   <v type="int" >        2        9       10       16       20 </v>
   <v type="int" >        2        6       10       16       17 </v>
   <v type="int" >        2       10       16       17       21 </v>
   <v type="int" >        2       10       16       20       21 </v>
   <v type="int" >        2        6        7        9       17 </v>
   <v type="int" >        2        6        9       10       17 </v>
   <v type="int" >        2        9       10       17       21 </v>
   <v type="int" >        2        7        9       17       18 </v>
   <v type="int" >        2        9       17       18       22 </v>
   <v type="int" >        2        9       17       21       22 </v>
   <v type="int" >        2        4        7        8       18 </v>
   <v type="int" >        2        7        8        9       18 </v>
   <v type="int" >        2        8        9       18       22 </v>
   <v type="int" >        2        4        8       15       18 </v>
   <v type="int" >        2        8       15       18       19 </v>
   <v type="int" >        2        8       18       19       22 </v>
   <v type="int" >        2        7        8        9       19 </v>
   <v type="int" >        2        4        7        8       19 </v>
   <v type="int" >        2        4        7       19       23 </v>
   <v type="int" >        2        7        9       19       20 </v>
   <v type="int" >        2        7       19       20       24 </v>
   <v type="int" >        2        7       19       23       24 </v>
   <v type="int" >        2        6        9       10       20 </v>
   <v type="int" >        2        6        7        9       20 </v>
   <v type="int" >        2        6        7       20       24 </v>
   <v type="int" >        2        6       10       20       21 </v>
   <v type="int" >        2        6       20       21       25 </v>
   <v type="int" >        2        6       20       24       25 </v>
   <v type="int" >        2        5        9       10       21 </v>
   <v type="int" >        2        5        6       10       21 </v>
   <v type="int" >        2        5        6       21       25 </v>
   <v type="int" >        2        5        9       21       22 </v>
   <v type="int" >        2        5       21       22       26 </v>
   <v type="int" >        2        5       21       25       26 </v>
   <v type="int" >        2        4        8        9       22 </v>
   <v type="int" >        2        4        5        9       22 </v>
   <v type="int" >        2        4        5       22       26 </v>
   <v type="int" >        2        4        8       19       22 </v>
   <v type="int" >        2        4       19       22       23 </v>
   <v type="int" >        2        4       22       23       26 </v>
   <v type="int" >        2        2        4        7       23 </v>
   <v type="int" >        2        1        2        4       23 </v>
   <v type="int" >        2        1        2       11       23 </v>
   <v type="int" >        2        2        7       23       24 </v>
   <v type="int" >        2        2       12       23       24 </v>
   <v type="int" >        2        2       11       12       23 </v>
   <v type="int" >        2        3        6        7       24 </v>
   <v type="int" >        2        2        3        7       24 </v>
   <v type="int" >        2        2        3       12       24 </v>
   <v type="int" >        2        3        6       24       25 </v>
   <v type="int" >        2        3       13       24       25 </v>
   <v type="int" >        2        3       12       13       24 </v>
   <v type="int" >        2        2        5        6       25 </v>
   <v type="int" >        2        2        3        6       25 </v>
   <v type="int" >        2        2        3       13       25 </v>
   <v type="int" >        2        2        5       25       26 </v>
   <v type="int" >        2        2       14       25       26 </v>
   <v type="int" >        2        2       13       14       25 </v>
   <v type="int" >        2        1        4        5       26 </v>
   <v type="int" >        2        1        2        5       26 </v>
   <v type="int" >        2        1        2       14       26 </v>
   <v type="int" >        2        1        4       23       26 </v>
   <v type="int" >        2        1       11       23       26 </v>
   <v type="int" >        2        1       11       14       26 </v>
   <v type="int" >        2       11       12       16       27 </v>
   <v type="int" >        2       11       15       16       27 </v>
   <v type="int" >        2       15       16       27       30 </v>
   <v type="int" >        2       12       16       27       28 </v>
   <v type="int" >        2       16       27       28       31 </v>
   <v type="int" >        2       16       27       30       31 </v>
   <v type="int" >        2       12       13       17       28 </v>
   <v type="int" >        2       12       16       17       28 </v>
   <v type="int" >        2       16       17       28       31 </v>
   <v type="int" >        2       13       17       28       29 </v>
   <v type="int" >        2       17       28       29       32 </v>
   <v type="int" >        2       17       28       31       32 </v>
   <v type="int" >        2       13       14       18       29 </v>
   <v type="int" >        2       13       17       18       29 </v>
   <v type="int" >        2       17       18       29       32 </v>
   <v type="int" >        2       14       18       28       29 </v>
   <v type="int" >        2       18       28       29       33 </v>
   <v type="int" >        2       18       29       32       33 </v>
   <v type="int" >        2       11       14       15       28 </v>
   <v type="int" >        2       14       15       18       28 </v>
   <v type="int" >        2       15       18       28       33 </v>
   <v type="int" >        2       11       15       27       28 </v>
   <v type="int" >        2       15       27       28       30 </v>
   <v type="int" >        2       15       28       30       33 </v>
   <v type="int" >        2       15       16       20       30 </v>
   <v type="int" >        2       15       19       20       30 </v>
   <v type="int" >        2       19       20       30       34 </v>
   <v type="int" >        2       16       20       30       31 </v>
   <v type="int" >        2       20       30       31       35 </v>
   <v type="int" >        2       20       30       34       35 </v>
   <v type="int" >        2       16       17       21       31 </v>
   <v type="int" >        2       16       20       21       31 </v>
   <v type="int" >        2       20       21       31       35 </v>
   <v type="int" >        2       17       21       31       32 </v>
   <v type="int" >        2       21       31       32       36 </v>
   <v type="int" >        2       21       31       35       36 </v>
   <v type="int" >        2       17       18       22       32 </v>
   <v type="int" >        2       17       21       22       32 </v>
   <v type="int" >        2       21       22       32       36 </v>
   <v type="int" >        2       18       22       32       33 </v>
   <v type="int" >        2       22       32       33       35 </v>
   <v type="int" >        2       22       32       35       36 </v>
   <v type="int" >        2       15       18       19       33 </v>
   <v type="int" >        2       18       19       22       33 </v>
   <v type="int" >        2       19       22       33       35 </v>
   <v type="int" >        2       15       19       30       33 </v>
   <v type="int" >        2       19       30       33       34 </v>
   <v type="int" >        2       19       33       34       35 </v>
   <v type="int" >        2       19       20       24       34 </v>
   <v type="int" >        2       19       23       24       34 </v>
   <v type="int" >        2       23       24       30       34 </v>
   <v type="int" >        2       20       24       34       35 </v>
   <v type="int" >        2       24       33       34       35 </v>
   <v type="int" >        2       24       30       33       34 </v>
   <v type="int" >        2       20       21       25       35 </v>
   <v type="int" >        2       20       24       25       35 </v>
   <v type="int" >        2       24       25       33       35 </v>
   <v type="int" >        2       21       25       35       36 </v>
   <v type="int" >        2       25       32       35       36 </v>
   <v type="int" >        2       25       32       33       35 </v>
   <v type="int" >        2       21       22       26       36 </v>
   <v type="int" >        2       21       25       26       36 </v>
   <v type="int" >        2       25       26       32       36 </v>
   <v type="int" >        2       22       26       35       36 </v>
   <v type="int" >        2       26       31       35       36 </v>
   <v type="int" >        2       26       31       32       36 </v>
   <v type="int" >        2       19       22       23       35 </v>
   <v type="int" >        2       22       23       26       35 </v>
   <v type="int" >        2       23       26       31       35 </v>
   <v type="int" >        2       19       23       34       35 </v>
   <v type="int" >        2       23       30       34       35 </v>
   <v type="int" >        2       23       30       31       35 </v>
   <v type="int" >        2       12       23       24       30 </v>
   <v type="int" >        2       11       12       23       30 </v>
   <v type="int" >        2       11       12       27       30 </v>
   <v type="int" >        2       12       24       30       33 </v>
   <v type="int" >        2       12       28       30       33 </v>
   <v type="int" >        2       12       27       28       30 </v>
   <v type="int" >        2       13       24       25       33 </v>
   <v type="int" >        2       12       13       24       33 </v>
   <v type="int" >        2       12       13       28       33 </v>
   <v type="int" >        2       13       25       32       33 </v>
   <v type="int" >        2       13       29       32       33 </v>
   <v type="int" >        2       13       28       29       33 </v>
   <v type="int" >        2       14       25       26       32 </v>
   <v type="int" >        2       13       14       25       32 </v>
   <v type="int" >        2       13       14       29       32 </v>
   <v type="int" >        2       14       26       31       32 </v>
   <v type="int" >        2       14       28       31       32 </v>
   <v type="int" >        2       14       28       29       32 </v>
   <v type="int" >        2       11       23       26       31 </v>
   <v type="int" >        2       11       14       26       31 </v>
   <v type="int" >        2       11       14       28       31 </v>
   <v type="int" >        2       11       23       30       31 </v>
   <v type="int" >        2       11       27       30       31 </v>
   <v type="int" >        2       11       27       28       31 </v>
  </varray>
  <i name="volumeweight">      0.00260417 </i>
 </kpoints>
 <parameters>
  <separator name="general" >
   <i type="string" name="SYSTEM">diamond</i>
   <i type="logical" name="LCOMPAT"> F  </i>
  </separator>
  <separator name="electronic" >
   <i type="string" name="PREC">accura</i>
   <i name="ENMAX">    600.00000000</i>
   <i name="ENAUG">    644.87300000</i>
   <i name="EDIFF">      0.00000100</i>
   <i type="int" name="IALGO">    38</i>
   <i type="int" name="IWAVPR">    11</i>
   <i type="int" name="NBANDS">    46</i>
   <i name="NELECT">     68.00000000</i>
   <i type="int" name="TURBO">     0</i>
   <i type="int" name="IRESTART">     0</i>
   <i type="int" name="NREBOOT">     0</i>
   <i type="int" name="NMIN">     0</i>
   <i name="EREF">      0.00000000</i>
   <separator name="electronic smearing" >
    <i type="int" name="ISMEAR">    -5</i>
    <i name="SIGMA">      0.20000000</i>
    <i name="KSPACING">      0.50000000</i>
    <i type="logical" name="KGAMMA"> T  </i>
   </separator>
   <separator name="electronic projectors" >
    <i type="logical" name="LREAL"> F  </i>
    <v name="ROPT">      0.00000000      0.00000000</v>
    <i type="int" name="LMAXPAW">  -100</i>
    <i type="int" name="LMAXMIX">     2</i>
    <i type="logical" name="NLSPLINE"> F  </i>
   </separator>
   <separator name="electronic startup" >
    <i type="int" name="ISTART">     0</i>
    <i type="int" name="ICHARG">     2</i>
    <i type="int" name="INIWAV">     1</i>
   </separator>
   <separator name="electronic spin" >
    <i type="int" name="ISPIN">     1</i>
    <i type="logical" name="LNONCOLLINEAR"> F  </i>
    <v name="MAGMOM">      1.00000000      1.00000000      1.00000000      1.00000000      1.00000000      1.00000000      1.00000000      1.00000000      1.00000000      1.00000000      1.00000000      1.00000000      1.00000000      1.00000000      1.00000000      1.00000000      1.00000000      1.00000000      1.00000000      1.00000000
</v>
    <i name="NUPDOWN">     -1.00000000</i>
    <i type="logical" name="LSORBIT"> F  </i>
    <v name="SAXIS">      0.00000000      0.00000000      1.00000000</v>
    <i type="logical" name="LSPIRAL"> F  </i>
    <v name="QSPIRAL">      0.00000000      0.00000000      0.00000000</v>
    <i type="logical" name="LZEROZ"> F  </i>
   </separator>
   <separator name="electronic exchange-correlation" >
    <i type="logical" name="LASPH"> F  </i>
    <i type="logical" name="LMETAGGA"> F  </i>
   </separator>
   <separator name="electronic convergence" >
    <i type="int" name="NELM">   200</i>
    <i type="int" name="NELMDL">     0</i>
    <i type="int" name="NELMIN">     2</i>
    <i name="ENINI">    600.00000000</i>
    <separator name="electronic convergence detail" >
     <i type="logical" name="LDIAG"> T  </i>
     <i type="logical" name="LSUBROT"> F  </i>
     <i name="WEIMIN">      0.00100000</i>
     <i name="EBREAK">      0.00000001</i>
     <i name="DEPER">      0.30000000</i>
     <i type="int" name="NRMM">     4</i>
     <i name="TIME">      0.40000000</i>
    </separator>
   </separator>
   <separator name="electronic mixer" >
    <i name="AMIX">      0.40000000</i>
    <i name="BMIX">      1.00000000</i>
    <i name="AMIN">      0.10000000</i>
    <i name="AMIX_MAG">      1.60000000</i>
    <i name="BMIX_MAG">      1.00000000</i>
    <separator name="electronic mixer details" >
     <i type="int" name="IMIX">     4</i>
     <i type="int" name="MAXMIX">   -45</i>
     <i name="WC">    100.00000000</i>
     <i type="int" name="INIMIX">     1</i>
     <i type="int" name="MIXPRE">     1</i>
     <i type="int" name="MREMOVE">     5</i>
    </separator>
   </separator>
   <separator name="electronic dipolcorrection" >
    <i type="logical" name="LDIPOL"> F  </i>
    <i type="logical" name="LMONO"> F  </i>
    <i type="int" name="IDIPOL">     0</i>
    <i name="EPSILON">      1.00000000</i>
    <v name="DIPOL">   -100.00000000   -100.00000000   -100.00000000</v>
    <i name="EFIELD">      0.00000000</i>
   </separator>
  </separator>
  <separator name="grids" >
   <i type="int" name="NGX">    50</i>
   <i type="int" name="NGY">    50</i>
   <i type="int" name="NGZ">    50</i>
   <i type="int" name="NGXF">   100</i>
   <i type="int" name="NGYF">   100</i>
   <i type="int" name="NGZF">   100</i>
   <i type="logical" name="ADDGRID"> F  </i>
  </separator>
  <separator name="ionic" >
   <i type="int" name="NSW">   200</i>
   <i type="int" name="IBRION">     2</i>
   <i type="int" name="ISIF">     2</i>
   <i name="PSTRESS">      0.00000000</i>
   <i name="EDIFFG">      0.00100000</i>
   <i type="int" name="NFREE">     1</i>
   <i name="POTIM">      0.50000000</i>
   <i name="SMASS">     -3.00000000</i>
   <i name="SCALEE">      1.00000000</i>
  </separator>
  <separator name="ionic md" >
   <i name="TEBEG">      0.00010000</i>
   <i name="TEEND">      0.00010000</i>
   <i type="int" name="NBLOCK">     1</i>
   <i type="int" name="KBLOCK">   200</i>
   <i type="int" name="NPACO">   256</i>
   <i name="APACO">     16.00000000</i>
  </separator>
  <separator name="symmetry" >
   <i type="int" name="ISYM">     2</i>
   <i name="SYMPREC">      0.00001000</i>
  </separator>
  <separator name="dos" >
   <i type="logical" name="LORBIT"> F  </i>
   <v name="RWIGS">     -1.00000000     -1.00000000</v>
   <i type="int" name="NEDOS">   301</i>
   <i name="EMIN">     10.00000000</i>
   <i name="EMAX">    -10.00000000</i>
   <i name="EFERMI">      0.00000000</i>
  </separator>
  <separator name="writing" >
   <i type="int" name="NWRITE">     2</i>
   <i type="logical" name="LWAVE"> F  </i>
   <i type="logical" name="LCHARG"> F  </i>
   <i type="logical" name="LPARD"> F  </i>
   <i type="logical" name="LVTOT"> F  </i>
   <i type="logical" name="LVHAR"> F  </i>
   <i type="logical" name="LELF"> F  </i>
   <i type="logical" name="LOPTICS"> F  </i>
   <v name="STM">      0.00000000      0.00000000      0.00000000      0.00000000      0.00000000      0.00000000      0.00000000</v>
  </separator>
  <separator name="performance" >
   <i type="int" name="NPAR">     2</i>
   <i type="int" name="NSIM">     4</i>
   <i type="int" name="NBLK">    -1</i>
   <i type="logical" name="LPLANE"> T  </i>
   <i type="logical" name="LSCALAPACK"> T  </i>
   <i type="logical" name="LSCAAWARE"> F  </i>
   <i type="logical" name="LSCALU"> F  </i>
   <i type="logical" name="LASYNC"> F  </i>
   <i type="logical" name="LORBITALREAL"> F  </i>
  </separator>
  <separator name="miscellaneous" >
   <i type="int" name="IDIOT">     3</i>
   <i type="logical" name="LMUSIC"> F  </i>
   <v name="POMASS">     12.01100000      1.00000000</v>
   <v name="DARWINR">      0.00000000      0.00000000</v>
   <v name="DARWINV">      1.00000000      1.00000000</v>
   <i type="logical" name="LCORR"> T  </i>
  </separator>
  <i type="logical" name="GGA_COMPAT"> T  </i>
  <i type="logical" name="LBERRY"> F  </i>
  <i type="int" name="ICORELEVEL">     0</i>
  <i type="logical" name="LDAU"> F  </i>
  <i type="int" name="I_CONSTRAINED_M">     0</i>
  <separator name="electronic exchange-correlation" >
   <i type="string" name="GGA">PE</i>
   <i type="int" name="VOSKOWN">     0</i>
   <i type="logical" name="LHFCALC"> F  </i>
   <i type="string" name="PRECFOCK"></i>
   <i type="logical" name="LSYMGRAD"> F  </i>
   <i type="logical" name="LHFONE"> F  </i>
   <i type="logical" name="LRHFCALC"> F  </i>
   <i type="logical" name="LTHOMAS"> F  </i>
   <i type="logical" name="LMODELHF"> F  </i>
   <i name="ENCUT4O">     -1.00000000</i>
   <i type="int" name="EXXOEP">     0</i>
   <i type="int" name="FOURORBIT">     0</i>
   <i name="AEXX">      0.00000000</i>
   <i name="HFALPHA">      0.00000000</i>
   <i name="MCALPHA">      0.00000000</i>
   <i name="ALDAX">      1.00000000</i>
   <i name="AGGAX">      1.00000000</i>
   <i name="ALDAC">      1.00000000</i>
   <i name="AGGAC">      1.00000000</i>
   <i type="int" name="NKREDX">     1</i>
   <i type="int" name="NKREDY">     1</i>
   <i type="int" name="NKREDZ">     1</i>
   <i type="logical" name="SHIFTRED"> F  </i>
   <i type="logical" name="ODDONLY"> F  </i>
   <i type="logical" name="EVENONLY"> F  </i>
   <i type="int" name="LMAXFOCK">     0</i>
   <i type="int" name="NMAXFOCKAE">     0</i>
   <i type="logical" name="LFOCKAEDFT"> F  </i>
   <i name="HFSCREEN">      0.00000000</i>
   <i name="HFSCREENC">      0.00000000</i>
   <i type="int" name="NBANDSGWLOW">     0</i>
  </separator>
  <separator name="vdW DFT" >
   <i type="logical" name="LUSE_VDW"> F  </i>
   <i name="Zab_VDW">     -0.84910000</i>
   <i name="PARAM1">      0.12340000</i>
   <i name="PARAM2">      1.00000000</i>
   <i name="PARAM3">      0.00000000</i>
  </separator>
  <separator name="model GW" >
   <i type="int" name="MODEL_GW">     0</i>
   <i name="MODEL_EPS0">      7.37417847</i>
   <i name="MODEL_ALPHA">      1.00000000</i>
  </separator>
  <separator name="linear response parameters" >
   <i type="logical" name="LEPSILON"> F  </i>
   <i type="logical" name="LRPA"> F  </i>
   <i type="logical" name="LNABLA"> F  </i>
   <i type="logical" name="LVEL"> F  </i>
   <i type="int" name="KINTER">     0</i>
   <i name="CSHIFT">      0.10000000</i>
   <i name="OMEGAMAX">     -1.00000000</i>
   <i name="DEG_THRESHOLD">      0.00200000</i>
  </separator>
  <separator name="orbital magnetization" >
   <i type="logical" name="NUCIND"> F  </i>
   <v name="MAGPOS">      0.00000000      0.00000000      0.00000000</v>
   <i type="logical" name="LNICSALL"> T  </i>
   <i type="logical" name="ORBITALMAG"> F  </i>
   <i type="logical" name="LMAGBLOCH"> F  </i>
   <i type="logical" name="LCHIMAG"> F  </i>
   <i type="logical" name="LGAUGE"> T  </i>
   <i type="int" name="MAGATOM">     0</i>
   <v name="MAGDIPOL">      0.00000000      0.00000000      0.00000000</v>
   <v name="AVECCONST">      0.00000000      0.00000000      0.00000000</v>
  </separator>
  <separator name="response functions" >
   <i type="logical" name="LADDER"> F  </i>
   <i type="logical" name="LFXC"> F  </i>
   <i type="logical" name="LHARTREE"> T  </i>
   <i type="int" name="IBSE">     0</i>
   <i type="logical" name="LTCTE"> F  </i>
   <i type="logical" name="LTETE"> F  </i>
   <i type="logical" name="LTRIPLET"> F  </i>
   <i type="logical" name="LFXCEPS"> F  </i>
   <i type="logical" name="LFXHEG"> F  </i>
   <i type="logical" name="L2ORDER"> F  </i>
   <i type="logical" name="LUSEW"> F  </i>
   <i name="ENCUTGW">     -2.00000000</i>
   <i name="ENCUTGWSOFT">     -2.00000000</i>
   <i name="ENCUTLF">     -1.00000000</i>
   <i type="int" name="LMAXMP2">    -1</i>
   <i name="SCISSOR">      0.00000000</i>
   <i type="int" name="NOMEGA">     0</i>
   <i type="int" name="NOMEGAR">     0</i>
   <i type="int" name="NBANDSGW">    -1</i>
   <i type="int" name="NBANDSO">    -1</i>
   <i type="int" name="NBANDSV">    -1</i>
   <i type="int" name="NELM">   200</i>
   <i type="int" name="DIM">     3</i>
   <i type="int" name="ANTIRES">     0</i>
   <i name="OMEGAMAX">    -30.00000000</i>
   <i name="OMEGAMIN">    -30.00000000</i>
   <i name="OMEGATL">   -200.00000000</i>
   <i type="int" name="OMEGAGRID">     0</i>
   <i name="CSHIFT">     -0.10000000</i>
   <i type="logical" name="SELFENERGY"> F  </i>
   <i type="logical" name="LSPECTRAL"> F  </i>
   <i type="logical" name="ODDONLYGW"> F  </i>
   <i type="logical" name="EVENONLYGW"> F  </i>
   <i type="int" name="NKREDLFX">     1</i>
   <i type="int" name="NKREDLFY">     1</i>
   <i type="int" name="NKREDLFZ">     1</i>
   <i type="int" name="MAXMEM">  1800</i>
   <i type="int" name="TELESCOPE">     0</i>
   <i type="int" name="TAUPAR">     1</i>
  </separator>
  <separator name="External order field" >
   <i name="OFIELD_KAPPA">      0.00000000</i>
   <v name="OFIELD_K">      0.00000000      0.00000000      0.00000000</v>
   <i name="OFIELD_Q6_NEAR">      0.00000000</i>
   <i name="OFIELD_Q6_FAR">      0.00000000</i>
   <i name="OFIELD_A">      0.00000000</i>
  </separator>
 </parameters>
 <atominfo>
  <atoms>      20 </atoms>
  <types>       2 </types>
  <array name="atoms" >
   <dimension dim="1">ion</dimension>
   <field type="string">element</field>
   <field type="int">atomtype</field>
   <set>
    <rc><c>C </c><c>   1</c></rc>
    <rc><c>C </c><c>   1</c></rc>
    <rc><c>C </c><c>   1</c></rc>
    <rc><c>C </c><c>   1</c></rc>
    <rc><c>C </c><c>   1</c></rc>
    <rc><c>C </c><c>   1</c></rc>
    <rc><c>C </c><c>   1</c></rc>
    <rc><c>C </c><c>   1</c></rc>
    <rc><c>C </c><c>   1</c></rc>
    <rc><c>C </c><c>   1</c></rc>
    <rc><c>C </c><c>   1</c></rc>
    <rc><c>C </c><c>   1</c></rc>
    <rc><c>C </c><c>   1</c></rc>
    <rc><c>C </c><c>   1</c></rc>
    <rc><c>C </c><c>   1</c></rc>
    <rc><c>C </c><c>   1</c></rc>
    <rc><c>H </c><c>   2</c></rc>
    <rc><c>H </c><c>   2</c></rc>
    <rc><c>H </c><c>   2</c></rc>
    <rc><c>H </c><c>   2</c></rc>
   </set>
  </array>
  <array name="atomtypes" >
   <dimension dim="1">type</dimension>
   <field type="int">atomspertype</field>
   <field type="string">element</field>
   <field>mass</field>
   <field>valence</field>
   <field type="string">pseudopotential</field>
   <set>
    <rc><c>  16</c><c>C </c><c>     12.01100000</c><c>      4.00000000</c><c> PAW_PBE C 08Apr2002                    </c></rc>
    <rc><c>   4</c><c>H </c><c>      1.00000000</c><c>      1.00000000</c><c> PAW_PBE H 15Jun2001                    </c></rc>
   </set>
  </array>
 </atominfo>
 <structure name="initialpos" >
  <crystal>
   <varray name="basis" >
    <v>       6.26417858       0.00000000       0.00000000 </v>
    <v>       0.00000000       6.26417858       0.00000000 </v>
    <v>       0.00000000       0.00000000       6.26417858 </v>
   </varray>
   <i name="volume">    245.80594912 </i>
   <varray name="rec_basis" >
    <v>       0.15963785       0.00000000       0.00000000 </v>
    <v>       0.00000000       0.15963785       0.00000000 </v>
    <v>       0.00000000       0.00000000       0.15963785 </v>
   </varray>
  </crystal>
  <varray name="positions" >
   <v>       0.45587999       0.83459997       0.53931999 </v>
   <v>       0.45587999       0.04190000       0.33202001 </v>
   <v>       0.45587999       0.11777000       0.61519998 </v>
   <v>       0.69524998       0.99809003       0.49551001 </v>
   <v>       0.60030001       0.52968001       0.15026000 </v>
   <v>       0.54931998       0.63409001       0.89600998 </v>
   <v>       0.56970000       0.35765001       0.93207002 </v>
   <v>       0.34876001       0.49586999       0.03313000 </v>
   <v>       0.08223999       0.01558006       0.15304001 </v>
   <v>       0.03126001       0.11998999       0.89879000 </v>
   <v>       0.05164003       0.84355003       0.93484998 </v>
   <v>       0.83069998       0.98176998       0.03591000 </v>
   <v>       0.07562006       0.53223002       0.66030997 </v>
   <v>       0.02463996       0.63664001       0.40605000 </v>
   <v>       0.04501998       0.36019999       0.44211999 </v>
   <v>       0.82406998       0.49842000       0.54316997 </v>
   <v>       0.51572001       0.99809003       0.49551001 </v>
   <v>       0.51703000       0.50432998       0.00287000 </v>
   <v>       0.99896002       0.99023002       0.00565000 </v>
   <v>       0.99234003       0.50687998       0.51292002 </v>
  </varray>
 </structure>
 <calculation>
  <scstep>
   <time name="dav">   30.93   61.94</time>
   <time name="total">   31.27   62.61</time>
   <energy>
    <i name="alphaZ">     92.85882409 </i>
    <i name="ewald">  -1496.10549544 </i>
    <i name="hartreedc">   -750.49625573 </i>
    <i name="XCdc">    218.04334290 </i>
    <i name="pawpsdc">    608.42839238 </i>
    <i name="pawaedc">   -626.87209802 </i>
    <i name="eentropy">      0.00000000 </i>
    <i name="bandstr">   -127.39264560 </i>
    <i name="atom">   2404.35655786 </i>
    <i name="e_fr_energy">    322.82062242 </i>
    <i name="e_wo_entrp">    322.82062242 </i>
    <i name="e_0_energy">    322.82062242 </i>
   </energy>
  </scstep>
  <scstep>
   <time name="dav">   35.61   71.25</time>
   <time name="total">   35.66   71.35</time>
   <energy>
    <i name="e_fr_energy">    -43.78378903 </i>
    <i name="e_wo_entrp">    -43.78378903 </i>
    <i name="e_0_energy">    -43.78378903 </i>
   </energy>
  </scstep>
  <scstep>
   <time name="dav">   33.88   67.77</time>
   <time name="total">   33.93   67.88</time>
   <energy>
    <i name="e_fr_energy">    -71.86271683 </i>
    <i name="e_wo_entrp">    -71.86271683 </i>
    <i name="e_0_energy">    -71.86271683 </i>
   </energy>
  </scstep>
  <scstep>
   <time name="dav">   42.01   84.04</time>
   <time name="total">   42.06   84.14</time>
   <energy>
    <i name="e_fr_energy">    -73.25644561 </i>
    <i name="e_wo_entrp">    -73.25644561 </i>
    <i name="e_0_energy">    -73.25644561 </i>
   </energy>
  </scstep>
  <scstep>
   <time name="dav">   37.63   75.26</time>
   <time name="total">   38.91   77.84</time>
   <energy>
    <i name="e_fr_energy">    -73.28807874 </i>
    <i name="e_wo_entrp">    -73.28807874 </i>
    <i name="e_0_energy">    -73.28807874 </i>
   </energy>
  </scstep>
  <scstep>
   <time name="dav">   35.76   71.53</time>
   <time name="total">   37.29   74.60</time>
   <energy>
    <i name="e_fr_energy">    -74.97861669 </i>
    <i name="e_wo_entrp">    -74.97861669 </i>
    <i name="e_0_energy">    -74.97861669 </i>
   </energy>
  </scstep>
  <scstep>
   <time name="dav">   37.56   75.13</time>
   <time name="total">   39.11   78.25</time>
   <energy>
    <i name="e_fr_energy">    -71.47178401 </i>
    <i name="e_wo_entrp">    -71.47178401 </i>
    <i name="e_0_energy">    -71.47178401 </i>
   </energy>
  </scstep>
  <scstep>
   <time name="dav">   30.27   50.37</time>
   <time name="total">   31.77   52.16</time>
   <energy>
    <i name="e_fr_energy">    -70.74254548 </i>
    <i name="e_wo_entrp">    -70.74254548 </i>
    <i name="e_0_energy">    -70.74254548 </i>
   </energy>
  </scstep>
  <scstep>
   <time name="dav">   26.69   26.70</time>
   <time name="total">   28.20   28.21</time>
   <energy>
    <i name="e_fr_energy">    -70.78757956 </i>
    <i name="e_wo_entrp">    -70.78757956 </i>
    <i name="e_0_energy">    -70.78757956 </i>
   </energy>
  </scstep>
  <scstep>
   <time name="dav">   26.08   26.09</time>
   <time name="total">   27.59   27.61</time>
   <energy>
    <i name="e_fr_energy">    -70.51661336 </i>
    <i name="e_wo_entrp">    -70.51661336 </i>
    <i name="e_0_energy">    -70.51661336 </i>
   </energy>
  </scstep>
  <scstep>
   <time name="dav">   28.82   28.82</time>
   <time name="total">   30.35   30.36</time>
   <energy>
    <i name="e_fr_energy">    -70.45847635 </i>
    <i name="e_wo_entrp">    -70.45847635 </i>
    <i name="e_0_energy">    -70.45847635 </i>
   </energy>
  </scstep>
  <scstep>
   <time name="dav">   26.00   26.00</time>
   <time name="total">   27.69   27.69</time>
   <energy>
    <i name="e_fr_energy">    -70.45664323 </i>
    <i name="e_wo_entrp">    -70.45664323 </i>
    <i name="e_0_energy">    -70.45664323 </i>
   </energy>
  </scstep>
  <scstep>
   <time name="dav">   26.46   26.47</time>
   <time name="total">   27.97   27.98</time>
   <energy>
    <i name="e_fr_energy">    -70.45690864 </i>
    <i name="e_wo_entrp">    -70.45690864 </i>
    <i name="e_0_energy">    -70.45690864 </i>
   </energy>
  </scstep>
  <scstep>
   <time name="dav">   27.24   27.24</time>
   <time name="total">   28.82   28.83</time>
   <energy>
    <i name="e_fr_energy">    -70.45710570 </i>
    <i name="e_wo_entrp">    -70.45710570 </i>
    <i name="e_0_energy">    -70.45710570 </i>
   </energy>
  </scstep>
  <scstep>
   <time name="dav">   24.73   24.73</time>
   <time name="total">   26.22   26.23</time>
   <energy>
    <i name="e_fr_energy">    -70.45702969 </i>
    <i name="e_wo_entrp">    -70.45702969 </i>
    <i name="e_0_energy">    -70.45702969 </i>
   </energy>
  </scstep>
  <scstep>
   <time name="dav">   23.96   23.97</time>
   <time name="total">   25.45   25.46</time>
   <energy>
    <i name="e_fr_energy">    -70.45710536 </i>
    <i name="e_wo_entrp">    -70.45710536 </i>
    <i name="e_0_energy">    -70.45710536 </i>
   </energy>
  </scstep>
  <scstep>
   <time name="dav">   24.33   24.34</time>
   <time name="total">   25.81   25.83</time>
   <energy>
    <i name="e_fr_energy">    -70.45712208 </i>
    <i name="e_wo_entrp">    -70.45712208 </i>
    <i name="e_0_energy">    -70.45712208 </i>
   </energy>
  </scstep>
  <scstep>
   <time name="dav">   24.67   24.68</time>
   <time name="total">   26.58   26.59</time>
   <energy>
    <i name="e_fr_energy">    -70.45713495 </i>
    <i name="e_wo_entrp">    -70.45713495 </i>
    <i name="e_0_energy">    -70.45713495 </i>
   </energy>
  </scstep>
  <scstep>
   <time name="dav">   23.23   23.24</time>
   <time name="total">   24.93   24.94</time>
   <energy>
    <i name="e_fr_energy">    -70.45714140 </i>
    <i name="e_wo_entrp">    -70.45714140 </i>
    <i name="e_0_energy">    -70.45714140 </i>
   </energy>
  </scstep>
  <scstep>
   <time name="dav">   16.99   17.00</time>
   <time name="total">   17.30   17.31</time>
   <energy>
    <i name="alphaZ">     92.85882409 </i>
    <i name="ewald">  -1496.10549544 </i>
    <i name="hartreedc">   -804.71457902 </i>
    <i name="XCdc">    221.54466352 </i>
    <i name="pawpsdc">    831.36504058 </i>
    <i name="pawaedc">   -850.37195644 </i>
    <i name="eentropy">      0.00000000 </i>
    <i name="bandstr">   -469.39019699 </i>
    <i name="atom">   2404.35655786 </i>
    <i name="e_fr_energy">    -70.45714185 </i>
    <i name="e_wo_entrp">    -70.45714185 </i>
    <i name="e_0_energy">    -70.45714185 </i>
   </energy>
  </scstep>
  <structure>
   <crystal>
    <varray name="basis" >
     <v>       6.26417858       0.00000000       0.00000000 </v>
     <v>       0.00000000       6.26417858       0.00000000 </v>
     <v>       0.00000000       0.00000000       6.26417858 </v>
    </varray>
    <i name="volume">    245.80594912 </i>
    <varray name="rec_basis" >
     <v>       0.15963785       0.00000000       0.00000000 </v>
     <v>       0.00000000       0.15963785       0.00000000 </v>
     <v>       0.00000000       0.00000000       0.15963785 </v>
    </varray>
   </crystal>
   <varray name="positions" >
    <v>       0.45587999       0.83459997       0.53931999 </v>
    <v>       0.45587999       0.04190000       0.33202001 </v>
    <v>       0.45587999       0.11777000       0.61519998 </v>
    <v>       0.69524998       0.99809003       0.49551001 </v>
    <v>       0.60030001       0.52968001       0.15026000 </v>
    <v>       0.54931998       0.63409001       0.89600998 </v>
    <v>       0.56970000       0.35765001       0.93207002 </v>
    <v>       0.34876001       0.49586999       0.03313000 </v>
    <v>       0.08223999       0.01558006       0.15304001 </v>
    <v>       0.03126001       0.11998999       0.89879000 </v>
    <v>       0.05164003       0.84355003       0.93484998 </v>
    <v>       0.83069998       0.98176998       0.03591000 </v>
    <v>       0.07562006       0.53223002       0.66030997 </v>
    <v>       0.02463996       0.63664001       0.40605000 </v>
    <v>       0.04501998       0.36019999       0.44211999 </v>
    <v>       0.82406998       0.49842000       0.54316997 </v>
    <v>       0.51572001       0.99809003       0.49551001 </v>
    <v>       0.51703000       0.50432998       0.00287000 </v>
    <v>       0.99896002       0.99023002       0.00565000 </v>
    <v>       0.99234003       0.50687998       0.51292002 </v>
   </varray>
  </structure>
  <varray name="forces" >
   <v>      -0.96521347      -3.14125186       1.70875272 </v>
   <v>      -1.94031107       1.31914077      -3.18952016 </v>
   <v>      -1.18167958       2.08640684       1.89260700 </v>
   <v>       3.69422319      -0.16461551       0.03761241 </v>
   <v>       2.84523568       0.52740732       4.47646828 </v>
   <v>       1.01265820       3.93548372      -3.70694986 </v>
   <v>       1.46001611      -4.33056336      -2.50880781 </v>
   <v>      -4.97349591      -0.17425514       0.26507965 </v>
   <v>       2.51241132       0.56315752       4.63948105 </v>
   <v>       1.55550182       3.50579170      -3.27998122 </v>
   <v>       1.39409086      -3.94599678      -2.26397273 </v>
   <v>      -5.27850148      -0.72808944       1.49833951 </v>
   <v>       2.04240253       1.54191960       4.58137706 </v>
   <v>       1.50935008       3.97709407      -3.02880861 </v>
   <v>       1.40531324      -4.56078943      -2.21551292 </v>
   <v>      -4.98092223      -0.53355292       1.11298685 </v>
   <v>       0.01870606       0.05307263       0.17038998 </v>
   <v>      -0.10059171      -0.02099810       0.12997720 </v>
   <v>       0.01842988       0.00563114      -0.27283580 </v>
   <v>      -0.04762351       0.08500724      -0.04668259 </v>
  </varray>
  <varray name="stress" >
   <v>     102.29612685       5.75238844      -3.74906207 </v>
   <v>       5.75238842      78.61787063     -24.53923996 </v>
   <v>      -3.74906212     -24.53923995      82.18215833 </v>
  </varray>
  <energy>
   <i name="e_fr_energy">    -71.84552218 </i>
   <i name="e_wo_entrp">    -71.84552218 </i>
   <i name="e_0_energy">      0.00000000 </i>
  </energy>
  <time name="totalsc">  626.97  905.95</time>
 </calculation>
 <calculation>
  <scstep>
   <time name="dav">   21.14   21.15</time>
   <time name="total">   22.68   22.69</time>
   <energy>
    <i name="alphaZ">     92.85882409 </i>
    <i name="ewald">  -1906.91646157 </i>
    <i name="hartreedc">   -526.84153462 </i>
    <i name="XCdc">    212.62993257 </i>
    <i name="pawpsdc">    831.34975252 </i>
    <i name="pawaedc">   -850.35667397 </i>
    <i name="eentropy">      0.00000000 </i>
    <i name="bandstr">   -326.16842099 </i>
    <i name="atom">   2404.35655786 </i>
    <i name="e_fr_energy">    -69.08802412 </i>
    <i name="e_wo_entrp">    -69.08802412 </i>
    <i name="e_0_energy">    -69.08802412 </i>
   </energy>
  </scstep>
  <scstep>
   <time name="dav">   27.60   27.62</time>
   <time name="total">   29.10   29.12</time>
   <energy>
    <i name="e_fr_energy">    -77.64583112 </i>
    <i name="e_wo_entrp">    -77.64583112 </i>
    <i name="e_0_energy">    -77.64583112 </i>
   </energy>
  </scstep>
  <scstep>
   <time name="dav">   28.76   28.78</time>
   <time name="total">   30.25   30.26</time>
   <energy>
    <i name="e_fr_energy">    -77.16195984 </i>
    <i name="e_wo_entrp">    -77.16195984 </i>
    <i name="e_0_energy">    -77.16195984 </i>
   </energy>
  </scstep>
  <scstep>
   <time name="dav">   29.53   29.54</time>
   <time name="total">   31.20   31.21</time>
   <energy>
    <i name="e_fr_energy">    -76.97803598 </i>
    <i name="e_wo_entrp">    -76.97803598 </i>
    <i name="e_0_energy">    -76.97803598 </i>
   </energy>
  </scstep>
  <scstep>
   <time name="dav">   28.07   28.08</time>
   <time name="total">   29.56   29.57</time>
   <energy>
    <i name="e_fr_energy">    -76.95891545 </i>
    <i name="e_wo_entrp">    -76.95891545 </i>
    <i name="e_0_energy">    -76.95891545 </i>
   </energy>
  </scstep>
  <scstep>
   <time name="dav">   28.07   28.08</time>
   <time name="total">   29.75   29.76</time>
   <energy>
    <i name="e_fr_energy">    -76.94937075 </i>
    <i name="e_wo_entrp">    -76.94937075 </i>
    <i name="e_0_energy">    -76.94937075 </i>
   </energy>
  </scstep>
  <scstep>
   <time name="dav">   29.51   29.52</time>
   <time name="total">   31.00   31.01</time>
   <energy>
    <i name="e_fr_energy">    -76.94618295 </i>
    <i name="e_wo_entrp">    -76.94618295 </i>
    <i name="e_0_energy">    -76.94618295 </i>
   </energy>
  </scstep>
  <scstep>
   <time name="dav">   29.50   29.50</time>
   <time name="total">   31.20   31.21</time>
   <energy>
    <i name="e_fr_energy">    -76.94646063 </i>
    <i name="e_wo_entrp">    -76.94646063 </i>
    <i name="e_0_energy">    -76.94646063 </i>
   </energy>
  </scstep>
  <scstep>
   <time name="dav">   28.44   28.45</time>
   <time name="total">   29.91   29.93</time>
   <energy>
    <i name="e_fr_energy">    -76.94644914 </i>
    <i name="e_wo_entrp">    -76.94644914 </i>
    <i name="e_0_energy">    -76.94644914 </i>
   </energy>
  </scstep>
  <scstep>
   <time name="dav">   29.38   29.39</time>
   <time name="total">   31.08   31.09</time>
   <energy>
    <i name="e_fr_energy">    -76.94635778 </i>
    <i name="e_wo_entrp">    -76.94635778 </i>
    <i name="e_0_energy">    -76.94635778 </i>
   </energy>
  </scstep>
  <scstep>
   <time name="dav">   27.60   27.61</time>
   <time name="total">   29.08   29.09</time>
   <energy>
    <i name="e_fr_energy">    -76.94634113 </i>
    <i name="e_wo_entrp">    -76.94634113 </i>
    <i name="e_0_energy">    -76.94634113 </i>
   </energy>
  </scstep>
  <scstep>
   <time name="dav">   28.04   28.04</time>
   <time name="total">   29.49   29.50</time>
   <energy>
    <i name="e_fr_energy">    -76.94636505 </i>
    <i name="e_wo_entrp">    -76.94636505 </i>
    <i name="e_0_energy">    -76.94636505 </i>
   </energy>
  </scstep>
  <scstep>
   <time name="dav">   29.39   29.41</time>
   <time name="total">   30.89   30.91</time>
   <energy>
    <i name="e_fr_energy">    -76.94638911 </i>
    <i name="e_wo_entrp">    -76.94638911 </i>
    <i name="e_0_energy">    -76.94638911 </i>
   </energy>
  </scstep>
  <scstep>
   <time name="dav">   23.40   23.41</time>
   <time name="total">   24.88   24.89</time>
   <energy>
    <i name="e_fr_energy">    -76.94638025 </i>
    <i name="e_wo_entrp">    -76.94638025 </i>
    <i name="e_0_energy">    -76.94638025 </i>
   </energy>
  </scstep>
  <scstep>
   <time name="dav">   16.85   16.85</time>
   <time name="total">   17.16   17.16</time>
   <energy>
    <i name="alphaZ">     92.85882409 </i>
    <i name="ewald">  -1906.91646157 </i>
    <i name="hartreedc">   -491.33804614 </i>
    <i name="XCdc">    209.57177819 </i>
    <i name="pawpsdc">    662.73078798 </i>
    <i name="pawaedc">   -680.80142706 </i>
    <i name="eentropy">      0.00000000 </i>
    <i name="bandstr">   -367.40839263 </i>
    <i name="atom">   2404.35655786 </i>
    <i name="e_fr_energy">    -76.94637928 </i>
    <i name="e_wo_entrp">    -76.94637928 </i>
    <i name="e_0_energy">    -76.94637928 </i>
   </energy>
  </scstep>
  <structure>
   <crystal>
    <varray name="basis" >
     <v>       6.26417858       0.00000000       0.00000000 </v>
     <v>       0.00000000       6.26417858       0.00000000 </v>
     <v>       0.00000000       0.00000000       6.26417858 </v>
    </varray>
    <i name="volume">    245.80594912 </i>
    <varray name="rec_basis" >
     <v>       0.15963785       0.00000000       0.00000000 </v>
     <v>       0.00000000       0.15963785       0.00000000 </v>
     <v>       0.00000000       0.00000000       0.15963785 </v>
    </varray>
   </crystal>
   <varray name="positions" >
    <v>       0.44844654       0.81040808       0.55247970 </v>
    <v>       0.44093696       0.05205917       0.30745639 </v>
    <v>       0.44677945       0.13383816       0.62977562 </v>
    <v>       0.72370049       0.99682227       0.49579968 </v>
    <v>       0.62221218       0.53374176       0.18473487 </v>
    <v>       0.55711882       0.66439856       0.86746145 </v>
    <v>       0.58094410       0.32429881       0.91274880 </v>
    <v>       0.31045736       0.49452799       0.03517147 </v>
    <v>       0.10158895       0.01991713       0.18877029 </v>
    <v>       0.04323948       0.14698933       0.87352971 </v>
    <v>       0.06237642       0.81316051       0.91741432 </v>
    <v>       0.79004837       0.97616270       0.04744924 </v>
    <v>       0.09134932       0.54410489       0.69559277 </v>
    <v>       0.03626400       0.66726902       0.38272407 </v>
    <v>       0.05584280       0.32507574       0.42505754 </v>
    <v>       0.78571013       0.49431092       0.55174148 </v>
    <v>       0.51586407       0.99849876       0.49682225 </v>
    <v>       0.51625531       0.50416827       0.00387100 </v>
    <v>       0.99910195       0.99027339       0.00354879 </v>
    <v>       0.99197326       0.50753466       0.51256050 </v>
   </varray>
  </structure>
  <varray name="forces" >
   <v>       0.31822902      -0.17597668       1.28209716 </v>
   <v>      -0.75790515       0.64779102      -0.09371219 </v>
   <v>      -0.12211086      -0.07432250      -0.00560230 </v>
   <v>      -0.15426438      -0.14220736      -0.11714684 </v>
   <v>       0.22409481       0.05522561       0.49345528 </v>
   <v>       0.39616197       0.61541580      -0.98765547 </v>
   <v>       0.11802560      -0.79764450      -0.89010395 </v>
   <v>      -0.39243526       0.09736005      -0.34291844 </v>
   <v>       0.79016629       0.27299645       1.14987589 </v>
   <v>       0.55318373      -0.51927977      -0.15941112 </v>
   <v>       0.13886430      -0.55000266      -1.01440487 </v>
   <v>      -0.94738146      -0.48036985       0.19279577 </v>
   <v>      -0.03300854       1.47741580       1.17070034 </v>
   <v>       0.50165266       0.09250878       0.07082981 </v>
   <v>      -0.04281547      -0.53599187      -0.44137621 </v>
   <v>      -0.58617404      -0.21811426      -0.09563994 </v>
   <v>       0.23818878      -0.11106821      -0.25555792 </v>
   <v>      -0.07168926       0.08434068       0.23738441 </v>
   <v>      -0.15046512       0.22978648      -0.11650736 </v>
   <v>      -0.02031761       0.03213698      -0.07710205 </v>
  </varray>
  <varray name="stress" >
   <v>     -97.83870883       7.38732125     -13.58695414 </v>
   <v>       7.38732124    -128.09419003     -23.99438387 </v>
   <v>     -13.58695410     -23.99438388    -124.47483849 </v>
  </varray>
  <energy>
   <i name="e_fr_energy">    -79.19325986 </i>
   <i name="e_wo_entrp">    -79.19325986 </i>
   <i name="e_0_energy">      0.00000000 </i>
  </energy>
  <time name="totalsc">  447.19  447.38</time>
 </calculation>
 <calculation>
  <scstep>
   <time name="dav">   21.21   21.22</time>
   <time name="total">   22.88   22.90</time>
   <energy>
    <i name="alphaZ">     92.85882409 </i>
    <i name="ewald">  -1946.45087608 </i>
    <i name="hartreedc">   -463.71078725 </i>
    <i name="XCdc">    208.70239252 </i>
    <i name="pawpsdc">    662.75186931 </i>
    <i name="pawaedc">   -680.82256799 </i>
    <i name="eentropy">      0.00000000 </i>
    <i name="bandstr">   -354.57711943 </i>
    <i name="atom">   2404.35655786 </i>
    <i name="e_fr_energy">    -76.89170697 </i>
    <i name="e_wo_entrp">    -76.89170697 </i>
    <i name="e_0_energy">    -76.89170697 </i>
   </energy>
  </scstep>
  <scstep>
   <time name="dav">   28.17   28.17</time>
   <time name="total">   29.64   29.65</time>
   <energy>
    <i name="e_fr_energy">    -77.01824144 </i>
    <i name="e_wo_entrp">    -77.01824144 </i>
    <i name="e_0_energy">    -77.01824144 </i>
   </energy>
  </scstep>
  <scstep>
   <time name="dav">   32.66   32.69</time>
   <time name="total">   34.16   34.19</time>
   <energy>
    <i name="e_fr_energy">    -77.01848200 </i>
    <i name="e_wo_entrp">    -77.01848200 </i>
    <i name="e_0_energy">    -77.01848200 </i>
   </energy>
  </scstep>
  <scstep>
   <time name="dav">   28.25   28.26</time>
   <time name="total">   29.73   29.74</time>
   <energy>
    <i name="e_fr_energy">    -77.01416287 </i>
    <i name="e_wo_entrp">    -77.01416287 </i>
    <i name="e_0_energy">    -77.01416287 </i>
   </energy>
  </scstep>
  <scstep>
   <time name="dav">   29.63   29.65</time>
   <time name="total">   31.12   31.13</time>
   <energy>
    <i name="e_fr_energy">    -77.01429262 </i>
    <i name="e_wo_entrp">    -77.01429262 </i>
    <i name="e_0_energy">    -77.01429262 </i>
   </energy>
  </scstep>
  <scstep>
   <time name="dav">   28.59   28.59</time>
   <time name="total">   30.33   30.34</time>
   <energy>
    <i name="e_fr_energy">    -77.01390850 </i>
    <i name="e_wo_entrp">    -77.01390850 </i>
    <i name="e_0_energy">    -77.01390850 </i>
   </energy>
  </scstep>
  <scstep>
   <time name="dav">   32.10   32.11</time>
   <time name="total">   33.65   33.66</time>
   <energy>
    <i name="e_fr_energy">    -77.01392862 </i>
    <i name="e_wo_entrp">    -77.01392862 </i>
    <i name="e_0_energy">    -77.01392862 </i>
   </energy>
  </scstep>
  <scstep>
   <time name="dav">   28.90   28.91</time>
   <time name="total">   30.39   30.40</time>
   <energy>
    <i name="e_fr_energy">    -77.01391530 </i>
    <i name="e_wo_entrp">    -77.01391530 </i>
    <i name="e_0_energy">    -77.01391530 </i>
   </energy>
  </scstep>
  <scstep>
   <time name="dav">   27.22   27.23</time>
   <time name="total">   28.93   28.94</time>
   <energy>
    <i name="e_fr_energy">    -77.01394748 </i>
    <i name="e_wo_entrp">    -77.01394748 </i>
    <i name="e_0_energy">    -77.01394748 </i>
   </energy>
  </scstep>
  <scstep>
   <time name="dav">   24.35   24.36</time>
   <time name="total">   25.85   25.86</time>
   <energy>
    <i name="e_fr_energy">    -77.01394088 </i>
    <i name="e_wo_entrp">    -77.01394088 </i>
    <i name="e_0_energy">    -77.01394088 </i>
   </energy>
  </scstep>
  <scstep>
   <time name="dav">   17.55   17.55</time>
   <time name="total">   19.28   19.29</time>
   <energy>
    <i name="e_fr_energy">    -77.01393971 </i>
    <i name="e_wo_entrp">    -77.01393971 </i>
    <i name="e_0_energy">    -77.01393971 </i>
   </energy>
  </scstep>
  <scstep>
   <time name="dav">   17.75   17.75</time>
   <time name="total">   18.07   18.07</time>
   <energy>
    <i name="alphaZ">     92.85882409 </i>
    <i name="ewald">  -1946.45087608 </i>
    <i name="hartreedc">   -460.25808254 </i>
    <i name="XCdc">    208.33657774 </i>
    <i name="pawpsdc">    649.96488852 </i>
    <i name="pawaedc">   -667.97704209 </i>
    <i name="eentropy">      0.00000000 </i>
    <i name="bandstr">   -357.84478716 </i>
    <i name="atom">   2404.35655786 </i>
    <i name="e_fr_energy">    -77.01393966 </i>
    <i name="e_wo_entrp">    -77.01393966 </i>
    <i name="e_0_energy">    -77.01393966 </i>
   </energy>
  </scstep>
  <structure>
   <crystal>
    <varray name="basis" >
     <v>       6.26417858       0.00000000       0.00000000 </v>
     <v>       0.00000000       6.26417858       0.00000000 </v>
     <v>       0.00000000       0.00000000       6.26417858 </v>
    </varray>
    <i name="volume">    245.80594912 </i>
    <varray name="rec_basis" >
     <v>       0.15963785       0.00000000       0.00000000 </v>
     <v>       0.00000000       0.15963785       0.00000000 </v>
     <v>       0.00000000       0.00000000       0.15963785 </v>
    </varray>
   </crystal>
   <varray name="positions" >
    <v>       0.44721944       0.80641456       0.55465207 </v>
    <v>       0.43847022       0.05373622       0.30340150 </v>
    <v>       0.44527717       0.13649064       0.63218172 </v>
    <v>       0.72839702       0.99661299       0.49584750 </v>
    <v>       0.62582937       0.53441227       0.19042587 </v>
    <v>       0.55840623       0.66940180       0.86274875 </v>
    <v>       0.58280025       0.31879330       0.90955931 </v>
    <v>       0.30413447       0.49430646       0.03550847 </v>
    <v>       0.10478302       0.02063308       0.19466854 </v>
    <v>       0.04521702       0.15144630       0.86935981 </v>
    <v>       0.06414875       0.80814390       0.91453610 </v>
    <v>       0.78333773       0.97523707       0.04935410 </v>
    <v>       0.09394586       0.54606516       0.70141715 </v>
    <v>       0.03818286       0.67232516       0.37887350 </v>
    <v>       0.05762940       0.31927753       0.42224092 </v>
    <v>       0.77937781       0.49363261       0.55315644 </v>
    <v>       0.51588785       0.99856623       0.49703887 </v>
    <v>       0.51612742       0.50414157       0.00403624 </v>
    <v>       0.99912538       0.99028055       0.00320193 </v>
    <v>       0.99191272       0.50764273       0.51250115 </v>
   </varray>
  </structure>
  <varray name="forces" >
   <v>       0.30069263      -0.37969517       1.46743376 </v>
   <v>      -0.86590024       0.64204424      -0.37939795 </v>
   <v>      -0.06156493       0.02597329       0.20444400 </v>
   <v>       0.00922409      -0.10040957      -0.15572654 </v>
   <v>      -0.02020288      -0.01194142       0.12951896 </v>
   <v>       0.30090591       0.41885387      -0.83046788 </v>
   <v>       0.01695173      -0.70364646      -0.82879032 </v>
   <v>      -0.03196208       0.17197794      -0.41282389 </v>
   <v>       0.81390610       0.47368559       1.27255074 </v>
   <v>       0.36086287      -0.74027331       0.14088428 </v>
   <v>       0.12769077      -0.72235573      -1.10648330 </v>
   <v>      -0.43701587      -0.34707134      -0.06453505 </v>
   <v>       0.02498591       1.54442645       1.32246182 </v>
   <v>       0.32792970      -0.27111149       0.27211953 </v>
   <v>      -0.20165065      -0.21602444      -0.33395262 </v>
   <v>      -0.27439924      -0.14777852      -0.44184970 </v>
   <v>       0.23655941      -0.07797245      -0.10102058 </v>
   <v>      -0.05490139       0.17033280       0.35395380 </v>
   <v>      -0.44419875       0.32056700      -0.17048364 </v>
   <v>      -0.12791308      -0.04958127      -0.33783543 </v>
  </varray>
  <varray name="stress" >
   <v>    -122.95722580       7.06297439     -13.22952194 </v>
   <v>       7.06297439    -153.49008367     -20.80461867 </v>
   <v>     -13.22952192     -20.80461871    -150.22069496 </v>
  </varray>
  <energy>
   <i name="e_fr_energy">    -79.60441152 </i>
   <i name="e_wo_entrp">    -79.60441152 </i>
   <i name="e_0_energy">      0.00000000 </i>
  </energy>
  <time name="totalsc">  354.31  354.49</time>
 </calculation>
 <calculation>
  <scstep>
   <time name="dav">   22.01   22.02</time>
   <time name="total">   23.54   23.55</time>
   <energy>
    <i name="alphaZ">     92.85882409 </i>
    <i name="ewald">  -2006.54825169 </i>
    <i name="hartreedc">   -417.95535966 </i>
    <i name="XCdc">    207.00912486 </i>
    <i name="pawpsdc">    649.96466159 </i>
    <i name="pawaedc">   -667.97684694 </i>
    <i name="eentropy">      0.00000000 </i>
    <i name="bandstr">   -338.45600912 </i>
    <i name="atom">   2404.35655786 </i>
    <i name="e_fr_energy">    -76.74729901 </i>
    <i name="e_wo_entrp">    -76.74729901 </i>
    <i name="e_0_energy">    -76.74729901 </i>
   </energy>
  </scstep>
  <scstep>
   <time name="dav">   29.86   29.87</time>
   <time name="total">   31.37   31.38</time>
   <energy>
    <i name="e_fr_energy">    -77.28844185 </i>
    <i name="e_wo_entrp">    -77.28844185 </i>
    <i name="e_0_energy">    -77.28844185 </i>
   </energy>
  </scstep>
  <scstep>
   <time name="dav">   32.31   32.32</time>
   <time name="total">   33.81   33.82</time>
   <energy>
    <i name="e_fr_energy">    -77.28722846 </i>
    <i name="e_wo_entrp">    -77.28722846 </i>
    <i name="e_0_energy">    -77.28722846 </i>
   </energy>
  </scstep>
  <scstep>
   <time name="dav">   30.84   30.85</time>
   <time name="total">   32.55   32.56</time>
   <energy>
    <i name="e_fr_energy">    -77.27830357 </i>
    <i name="e_wo_entrp">    -77.27830357 </i>
    <i name="e_0_energy">    -77.27830357 </i>
   </energy>
  </scstep>
  <scstep>
   <time name="dav">   30.26   30.27</time>
   <time name="total">   32.20   32.22</time>
   <energy>
    <i name="e_fr_energy">    -77.27795605 </i>
    <i name="e_wo_entrp">    -77.27795605 </i>
    <i name="e_0_energy">    -77.27795605 </i>
   </energy>
  </scstep>
  <scstep>
   <time name="dav">   29.84   29.85</time>
   <time name="total">   31.53   31.54</time>
   <energy>
    <i name="e_fr_energy">    -77.27689984 </i>
    <i name="e_wo_entrp">    -77.27689984 </i>
    <i name="e_0_energy">    -77.27689984 </i>
   </energy>
  </scstep>
  <scstep>
   <time name="dav">   29.90   29.91</time>
   <time name="total">   31.40   31.42</time>
   <energy>
    <i name="e_fr_energy">    -77.27675976 </i>
    <i name="e_wo_entrp">    -77.27675976 </i>
    <i name="e_0_energy">    -77.27675976 </i>
   </energy>
  </scstep>
  <scstep>
   <time name="dav">   29.55   29.56</time>
   <time name="total">   31.48   31.49</time>
   <energy>
    <i name="e_fr_energy">    -77.27678019 </i>
    <i name="e_wo_entrp">    -77.27678019 </i>
    <i name="e_0_energy">    -77.27678019 </i>
   </energy>
  </scstep>
  <scstep>
   <time name="dav">   27.89   27.90</time>
   <time name="total">   29.35   29.36</time>
   <energy>
    <i name="e_fr_energy">    -77.27679288 </i>
    <i name="e_wo_entrp">    -77.27679288 </i>
    <i name="e_0_energy">    -77.27679288 </i>
   </energy>
  </scstep>
  <scstep>
   <time name="dav">   28.85   28.86</time>
   <time name="total">   30.31   30.32</time>
   <energy>
    <i name="e_fr_energy">    -77.27678044 </i>
    <i name="e_wo_entrp">    -77.27678044 </i>
    <i name="e_0_energy">    -77.27678044 </i>
   </energy>
  </scstep>
  <scstep>
   <time name="dav">   17.01   17.02</time>
   <time name="total">   18.53   18.53</time>
   <energy>
    <i name="e_fr_energy">    -77.27678830 </i>
    <i name="e_wo_entrp">    -77.27678830 </i>
    <i name="e_0_energy">    -77.27678830 </i>
   </energy>
  </scstep>
  <scstep>
   <time name="dav">   20.57   20.57</time>
   <time name="total">   20.88   20.88</time>
   <energy>
    <i name="alphaZ">     92.85882409 </i>
    <i name="ewald">  -2006.54825169 </i>
    <i name="hartreedc">   -413.29088357 </i>
    <i name="XCdc">    206.48123996 </i>
    <i name="pawpsdc">    632.18040806 </i>
    <i name="pawaedc">   -650.11476185 </i>
    <i name="eentropy">      0.00000000 </i>
    <i name="bandstr">   -343.19992099 </i>
    <i name="atom">   2404.35655786 </i>
    <i name="e_fr_energy">    -77.27678813 </i>
    <i name="e_wo_entrp">    -77.27678813 </i>
    <i name="e_0_energy">    -77.27678813 </i>
   </energy>
  </scstep>
  <structure>
   <crystal>
    <varray name="basis" >
     <v>       6.26417858       0.00000000       0.00000000 </v>
     <v>       0.00000000       6.26417858       0.00000000 </v>
     <v>       0.00000000       0.00000000       6.26417858 </v>
    </varray>
    <i name="volume">    245.80594912 </i>
    <varray name="rec_basis" >
     <v>       0.15963785       0.00000000       0.00000000 </v>
     <v>       0.00000000       0.15963785       0.00000000 </v>
     <v>       0.00000000       0.00000000       0.15963785 </v>
    </varray>
   </crystal>
   <varray name="positions" >
    <v>       0.44476526       0.79842751       0.55899680 </v>
    <v>       0.43353672       0.05709031       0.29529173 </v>
    <v>       0.44227259       0.14179561       0.63699392 </v>
    <v>       0.73779007       0.99619443       0.49594313 </v>
    <v>       0.63306376       0.53575327       0.20180788 </v>
    <v>       0.56098105       0.67940829       0.85332334 </v>
    <v>       0.58651253       0.30778227       0.90318034 </v>
    <v>       0.29148870       0.49386339       0.03618247 </v>
    <v>       0.11117116       0.02206499       0.20646503 </v>
    <v>       0.04917209       0.16036024       0.86102003 </v>
    <v>       0.06769341       0.79811068       0.90877965 </v>
    <v>       0.76991644       0.97338581       0.05316383 </v>
    <v>       0.09913894       0.54998569       0.71306591 </v>
    <v>       0.04202059       0.68243745       0.37117235 </v>
    <v>       0.06120259       0.30768112       0.41660769 </v>
    <v>       0.76671315       0.49227598       0.55598635 </v>
    <v>       0.51593542       0.99870118       0.49747210 </v>
    <v>       0.51587166       0.50408818       0.00436673 </v>
    <v>       0.99917224       0.99029487       0.00250821 </v>
    <v>       0.99179163       0.50785887       0.51238246 </v>
   </varray>
  </structure>
  <varray name="forces" >
   <v>       0.65241275      -0.37885594       1.78988818 </v>
   <v>      -1.06750035       0.29907771      -0.21274052 </v>
   <v>       0.19331873       0.22386867       0.62223968 </v>
   <v>      -0.76514222      -0.06246504      -0.28520690 </v>
   <v>       0.06265986      -0.04827105       0.38056110 </v>
   <v>       0.02199263       0.22783803      -1.01385414 </v>
   <v>      -0.30568794      -0.52768892      -0.84768294 </v>
   <v>       0.29530496       0.28685247      -0.73223040 </v>
   <v>       1.06579728       0.86094721       1.30317534 </v>
   <v>       0.25471686      -0.85108255       0.47086325 </v>
   <v>       0.26682052      -1.48081084      -1.47467005 </v>
   <v>      -0.33929145      -0.18261341      -0.31314155 </v>
   <v>      -0.12010539       2.00123722       1.68586797 </v>
   <v>       0.15578622      -0.27299596       0.30786841 </v>
   <v>      -0.20442391      -0.55865456      -0.39505937 </v>
   <v>      -0.00529479       0.07278888      -0.88067486 </v>
   <v>       0.59395267      -0.11012527      -0.25494916 </v>
   <v>      -0.18019938       0.08920980       0.08052052 </v>
   <v>      -0.31453451       0.45301553       0.04387205 </v>
   <v>      -0.26058254      -0.04127198      -0.27464662 </v>
  </varray>
  <varray name="stress" >
   <v>    -178.62495263       6.98702183     -20.97631444 </v>
   <v>       6.98702180    -204.03574366     -18.02798368 </v>
   <v>     -20.97631448     -18.02798368    -212.83741151 </v>
  </varray>
  <energy>
   <i name="e_fr_energy">    -80.14737665 </i>
   <i name="e_wo_entrp">    -80.14737665 </i>
   <i name="e_0_energy">      0.00000000 </i>
  </energy>
  <time name="totalsc">  367.01  367.15</time>
 </calculation>
 <calculation>
  <scstep>
   <time name="dav">   21.09   21.10</time>
   <time name="total">   22.57   22.57</time>
   <energy>
    <i name="alphaZ">     92.85882409 </i>
    <i name="ewald">  -2061.75058955 </i>
    <i name="hartreedc">   -374.69287540 </i>
    <i name="XCdc">    205.25577137 </i>
    <i name="pawpsdc">    632.18117003 </i>
    <i name="pawaedc">   -650.11560229 </i>
    <i name="eentropy">      0.00000000 </i>
    <i name="bandstr">   -325.31021532 </i>
    <i name="atom">   2404.35655786 </i>
    <i name="e_fr_energy">    -77.21695922 </i>
    <i name="e_wo_entrp">    -77.21695922 </i>
    <i name="e_0_energy">    -77.21695922 </i>
   </energy>
  </scstep>
  <scstep>
   <time name="dav">   27.17   27.17</time>
   <time name="total">   28.66   28.67</time>
   <energy>
    <i name="e_fr_energy">    -79.94167540 </i>
    <i name="e_wo_entrp">    -79.94167540 </i>
    <i name="e_0_energy">    -79.94167540 </i>
   </energy>
  </scstep>
  <scstep>
   <time name="dav">   30.92   30.93</time>
   <time name="total">   32.40   32.41</time>
   <energy>
    <i name="e_fr_energy">    -79.86943572 </i>
    <i name="e_wo_entrp">    -79.86943572 </i>
    <i name="e_0_energy">    -79.86943572 </i>
   </energy>
  </scstep>
  <scstep>
   <time name="dav">   29.33   29.34</time>
   <time name="total">   30.79   30.80</time>
   <energy>
    <i name="e_fr_energy">    -79.81247562 </i>
    <i name="e_wo_entrp">    -79.81247562 </i>
    <i name="e_0_energy">    -79.81247562 </i>
   </energy>
  </scstep>
  <scstep>
   <time name="dav">   26.88   26.88</time>
   <time name="total">   28.40   28.41</time>
   <energy>
    <i name="e_fr_energy">    -79.80233621 </i>
    <i name="e_wo_entrp">    -79.80233621 </i>
    <i name="e_0_energy">    -79.80233621 </i>
   </energy>
  </scstep>
  <scstep>
   <time name="dav">   28.26   28.27</time>
   <time name="total">   29.73   29.74</time>
   <energy>
    <i name="e_fr_energy">    -79.79870274 </i>
    <i name="e_wo_entrp">    -79.79870274 </i>
    <i name="e_0_energy">    -79.79870274 </i>
   </energy>
  </scstep>
  <scstep>
   <time name="dav">   29.57   29.59</time>
   <time name="total">   31.09   31.11</time>
   <energy>
    <i name="e_fr_energy">    -79.79860158 </i>
    <i name="e_wo_entrp">    -79.79860158 </i>
    <i name="e_0_energy">    -79.79860158 </i>
   </energy>
  </scstep>
  <scstep>
   <time name="dav">   31.19   31.20</time>
   <time name="total">   32.69   32.71</time>
   <energy>
    <i name="e_fr_energy">    -79.79847284 </i>
    <i name="e_wo_entrp">    -79.79847284 </i>
    <i name="e_0_energy">    -79.79847284 </i>
   </energy>
  </scstep>
  <scstep>
   <time name="dav">   29.21   29.22</time>
   <time name="total">   30.71   30.72</time>
   <energy>
    <i name="e_fr_energy">    -79.79844323 </i>
    <i name="e_wo_entrp">    -79.79844323 </i>
    <i name="e_0_energy">    -79.79844323 </i>
   </energy>
  </scstep>
  <scstep>
   <time name="dav">   29.39   29.40</time>
   <time name="total">   30.88   30.89</time>
   <energy>
    <i name="e_fr_energy">    -79.79843524 </i>
    <i name="e_wo_entrp">    -79.79843524 </i>
    <i name="e_0_energy">    -79.79843524 </i>
   </energy>
  </scstep>
  <scstep>
   <time name="dav">   29.97   29.99</time>
   <time name="total">   31.47   31.48</time>
   <energy>
    <i name="e_fr_energy">    -79.79843939 </i>
    <i name="e_wo_entrp">    -79.79843939 </i>
    <i name="e_0_energy">    -79.79843939 </i>
   </energy>
  </scstep>
  <scstep>
