<?xml version="1.0" encoding="ISO-8859-1"?>
<modeling>
 <generator>
  <i name="program" type="string">vasp </i>
  <i name="version" type="string">5.3.5  </i>
  <i name="subversion" type="string">31Mar14 (build Nov 02 2014 15:17:37) complex                          parallel </i>
  <i name="platform" type="string">ion-Intel-MKL </i>
  <i name="date" type="string">2017 05 08 </i>
  <i name="time" type="string">02:26:08 </i>
 </generator>
 <incar>
  <i type="string" name="SYSTEM">diamond</i>
  <i type="string" name="PREC">normal</i>
  <i type="string" name="ALGO"> Very Fast</i>
  <i type="int" name="NELM">   200</i>
  <i type="int" name="IBRION">     2</i>
  <i name="EDIFF">      0.00000100</i>
  <i name="EDIFFG">      0.00100000</i>
  <i type="int" name="NSW">   200</i>
  <i type="int" name="ISIF">     2</i>
  <i name="ENCUT">    600.00000000</i>
  <i type="int" name="ISMEAR">    -5</i>
  <i type="logical" name="LWAVE"> F  </i>
  <i type="logical" name="LCHARG"> F  </i>
  <i type="int" name="NELM">   200</i>
 </incar>
 <kpoints>
  <generation param="Gamma">
   <v type="int" name="divisions">       4        4        4 </v>
   <v name="usershift">      0.00000000       0.00000000       0.00000000 </v>
   <v name="genvec1">      0.25000000       0.00000000       0.00000000 </v>
   <v name="genvec2">      0.00000000       0.25000000       0.00000000 </v>
   <v name="genvec3">      0.00000000       0.00000000       0.25000000 </v>
   <v name="shift">      0.00000000       0.00000000       0.00000000 </v>
  </generation>
  <varray name="kpointlist" >
   <v>       0.00000000       0.00000000       0.00000000 </v>
   <v>       0.25000000       0.00000000       0.00000000 </v>
   <v>       0.50000000       0.00000000       0.00000000 </v>
   <v>       0.00000000       0.25000000       0.00000000 </v>
   <v>       0.25000000       0.25000000       0.00000000 </v>
   <v>       0.50000000       0.25000000       0.00000000 </v>
   <v>      -0.25000000       0.25000000       0.00000000 </v>
   <v>       0.00000000       0.50000000       0.00000000 </v>
   <v>       0.25000000       0.50000000       0.00000000 </v>
   <v>       0.50000000       0.50000000       0.00000000 </v>
   <v>       0.00000000       0.00000000       0.25000000 </v>
   <v>       0.25000000       0.00000000       0.25000000 </v>
   <v>       0.50000000       0.00000000       0.25000000 </v>
   <v>      -0.25000000       0.00000000       0.25000000 </v>
   <v>       0.00000000       0.25000000       0.25000000 </v>
   <v>       0.25000000       0.25000000       0.25000000 </v>
   <v>       0.50000000       0.25000000       0.25000000 </v>
   <v>      -0.25000000       0.25000000       0.25000000 </v>
   <v>       0.00000000       0.50000000       0.25000000 </v>
   <v>       0.25000000       0.50000000       0.25000000 </v>
   <v>       0.50000000       0.50000000       0.25000000 </v>
   <v>      -0.25000000       0.50000000       0.25000000 </v>
   <v>       0.00000000      -0.25000000       0.25000000 </v>
   <v>       0.25000000      -0.25000000       0.25000000 </v>
   <v>       0.50000000      -0.25000000       0.25000000 </v>
   <v>      -0.25000000      -0.25000000       0.25000000 </v>
   <v>       0.00000000       0.00000000       0.50000000 </v>
   <v>       0.25000000       0.00000000       0.50000000 </v>
   <v>       0.50000000       0.00000000       0.50000000 </v>
   <v>       0.00000000       0.25000000       0.50000000 </v>
   <v>       0.25000000       0.25000000       0.50000000 </v>
   <v>       0.50000000       0.25000000       0.50000000 </v>
   <v>      -0.25000000       0.25000000       0.50000000 </v>
   <v>       0.00000000       0.50000000       0.50000000 </v>
   <v>       0.25000000       0.50000000       0.50000000 </v>
   <v>       0.50000000       0.50000000       0.50000000 </v>
  </varray>
  <varray name="weights" >
   <v>       0.01562500 </v>
   <v>       0.03125000 </v>
   <v>       0.01562500 </v>
   <v>       0.03125000 </v>
   <v>       0.03125000 </v>
   <v>       0.03125000 </v>
   <v>       0.03125000 </v>
   <v>       0.01562500 </v>
   <v>       0.03125000 </v>
   <v>       0.01562500 </v>
   <v>       0.03125000 </v>
   <v>       0.03125000 </v>
   <v>       0.03125000 </v>
   <v>       0.03125000 </v>
   <v>       0.03125000 </v>
   <v>       0.03125000 </v>
   <v>       0.03125000 </v>
   <v>       0.03125000 </v>
   <v>       0.03125000 </v>
   <v>       0.03125000 </v>
   <v>       0.03125000 </v>
   <v>       0.03125000 </v>
   <v>       0.03125000 </v>
   <v>       0.03125000 </v>
   <v>       0.03125000 </v>
   <v>       0.03125000 </v>
   <v>       0.01562500 </v>
   <v>       0.03125000 </v>
   <v>       0.01562500 </v>
   <v>       0.03125000 </v>
   <v>       0.03125000 </v>
   <v>       0.03125000 </v>
   <v>       0.03125000 </v>
   <v>       0.01562500 </v>
   <v>       0.03125000 </v>
   <v>       0.01562500 </v>
  </varray>
  <varray name="tetrahedronlist"  type="int" >
   <v type="int" >        2        1        2        5       11 </v>
   <v type="int" >        2        1        4        5       11 </v>
   <v type="int" >        2        4        5       11       15 </v>
   <v type="int" >        2        2        5       11       12 </v>
   <v type="int" >        2        5       11       12       16 </v>
   <v type="int" >        2        5       11       15       16 </v>
   <v type="int" >        2        2        3        6       12 </v>
   <v type="int" >        2        2        5        6       12 </v>
   <v type="int" >        2        5        6       12       16 </v>
   <v type="int" >        2        3        6       12       13 </v>
   <v type="int" >        2        6       12       13       17 </v>
   <v type="int" >        2        6       12       16       17 </v>
   <v type="int" >        2        2        3        7       13 </v>
   <v type="int" >        2        3        6        7       13 </v>
   <v type="int" >        2        6        7       13       17 </v>
   <v type="int" >        2        2        7       13       14 </v>
   <v type="int" >        2        7       13       14       18 </v>
   <v type="int" >        2        7       13       17       18 </v>
   <v type="int" >        2        1        2        4       14 </v>
   <v type="int" >        2        2        4        7       14 </v>
   <v type="int" >        2        4        7       14       18 </v>
   <v type="int" >        2        1        4       11       14 </v>
   <v type="int" >        2        4       11       14       15 </v>
   <v type="int" >        2        4       14       15       18 </v>
   <v type="int" >        2        4        5        9       15 </v>
   <v type="int" >        2        4        8        9       15 </v>
   <v type="int" >        2        8        9       15       19 </v>
   <v type="int" >        2        5        9       15       16 </v>
   <v type="int" >        2        9       15       16       20 </v>
   <v type="int" >        2        9       15       19       20 </v>
   <v type="int" >        2        5        6       10       16 </v>
   <v type="int" >        2        5        9       10       16 </v>
   <v type="int" >        2        9       10       16       20 </v>
   <v type="int" >        2        6       10       16       17 </v>
   <v type="int" >        2       10       16       17       21 </v>
   <v type="int" >        2       10       16       20       21 </v>
   <v type="int" >        2        6        7        9       17 </v>
   <v type="int" >        2        6        9       10       17 </v>
   <v type="int" >        2        9       10       17       21 </v>
   <v type="int" >        2        7        9       17       18 </v>
   <v type="int" >        2        9       17       18       22 </v>
   <v type="int" >        2        9       17       21       22 </v>
   <v type="int" >        2        4        7        8       18 </v>
   <v type="int" >        2        7        8        9       18 </v>
   <v type="int" >        2        8        9       18       22 </v>
   <v type="int" >        2        4        8       15       18 </v>
   <v type="int" >        2        8       15       18       19 </v>
   <v type="int" >        2        8       18       19       22 </v>
   <v type="int" >        2        7        8        9       19 </v>
   <v type="int" >        2        4        7        8       19 </v>
   <v type="int" >        2        4        7       19       23 </v>
   <v type="int" >        2        7        9       19       20 </v>
   <v type="int" >        2        7       19       20       24 </v>
   <v type="int" >        2        7       19       23       24 </v>
   <v type="int" >        2        6        9       10       20 </v>
   <v type="int" >        2        6        7        9       20 </v>
   <v type="int" >        2        6        7       20       24 </v>
   <v type="int" >        2        6       10       20       21 </v>
   <v type="int" >        2        6       20       21       25 </v>
   <v type="int" >        2        6       20       24       25 </v>
   <v type="int" >        2        5        9       10       21 </v>
   <v type="int" >        2        5        6       10       21 </v>
   <v type="int" >        2        5        6       21       25 </v>
   <v type="int" >        2        5        9       21       22 </v>
   <v type="int" >        2        5       21       22       26 </v>
   <v type="int" >        2        5       21       25       26 </v>
   <v type="int" >        2        4        8        9       22 </v>
   <v type="int" >        2        4        5        9       22 </v>
   <v type="int" >        2        4        5       22       26 </v>
   <v type="int" >        2        4        8       19       22 </v>
   <v type="int" >        2        4       19       22       23 </v>
   <v type="int" >        2        4       22       23       26 </v>
   <v type="int" >        2        2        4        7       23 </v>
   <v type="int" >        2        1        2        4       23 </v>
   <v type="int" >        2        1        2       11       23 </v>
   <v type="int" >        2        2        7       23       24 </v>
   <v type="int" >        2        2       12       23       24 </v>
   <v type="int" >        2        2       11       12       23 </v>
   <v type="int" >        2        3        6        7       24 </v>
   <v type="int" >        2        2        3        7       24 </v>
   <v type="int" >        2        2        3       12       24 </v>
   <v type="int" >        2        3        6       24       25 </v>
   <v type="int" >        2        3       13       24       25 </v>
   <v type="int" >        2        3       12       13       24 </v>
   <v type="int" >        2        2        5        6       25 </v>
   <v type="int" >        2        2        3        6       25 </v>
   <v type="int" >        2        2        3       13       25 </v>
   <v type="int" >        2        2        5       25       26 </v>
   <v type="int" >        2        2       14       25       26 </v>
   <v type="int" >        2        2       13       14       25 </v>
   <v type="int" >        2        1        4        5       26 </v>
   <v type="int" >        2        1        2        5       26 </v>
   <v type="int" >        2        1        2       14       26 </v>
   <v type="int" >        2        1        4       23       26 </v>
   <v type="int" >        2        1       11       23       26 </v>
   <v type="int" >        2        1       11       14       26 </v>
   <v type="int" >        2       11       12       16       27 </v>
   <v type="int" >        2       11       15       16       27 </v>
   <v type="int" >        2       15       16       27       30 </v>
   <v type="int" >        2       12       16       27       28 </v>
   <v type="int" >        2       16       27       28       31 </v>
   <v type="int" >        2       16       27       30       31 </v>
   <v type="int" >        2       12       13       17       28 </v>
   <v type="int" >        2       12       16       17       28 </v>
   <v type="int" >        2       16       17       28       31 </v>
   <v type="int" >        2       13       17       28       29 </v>
   <v type="int" >        2       17       28       29       32 </v>
   <v type="int" >        2       17       28       31       32 </v>
   <v type="int" >        2       13       14       18       29 </v>
   <v type="int" >        2       13       17       18       29 </v>
   <v type="int" >        2       17       18       29       32 </v>
   <v type="int" >        2       14       18       28       29 </v>
   <v type="int" >        2       18       28       29       33 </v>
   <v type="int" >        2       18       29       32       33 </v>
   <v type="int" >        2       11       14       15       28 </v>
   <v type="int" >        2       14       15       18       28 </v>
   <v type="int" >        2       15       18       28       33 </v>
   <v type="int" >        2       11       15       27       28 </v>
   <v type="int" >        2       15       27       28       30 </v>
   <v type="int" >        2       15       28       30       33 </v>
   <v type="int" >        2       15       16       20       30 </v>
   <v type="int" >        2       15       19       20       30 </v>
   <v type="int" >        2       19       20       30       34 </v>
   <v type="int" >        2       16       20       30       31 </v>
   <v type="int" >        2       20       30       31       35 </v>
   <v type="int" >        2       20       30       34       35 </v>
   <v type="int" >        2       16       17       21       31 </v>
   <v type="int" >        2       16       20       21       31 </v>
   <v type="int" >        2       20       21       31       35 </v>
   <v type="int" >        2       17       21       31       32 </v>
   <v type="int" >        2       21       31       32       36 </v>
   <v type="int" >        2       21       31       35       36 </v>
   <v type="int" >        2       17       18       22       32 </v>
   <v type="int" >        2       17       21       22       32 </v>
   <v type="int" >        2       21       22       32       36 </v>
   <v type="int" >        2       18       22       32       33 </v>
   <v type="int" >        2       22       32       33       35 </v>
   <v type="int" >        2       22       32       35       36 </v>
   <v type="int" >        2       15       18       19       33 </v>
   <v type="int" >        2       18       19       22       33 </v>
   <v type="int" >        2       19       22       33       35 </v>
   <v type="int" >        2       15       19       30       33 </v>
   <v type="int" >        2       19       30       33       34 </v>
   <v type="int" >        2       19       33       34       35 </v>
   <v type="int" >        2       19       20       24       34 </v>
   <v type="int" >        2       19       23       24       34 </v>
   <v type="int" >        2       23       24       30       34 </v>
   <v type="int" >        2       20       24       34       35 </v>
   <v type="int" >        2       24       33       34       35 </v>
   <v type="int" >        2       24       30       33       34 </v>
   <v type="int" >        2       20       21       25       35 </v>
   <v type="int" >        2       20       24       25       35 </v>
   <v type="int" >        2       24       25       33       35 </v>
   <v type="int" >        2       21       25       35       36 </v>
   <v type="int" >        2       25       32       35       36 </v>
   <v type="int" >        2       25       32       33       35 </v>
   <v type="int" >        2       21       22       26       36 </v>
   <v type="int" >        2       21       25       26       36 </v>
   <v type="int" >        2       25       26       32       36 </v>
   <v type="int" >        2       22       26       35       36 </v>
   <v type="int" >        2       26       31       35       36 </v>
   <v type="int" >        2       26       31       32       36 </v>
   <v type="int" >        2       19       22       23       35 </v>
   <v type="int" >        2       22       23       26       35 </v>
   <v type="int" >        2       23       26       31       35 </v>
   <v type="int" >        2       19       23       34       35 </v>
   <v type="int" >        2       23       30       34       35 </v>
   <v type="int" >        2       23       30       31       35 </v>
   <v type="int" >        2       12       23       24       30 </v>
   <v type="int" >        2       11       12       23       30 </v>
   <v type="int" >        2       11       12       27       30 </v>
   <v type="int" >        2       12       24       30       33 </v>
   <v type="int" >        2       12       28       30       33 </v>
   <v type="int" >        2       12       27       28       30 </v>
   <v type="int" >        2       13       24       25       33 </v>
   <v type="int" >        2       12       13       24       33 </v>
   <v type="int" >        2       12       13       28       33 </v>
   <v type="int" >        2       13       25       32       33 </v>
   <v type="int" >        2       13       29       32       33 </v>
   <v type="int" >        2       13       28       29       33 </v>
   <v type="int" >        2       14       25       26       32 </v>
   <v type="int" >        2       13       14       25       32 </v>
   <v type="int" >        2       13       14       29       32 </v>
   <v type="int" >        2       14       26       31       32 </v>
   <v type="int" >        2       14       28       31       32 </v>
   <v type="int" >        2       14       28       29       32 </v>
   <v type="int" >        2       11       23       26       31 </v>
   <v type="int" >        2       11       14       26       31 </v>
   <v type="int" >        2       11       14       28       31 </v>
   <v type="int" >        2       11       23       30       31 </v>
   <v type="int" >        2       11       27       30       31 </v>
   <v type="int" >        2       11       27       28       31 </v>
  </varray>
  <i name="volumeweight">      0.00260417 </i>
 </kpoints>
 <parameters>
  <separator name="general" >
   <i type="string" name="SYSTEM">diamond</i>
   <i type="logical" name="LCOMPAT"> F  </i>
  </separator>
  <separator name="electronic" >
   <i type="string" name="PREC">normal</i>
   <i name="ENMAX">    600.00000000</i>
   <i name="ENAUG">    644.87300000</i>
   <i name="EDIFF">      0.00000100</i>
   <i type="int" name="IALGO">    48</i>
   <i type="int" name="IWAVPR">    11</i>
   <i type="int" name="NBANDS">    46</i>
   <i name="NELECT">     68.00000000</i>
   <i type="int" name="TURBO">     0</i>
   <i type="int" name="IRESTART">     0</i>
   <i type="int" name="NREBOOT">     0</i>
   <i type="int" name="NMIN">     0</i>
   <i name="EREF">      0.00000000</i>
   <separator name="electronic smearing" >
    <i type="int" name="ISMEAR">    -5</i>
    <i name="SIGMA">      0.20000000</i>
    <i name="KSPACING">      0.50000000</i>
    <i type="logical" name="KGAMMA"> T  </i>
   </separator>
   <separator name="electronic projectors" >
    <i type="logical" name="LREAL"> F  </i>
    <v name="ROPT">      0.00000000      0.00000000</v>
    <i type="int" name="LMAXPAW">  -100</i>
    <i type="int" name="LMAXMIX">     2</i>
    <i type="logical" name="NLSPLINE"> F  </i>
   </separator>
   <separator name="electronic startup" >
    <i type="int" name="ISTART">     0</i>
    <i type="int" name="ICHARG">     2</i>
    <i type="int" name="INIWAV">     1</i>
   </separator>
   <separator name="electronic spin" >
    <i type="int" name="ISPIN">     1</i>
    <i type="logical" name="LNONCOLLINEAR"> F  </i>
    <v name="MAGMOM">      1.00000000      1.00000000      1.00000000      1.00000000      1.00000000      1.00000000      1.00000000      1.00000000      1.00000000      1.00000000      1.00000000      1.00000000      1.00000000      1.00000000      1.00000000      1.00000000      1.00000000      1.00000000      1.00000000      1.00000000
</v>
    <i name="NUPDOWN">     -1.00000000</i>
    <i type="logical" name="LSORBIT"> F  </i>
    <v name="SAXIS">      0.00000000      0.00000000      1.00000000</v>
    <i type="logical" name="LSPIRAL"> F  </i>
    <v name="QSPIRAL">      0.00000000      0.00000000      0.00000000</v>
    <i type="logical" name="LZEROZ"> F  </i>
   </separator>
   <separator name="electronic exchange-correlation" >
    <i type="logical" name="LASPH"> F  </i>
    <i type="logical" name="LMETAGGA"> F  </i>
   </separator>
   <separator name="electronic convergence" >
    <i type="int" name="NELM">   200</i>
    <i type="int" name="NELMDL">     0</i>
    <i type="int" name="NELMIN">     2</i>
    <i name="ENINI">    600.00000000</i>
    <separator name="electronic convergence detail" >
     <i type="logical" name="LDIAG"> T  </i>
     <i type="logical" name="LSUBROT"> F  </i>
     <i name="WEIMIN">      0.00100000</i>
     <i name="EBREAK">      0.00000001</i>
     <i name="DEPER">      0.30000000</i>
     <i type="int" name="NRMM">     4</i>
     <i name="TIME">      0.40000000</i>
    </separator>
   </separator>
   <separator name="electronic mixer" >
    <i name="AMIX">      0.40000000</i>
    <i name="BMIX">      1.00000000</i>
    <i name="AMIN">      0.10000000</i>
    <i name="AMIX_MAG">      1.60000000</i>
    <i name="BMIX_MAG">      1.00000000</i>
    <separator name="electronic mixer details" >
     <i type="int" name="IMIX">     4</i>
     <i type="int" name="MAXMIX">   -45</i>
     <i name="WC">    100.00000000</i>
     <i type="int" name="INIMIX">     1</i>
     <i type="int" name="MIXPRE">     1</i>
     <i type="int" name="MREMOVE">     5</i>
    </separator>
   </separator>
   <separator name="electronic dipolcorrection" >
    <i type="logical" name="LDIPOL"> F  </i>
    <i type="logical" name="LMONO"> F  </i>
    <i type="int" name="IDIPOL">     0</i>
    <i name="EPSILON">      1.00000000</i>
    <v name="DIPOL">   -100.00000000   -100.00000000   -100.00000000</v>
    <i name="EFIELD">      0.00000000</i>
   </separator>
  </separator>
  <separator name="grids" >
   <i type="int" name="NGX">    40</i>
   <i type="int" name="NGY">    40</i>
   <i type="int" name="NGZ">    40</i>
   <i type="int" name="NGXF">    80</i>
   <i type="int" name="NGYF">    80</i>
   <i type="int" name="NGZF">    80</i>
   <i type="logical" name="ADDGRID"> F  </i>
  </separator>
  <separator name="ionic" >
   <i type="int" name="NSW">   200</i>
   <i type="int" name="IBRION">     2</i>
   <i type="int" name="ISIF">     2</i>
   <i name="PSTRESS">      0.00000000</i>
   <i name="EDIFFG">      0.00100000</i>
   <i type="int" name="NFREE">     1</i>
   <i name="POTIM">      0.50000000</i>
   <i name="SMASS">     -3.00000000</i>
   <i name="SCALEE">      1.00000000</i>
  </separator>
  <separator name="ionic md" >
   <i name="TEBEG">      0.00010000</i>
   <i name="TEEND">      0.00010000</i>
   <i type="int" name="NBLOCK">     1</i>
   <i type="int" name="KBLOCK">   200</i>
   <i type="int" name="NPACO">   256</i>
   <i name="APACO">     16.00000000</i>
  </separator>
  <separator name="symmetry" >
   <i type="int" name="ISYM">     2</i>
   <i name="SYMPREC">      0.00001000</i>
  </separator>
  <separator name="dos" >
   <i type="logical" name="LORBIT"> F  </i>
   <v name="RWIGS">     -1.00000000     -1.00000000</v>
   <i type="int" name="NEDOS">   301</i>
   <i name="EMIN">     10.00000000</i>
   <i name="EMAX">    -10.00000000</i>
   <i name="EFERMI">      0.00000000</i>
  </separator>
  <separator name="writing" >
   <i type="int" name="NWRITE">     2</i>
   <i type="logical" name="LWAVE"> F  </i>
   <i type="logical" name="LCHARG"> F  </i>
   <i type="logical" name="LPARD"> F  </i>
   <i type="logical" name="LVTOT"> F  </i>
   <i type="logical" name="LVHAR"> F  </i>
   <i type="logical" name="LELF"> F  </i>
   <i type="logical" name="LOPTICS"> F  </i>
   <v name="STM">      0.00000000      0.00000000      0.00000000      0.00000000      0.00000000      0.00000000      0.00000000</v>
  </separator>
  <separator name="performance" >
   <i type="int" name="NPAR">     2</i>
   <i type="int" name="NSIM">     4</i>
   <i type="int" name="NBLK">    -1</i>
   <i type="logical" name="LPLANE"> T  </i>
   <i type="logical" name="LSCALAPACK"> T  </i>
   <i type="logical" name="LSCAAWARE"> F  </i>
   <i type="logical" name="LSCALU"> F  </i>
   <i type="logical" name="LASYNC"> F  </i>
   <i type="logical" name="LORBITALREAL"> F  </i>
  </separator>
  <separator name="miscellaneous" >
   <i type="int" name="IDIOT">     3</i>
   <i type="logical" name="LMUSIC"> F  </i>
   <v name="POMASS">     12.01100000      1.00000000</v>
   <v name="DARWINR">      0.00000000      0.00000000</v>
   <v name="DARWINV">      1.00000000      1.00000000</v>
   <i type="logical" name="LCORR"> T  </i>
  </separator>
  <i type="logical" name="GGA_COMPAT"> T  </i>
  <i type="logical" name="LBERRY"> F  </i>
  <i type="int" name="ICORELEVEL">     0</i>
  <i type="logical" name="LDAU"> F  </i>
  <i type="int" name="I_CONSTRAINED_M">     0</i>
  <separator name="electronic exchange-correlation" >
   <i type="string" name="GGA">--</i>
   <i type="int" name="VOSKOWN">     0</i>
   <i type="logical" name="LHFCALC"> F  </i>
   <i type="string" name="PRECFOCK"></i>
   <i type="logical" name="LSYMGRAD"> F  </i>
   <i type="logical" name="LHFONE"> F  </i>
   <i type="logical" name="LRHFCALC"> F  </i>
   <i type="logical" name="LTHOMAS"> F  </i>
   <i type="logical" name="LMODELHF"> F  </i>
   <i name="ENCUT4O">     -1.00000000</i>
   <i type="int" name="EXXOEP">     0</i>
   <i type="int" name="FOURORBIT">     0</i>
   <i name="AEXX">      0.00000000</i>
   <i name="HFALPHA">      0.00000000</i>
   <i name="MCALPHA">      0.00000000</i>
   <i name="ALDAX">      1.00000000</i>
   <i name="AGGAX">      1.00000000</i>
   <i name="ALDAC">      1.00000000</i>
   <i name="AGGAC">      1.00000000</i>
   <i type="int" name="NKREDX">     1</i>
   <i type="int" name="NKREDY">     1</i>
   <i type="int" name="NKREDZ">     1</i>
   <i type="logical" name="SHIFTRED"> F  </i>
   <i type="logical" name="ODDONLY"> F  </i>
   <i type="logical" name="EVENONLY"> F  </i>
   <i type="int" name="LMAXFOCK">     0</i>
   <i type="int" name="NMAXFOCKAE">     0</i>
   <i type="logical" name="LFOCKAEDFT"> F  </i>
   <i name="HFSCREEN">      0.00000000</i>
   <i name="HFSCREENC">      0.00000000</i>
   <i type="int" name="NBANDSGWLOW">     0</i>
  </separator>
  <separator name="vdW DFT" >
   <i type="logical" name="LUSE_VDW"> F  </i>
   <i name="Zab_VDW">     -0.84910000</i>
   <i name="PARAM1">      0.12340000</i>
   <i name="PARAM2">      1.00000000</i>
   <i name="PARAM3">      0.00000000</i>
  </separator>
  <separator name="model GW" >
   <i type="int" name="MODEL_GW">     0</i>
   <i name="MODEL_EPS0">      7.37417847</i>
   <i name="MODEL_ALPHA">      1.00000000</i>
  </separator>
  <separator name="linear response parameters" >
   <i type="logical" name="LEPSILON"> F  </i>
   <i type="logical" name="LRPA"> F  </i>
   <i type="logical" name="LNABLA"> F  </i>
   <i type="logical" name="LVEL"> F  </i>
   <i type="int" name="KINTER">     0</i>
   <i name="CSHIFT">      0.10000000</i>
   <i name="OMEGAMAX">     -1.00000000</i>
   <i name="DEG_THRESHOLD">      0.00200000</i>
  </separator>
  <separator name="orbital magnetization" >
   <i type="logical" name="NUCIND"> F  </i>
   <v name="MAGPOS">      0.00000000      0.00000000      0.00000000</v>
   <i type="logical" name="LNICSALL"> T  </i>
   <i type="logical" name="ORBITALMAG"> F  </i>
   <i type="logical" name="LMAGBLOCH"> F  </i>
   <i type="logical" name="LCHIMAG"> F  </i>
   <i type="logical" name="LGAUGE"> T  </i>
   <i type="int" name="MAGATOM">     0</i>
   <v name="MAGDIPOL">      0.00000000      0.00000000      0.00000000</v>
   <v name="AVECCONST">      0.00000000      0.00000000      0.00000000</v>
  </separator>
  <separator name="response functions" >
   <i type="logical" name="LADDER"> F  </i>
   <i type="logical" name="LFXC"> F  </i>
   <i type="logical" name="LHARTREE"> T  </i>
   <i type="int" name="IBSE">     0</i>
   <i type="logical" name="LTCTE"> F  </i>
   <i type="logical" name="LTETE"> F  </i>
   <i type="logical" name="LTRIPLET"> F  </i>
   <i type="logical" name="LFXCEPS"> F  </i>
   <i type="logical" name="LFXHEG"> F  </i>
   <i type="logical" name="L2ORDER"> F  </i>
   <i type="logical" name="LUSEW"> F  </i>
   <i name="ENCUTGW">     -2.00000000</i>
   <i name="ENCUTGWSOFT">     -2.00000000</i>
   <i name="ENCUTLF">     -1.00000000</i>
   <i type="int" name="LMAXMP2">    -1</i>
   <i name="SCISSOR">      0.00000000</i>
   <i type="int" name="NOMEGA">     0</i>
   <i type="int" name="NOMEGAR">     0</i>
   <i type="int" name="NBANDSGW">    -1</i>
   <i type="int" name="NBANDSO">    -1</i>
   <i type="int" name="NBANDSV">    -1</i>
   <i type="int" name="NELM">   200</i>
   <i type="int" name="DIM">     3</i>
   <i type="int" name="ANTIRES">     0</i>
   <i name="OMEGAMAX">    -30.00000000</i>
   <i name="OMEGAMIN">    -30.00000000</i>
   <i name="OMEGATL">   -200.00000000</i>
   <i type="int" name="OMEGAGRID">     0</i>
   <i name="CSHIFT">     -0.10000000</i>
   <i type="logical" name="SELFENERGY"> F  </i>
   <i type="logical" name="LSPECTRAL"> F  </i>
   <i type="logical" name="ODDONLYGW"> F  </i>
   <i type="logical" name="EVENONLYGW"> F  </i>
   <i type="int" name="NKREDLFX">     1</i>
   <i type="int" name="NKREDLFY">     1</i>
   <i type="int" name="NKREDLFZ">     1</i>
   <i type="int" name="MAXMEM">  1800</i>
   <i type="int" name="TELESCOPE">     0</i>
   <i type="int" name="TAUPAR">     1</i>
  </separator>
  <separator name="External order field" >
   <i name="OFIELD_KAPPA">      0.00000000</i>
   <v name="OFIELD_K">      0.00000000      0.00000000      0.00000000</v>
   <i name="OFIELD_Q6_NEAR">      0.00000000</i>
   <i name="OFIELD_Q6_FAR">      0.00000000</i>
   <i name="OFIELD_A">      0.00000000</i>
  </separator>
 </parameters>
 <atominfo>
  <atoms>      20 </atoms>
  <types>       2 </types>
  <array name="atoms" >
   <dimension dim="1">ion</dimension>
   <field type="string">element</field>
   <field type="int">atomtype</field>
   <set>
    <rc><c>C </c><c>   1</c></rc>
    <rc><c>C </c><c>   1</c></rc>
    <rc><c>C </c><c>   1</c></rc>
    <rc><c>C </c><c>   1</c></rc>
    <rc><c>C </c><c>   1</c></rc>
    <rc><c>C </c><c>   1</c></rc>
    <rc><c>C </c><c>   1</c></rc>
    <rc><c>C </c><c>   1</c></rc>
    <rc><c>C </c><c>   1</c></rc>
    <rc><c>C </c><c>   1</c></rc>
    <rc><c>C </c><c>   1</c></rc>
    <rc><c>C </c><c>   1</c></rc>
    <rc><c>C </c><c>   1</c></rc>
    <rc><c>C </c><c>   1</c></rc>
    <rc><c>C </c><c>   1</c></rc>
    <rc><c>C </c><c>   1</c></rc>
    <rc><c>H </c><c>   2</c></rc>
    <rc><c>H </c><c>   2</c></rc>
    <rc><c>H </c><c>   2</c></rc>
    <rc><c>H </c><c>   2</c></rc>
   </set>
  </array>
  <array name="atomtypes" >
   <dimension dim="1">type</dimension>
   <field type="int">atomspertype</field>
   <field type="string">element</field>
   <field>mass</field>
   <field>valence</field>
   <field type="string">pseudopotential</field>
   <set>
    <rc><c>  16</c><c>C </c><c>     12.01100000</c><c>      4.00000000</c><c> PAW_PBE C 08Apr2002                    </c></rc>
    <rc><c>   4</c><c>H </c><c>      1.00000000</c><c>      1.00000000</c><c> PAW_PBE H 15Jun2001                    </c></rc>
   </set>
  </array>
 </atominfo>
 <structure name="initialpos" >
  <crystal>
   <varray name="basis" >
    <v>       6.26417858       0.00000000       0.00000000 </v>
    <v>       0.00000000       6.26417858       0.00000000 </v>
    <v>       0.00000000       0.00000000       6.26417858 </v>
   </varray>
   <i name="volume">    245.80594912 </i>
   <varray name="rec_basis" >
    <v>       0.15963785       0.00000000       0.00000000 </v>
    <v>       0.00000000       0.15963785       0.00000000 </v>
    <v>       0.00000000       0.00000000       0.15963785 </v>
   </varray>
  </crystal>
  <varray name="positions" >
   <v>       0.45587999       0.83459997       0.53931999 </v>
   <v>       0.45587999       0.04190000       0.33202001 </v>
   <v>       0.45587999       0.11777000       0.61519998 </v>
   <v>       0.69524998       0.99809003       0.49551001 </v>
   <v>       0.60030001       0.52968001       0.15026000 </v>
   <v>       0.54931998       0.63409001       0.89600998 </v>
   <v>       0.56970000       0.35765001       0.93207002 </v>
   <v>       0.34876001       0.49586999       0.03313000 </v>
   <v>       0.08223999       0.01558006       0.15304001 </v>
   <v>       0.03126001       0.11998999       0.89879000 </v>
   <v>       0.05164003       0.84355003       0.93484998 </v>
   <v>       0.83069998       0.98176998       0.03591000 </v>
   <v>       0.07562006       0.53223002       0.66030997 </v>
   <v>       0.02463996       0.63664001       0.40605000 </v>
   <v>       0.04501998       0.36019999       0.44211999 </v>
   <v>       0.82406998       0.49842000       0.54316997 </v>
   <v>       0.51572001       0.99809003       0.49551001 </v>
   <v>       0.51703000       0.50432998       0.00287000 </v>
   <v>       0.99896002       0.99023002       0.00565000 </v>
   <v>       0.99234003       0.50687998       0.51292002 </v>
  </varray>
 </structure>
 <calculation>
  <scstep>
   <time name="diag">    3.32    3.32</time>
   <time name="diis">    5.34    5.34</time>
   <time name="orth">    0.52    0.53</time>
   <time name="total">    9.38    9.40</time>
   <energy>
    <i name="alphaZ">     92.85882409 </i>
    <i name="ewald">  -1496.10549544 </i>
    <i name="hartreedc">   -750.49625573 </i>
    <i name="XCdc">    218.04334359 </i>
    <i name="pawpsdc">    608.42839238 </i>
    <i name="pawaedc">   -626.87209802 </i>
    <i name="eentropy">      0.00000000 </i>
    <i name="bandstr">    270.67692758 </i>
    <i name="atom">   2404.35655786 </i>
    <i name="e_fr_energy">    720.89019630 </i>
    <i name="e_wo_entrp">    720.89019630 </i>
    <i name="e_0_energy">    720.89019630 </i>
   </energy>
  </scstep>
  <scstep>
   <time name="diag">    3.23    3.23</time>
   <time name="diis">    5.36    5.36</time>
   <time name="orth">    0.53    0.53</time>
   <time name="total">    9.17    9.17</time>
   <energy>
    <i name="e_fr_energy">    169.60367640 </i>
    <i name="e_wo_entrp">    169.60367640 </i>
    <i name="e_0_energy">    169.60367640 </i>
   </energy>
  </scstep>
  <scstep>
   <time name="diag">    3.21    3.21</time>
   <time name="diis">    5.31    5.31</time>
   <time name="orth">    0.51    0.51</time>
   <time name="total">    9.08    9.09</time>
   <energy>
    <i name="e_fr_energy">      6.21364560 </i>
    <i name="e_wo_entrp">      6.21364560 </i>
    <i name="e_0_energy">      6.21364560 </i>
   </energy>
  </scstep>
  <scstep>
   <time name="diag">    3.18    3.18</time>
   <time name="diis">    5.26    5.26</time>
   <time name="orth">    0.51    0.51</time>
   <time name="total">    8.99    9.00</time>
   <energy>
    <i name="e_fr_energy">    -43.17419677 </i>
    <i name="e_wo_entrp">    -43.17419677 </i>
    <i name="e_0_energy">    -43.17419677 </i>
   </energy>
  </scstep>
  <scstep>
   <time name="diag">    3.15    3.15</time>
   <time name="diis">    5.23    5.23</time>
   <time name="orth">    0.50    0.50</time>
   <time name="total">    8.93    8.93</time>
   <energy>
    <i name="e_fr_energy">    -58.94245974 </i>
    <i name="e_wo_entrp">    -58.94245974 </i>
    <i name="e_0_energy">    -58.94245974 </i>
   </energy>
  </scstep>
  <scstep>
   <time name="diag">    3.12    3.12</time>
   <time name="diis">    5.18    5.18</time>
   <time name="orth">    0.50    0.50</time>
   <time name="total">    8.85    8.86</time>
   <energy>
    <i name="e_fr_energy">    -65.41864184 </i>
    <i name="e_wo_entrp">    -65.41864184 </i>
    <i name="e_0_energy">    -65.41864184 </i>
   </energy>
  </scstep>
  <scstep>
   <time name="diag">    3.38    3.38</time>
   <time name="diis">    5.43    5.43</time>
   <time name="orth">    0.53    0.53</time>
   <time name="total">    9.38    9.39</time>
   <energy>
    <i name="e_fr_energy">    -68.56490117 </i>
    <i name="e_wo_entrp">    -68.56490117 </i>
    <i name="e_0_energy">    -68.56490117 </i>
   </energy>
  </scstep>
  <scstep>
   <time name="diag">    3.27    3.27</time>
   <time name="diis">    5.45    5.45</time>
   <time name="orth">    0.53    0.53</time>
   <time name="total">    9.29    9.30</time>
   <energy>
    <i name="e_fr_energy">    -70.32784088 </i>
    <i name="e_wo_entrp">    -70.32784088 </i>
    <i name="e_0_energy">    -70.32784088 </i>
   </energy>
  </scstep>
  <scstep>
   <time name="diag">    3.18    3.18</time>
   <time name="diis">   12.98   12.98</time>
   <time name="orth">    0.51    0.52</time>
   <time name="total">   16.72   16.73</time>
   <energy>
    <i name="e_fr_energy">    -72.79007246 </i>
    <i name="e_wo_entrp">    -72.79007246 </i>
    <i name="e_0_energy">    -72.79007246 </i>
   </energy>
  </scstep>
  <scstep>
   <time name="diag">    3.31    3.31</time>
   <time name="diis">   11.99   11.99</time>
   <time name="orth">    0.52    0.52</time>
   <time name="total">   15.86   15.87</time>
   <energy>
    <i name="e_fr_energy">    -73.17726513 </i>
    <i name="e_wo_entrp">    -73.17726513 </i>
    <i name="e_0_energy">    -73.17726513 </i>
   </energy>
  </scstep>
  <scstep>
   <time name="diag">    3.18    3.19</time>
   <time name="diis">   12.86   12.86</time>
   <time name="orth">    0.55    0.55</time>
   <time name="total">   16.65   16.65</time>
   <energy>
    <i name="e_fr_energy">    -73.28319984 </i>
    <i name="e_wo_entrp">    -73.28319984 </i>
    <i name="e_0_energy">    -73.28319984 </i>
   </energy>
  </scstep>
  <scstep>
   <time name="diag">    3.15    3.16</time>
   <time name="diis">   11.78   11.78</time>
   <time name="orth">    0.51    0.51</time>
   <time name="total">   16.11   16.12</time>
   <energy>
    <i name="e_fr_energy">    -73.28914863 </i>
    <i name="e_wo_entrp">    -73.28914863 </i>
    <i name="e_0_energy">    -73.28914863 </i>
   </energy>
  </scstep>
  <scstep>
   <time name="diag">    3.17    3.17</time>
   <time name="diis">   10.06   10.07</time>
   <time name="orth">    0.55    0.55</time>
   <time name="total">   14.59   14.59</time>
   <energy>
    <i name="e_fr_energy">    -75.12587509 </i>
    <i name="e_wo_entrp">    -75.12587509 </i>
    <i name="e_0_energy">    -75.12587509 </i>
   </energy>
  </scstep>
  <scstep>
   <time name="diag">    3.18    3.18</time>
   <time name="diis">    9.92    9.92</time>
   <time name="orth">    0.51    0.51</time>
   <time name="total">   14.42   14.42</time>
   <energy>
    <i name="e_fr_energy">    -71.54770542 </i>
    <i name="e_wo_entrp">    -71.54770542 </i>
    <i name="e_0_energy">    -71.54770542 </i>
   </energy>
  </scstep>
  <scstep>
   <time name="diag">    3.18    3.18</time>
   <time name="diis">    9.90    9.90</time>
   <time name="orth">    0.51    0.51</time>
   <time name="total">   14.38   14.39</time>
   <energy>
    <i name="e_fr_energy">    -70.77596432 </i>
    <i name="e_wo_entrp">    -70.77596432 </i>
    <i name="e_0_energy">    -70.77596432 </i>
   </energy>
  </scstep>
  <scstep>
   <time name="diag">    3.15    3.15</time>
   <time name="diis">    9.80    9.80</time>
   <time name="orth">    0.51    0.51</time>
   <time name="total">   14.27   14.28</time>
   <energy>
    <i name="e_fr_energy">    -70.81555461 </i>
    <i name="e_wo_entrp">    -70.81555461 </i>
    <i name="e_0_energy">    -70.81555461 </i>
   </energy>
  </scstep>
  <scstep>
   <time name="diag">    3.19    3.19</time>
   <time name="diis">    9.82    9.82</time>
   <time name="orth">    0.51    0.51</time>
   <time name="total">   14.33   14.33</time>
   <energy>
    <i name="e_fr_energy">    -70.51766355 </i>
    <i name="e_wo_entrp">    -70.51766355 </i>
    <i name="e_0_energy">    -70.51766355 </i>
   </energy>
  </scstep>
  <scstep>
   <time name="diag">    3.19    3.19</time>
   <time name="diis">   10.29   10.29</time>
   <time name="orth">    0.51    0.51</time>
   <time name="total">   14.79   14.79</time>
   <energy>
    <i name="e_fr_energy">    -70.45789005 </i>
    <i name="e_wo_entrp">    -70.45789005 </i>
    <i name="e_0_energy">    -70.45789005 </i>
   </energy>
  </scstep>
  <scstep>
   <time name="diag">    3.18    3.18</time>
   <time name="diis">   11.07   11.07</time>
   <time name="orth">    0.51    0.51</time>
   <time name="total">   15.56   15.57</time>
   <energy>
    <i name="e_fr_energy">    -70.45589876 </i>
    <i name="e_wo_entrp">    -70.45589876 </i>
    <i name="e_0_energy">    -70.45589876 </i>
   </energy>
  </scstep>
  <scstep>
   <time name="diag">    3.21    3.21</time>
   <time name="diis">    9.96    9.96</time>
   <time name="orth">    0.51    0.51</time>
   <time name="total">   14.49   14.49</time>
   <energy>
    <i name="e_fr_energy">    -70.45700080 </i>
    <i name="e_wo_entrp">    -70.45700080 </i>
    <i name="e_0_energy">    -70.45700080 </i>
   </energy>
  </scstep>
  <scstep>
   <time name="diag">    3.21    3.21</time>
   <time name="diis">    9.96    9.97</time>
   <time name="orth">    0.51    0.51</time>
   <time name="total">   14.49   14.50</time>
   <energy>
    <i name="e_fr_energy">    -70.45721507 </i>
    <i name="e_wo_entrp">    -70.45721507 </i>
    <i name="e_0_energy">    -70.45721507 </i>
   </energy>
  </scstep>
  <scstep>
   <time name="diag">    3.21    3.21</time>
   <time name="diis">    9.92    9.92</time>
   <time name="orth">    0.51    0.51</time>
   <time name="total">   14.44   14.45</time>
   <energy>
    <i name="e_fr_energy">    -70.45707142 </i>
    <i name="e_wo_entrp">    -70.45707142 </i>
    <i name="e_0_energy">    -70.45707142 </i>
   </energy>
  </scstep>
  <scstep>
   <time name="diag">    3.20    3.20</time>
   <time name="diis">    9.84    9.84</time>
   <time name="orth">    0.51    0.52</time>
   <time name="total">   14.37   14.42</time>
   <energy>
    <i name="e_fr_energy">    -70.45712053 </i>
    <i name="e_wo_entrp">    -70.45712053 </i>
    <i name="e_0_energy">    -70.45712053 </i>
   </energy>
  </scstep>
  <scstep>
   <time name="diag">    3.20    3.20</time>
   <time name="diis">    9.73    9.73</time>
   <time name="orth">    0.52    0.52</time>
   <time name="total">   14.26   14.27</time>
   <energy>
    <i name="e_fr_energy">    -70.45712904 </i>
    <i name="e_wo_entrp">    -70.45712904 </i>
    <i name="e_0_energy">    -70.45712904 </i>
   </energy>
  </scstep>
  <scstep>
   <time name="diag">    3.19    3.19</time>
   <time name="diis">    9.35    9.35</time>
   <time name="orth">    0.52    0.52</time>
   <time name="total">   13.87   13.88</time>
   <energy>
    <i name="e_fr_energy">    -70.45714161 </i>
    <i name="e_wo_entrp">    -70.45714161 </i>
    <i name="e_0_energy">    -70.45714161 </i>
   </energy>
  </scstep>
  <scstep>
   <time name="diag">    3.23    3.23</time>
   <time name="diis">    8.29    8.29</time>
   <time name="orth">    0.52    0.52</time>
   <time name="total">   12.85   12.85</time>
   <energy>
    <i name="e_fr_energy">    -70.45714622 </i>
    <i name="e_wo_entrp">    -70.45714622 </i>
    <i name="e_0_energy">    -70.45714622 </i>
   </energy>
  </scstep>
  <scstep>
   <time name="diag">    3.23    3.23</time>
   <time name="diis">    6.43    6.43</time>
   <time name="orth">    0.52    0.52</time>
   <time name="total">   10.99   11.00</time>
   <energy>
    <i name="e_fr_energy">    -70.45714733 </i>
    <i name="e_wo_entrp">    -70.45714733 </i>
    <i name="e_0_energy">    -70.45714733 </i>
   </energy>
  </scstep>
  <scstep>
   <time name="diag">    3.27    3.27</time>
   <time name="diis">    6.39    6.39</time>
   <time name="orth">    0.52    0.52</time>
   <time name="total">   10.36   10.37</time>
   <energy>
    <i name="alphaZ">     92.85882409 </i>
    <i name="ewald">  -1496.10549544 </i>
    <i name="hartreedc">   -804.71815032 </i>
    <i name="XCdc">    221.54484943 </i>
    <i name="pawpsdc">    831.35027564 </i>
    <i name="pawaedc">   -850.35717805 </i>
    <i name="eentropy">      0.00000000 </i>
    <i name="bandstr">   -469.38683089 </i>
    <i name="atom">   2404.35655786 </i>
    <i name="e_fr_energy">    -70.45714769 </i>
    <i name="e_wo_entrp">    -70.45714769 </i>
    <i name="e_0_energy">    -70.45714769 </i>
   </energy>
  </scstep>
  <structure>
   <crystal>
    <varray name="basis" >
     <v>       6.26417858       0.00000000       0.00000000 </v>
     <v>       0.00000000       6.26417858       0.00000000 </v>
     <v>       0.00000000       0.00000000       6.26417858 </v>
    </varray>
    <i name="volume">    245.80594912 </i>
    <varray name="rec_basis" >
     <v>       0.15963785       0.00000000       0.00000000 </v>
     <v>       0.00000000       0.15963785       0.00000000 </v>
     <v>       0.00000000       0.00000000       0.15963785 </v>
    </varray>
   </crystal>
   <varray name="positions" >
    <v>       0.45587999       0.83459997       0.53931999 </v>
    <v>       0.45587999       0.04190000       0.33202001 </v>
    <v>       0.45587999       0.11777000       0.61519998 </v>
    <v>       0.69524998       0.99809003       0.49551001 </v>
    <v>       0.60030001       0.52968001       0.15026000 </v>
    <v>       0.54931998       0.63409001       0.89600998 </v>
    <v>       0.56970000       0.35765001       0.93207002 </v>
    <v>       0.34876001       0.49586999       0.03313000 </v>
    <v>       0.08223999       0.01558006       0.15304001 </v>
    <v>       0.03126001       0.11998999       0.89879000 </v>
    <v>       0.05164003       0.84355003       0.93484998 </v>
    <v>       0.83069998       0.98176998       0.03591000 </v>
    <v>       0.07562006       0.53223002       0.66030997 </v>
    <v>       0.02463996       0.63664001       0.40605000 </v>
    <v>       0.04501998       0.36019999       0.44211999 </v>
    <v>       0.82406998       0.49842000       0.54316997 </v>
    <v>       0.51572001       0.99809003       0.49551001 </v>
    <v>       0.51703000       0.50432998       0.00287000 </v>
    <v>       0.99896002       0.99023002       0.00565000 </v>
    <v>       0.99234003       0.50687998       0.51292002 </v>
   </varray>
  </structure>
  <varray name="forces" >
   <v>      -0.96478817      -3.14026556       1.70847686 </v>
   <v>      -1.93989180       1.31903439      -3.18871473 </v>
   <v>      -1.18158691       2.08589546       1.89197167 </v>
   <v>       3.69305853      -0.16470928       0.03745516 </v>
   <v>       2.84534968       0.52758788       4.47674230 </v>
   <v>       1.01296316       3.93606473      -3.70742982 </v>
   <v>       1.46020377      -4.33118420      -2.50903176 </v>
   <v>      -4.97420846      -0.17444983       0.26530316 </v>
   <v>       2.51266162       0.56317261       4.63987957 </v>
   <v>       1.55551600       3.50607167      -3.28030358 </v>
   <v>       1.39426128      -3.94633777      -2.26428492 </v>
   <v>      -5.27915297      -0.72809929       1.49828675 </v>
   <v>       2.04271007       1.54209675       4.58197796 </v>
   <v>       1.50950371       3.97758777      -3.02925922 </v>
   <v>       1.40556790      -4.56149027      -2.21576411 </v>
   <v>      -4.98163602      -0.53366960       1.11308007 </v>
   <v>       0.01900464       0.05248391       0.17006777 </v>
   <v>      -0.10041436      -0.02055515       0.13084066 </v>
   <v>       0.01808110       0.00603603      -0.27283308 </v>
   <v>      -0.04720275       0.08472975      -0.04646070 </v>
  </varray>
  <varray name="stress" >
   <v>     102.27613595       5.75153440      -3.74943981 </v>
   <v>       5.75153439      78.59651215     -24.54149713 </v>
   <v>      -3.74943982     -24.54149707      82.16191942 </v>
  </varray>
  <energy>
   <i name="e_fr_energy">    -71.84552802 </i>
   <i name="e_wo_entrp">    -71.84552802 </i>
   <i name="e_0_energy">      0.00000000 </i>
  </energy>
  <time name="totalsc">  379.96  380.19</time>
 </calculation>
 <calculation>
  <scstep>
   <time name="diag">    3.21    3.21</time>
   <time name="diis">   10.32   10.32</time>
   <time name="orth">    0.52    0.52</time>
   <time name="total">   14.89   14.89</time>
   <energy>
    <i name="alphaZ">     92.85882409 </i>
    <i name="ewald">  -1906.92612202 </i>
    <i name="hartreedc">   -526.83322286 </i>
    <i name="XCdc">    212.62962726 </i>
    <i name="pawpsdc">    831.34373618 </i>
    <i name="pawaedc">   -850.35056451 </i>
    <i name="eentropy">      0.00000000 </i>
    <i name="bandstr">   -330.57741783 </i>
    <i name="atom">   2404.35655786 </i>
    <i name="e_fr_energy">    -73.49858183 </i>
    <i name="e_wo_entrp">    -73.49858183 </i>
    <i name="e_0_energy">    -73.49858183 </i>
   </energy>
  </scstep>
  <scstep>
   <time name="diag">    3.20    3.20</time>
   <time name="diis">    9.91    9.92</time>
   <time name="orth">    0.51    0.51</time>
   <time name="total">   14.43   14.44</time>
   <energy>
    <i name="e_fr_energy">    -87.04989553 </i>
    <i name="e_wo_entrp">    -87.04989553 </i>
    <i name="e_0_energy">    -87.04989553 </i>
   </energy>
  </scstep>
  <scstep>
   <time name="diag">    3.18    3.18</time>
   <time name="diis">   10.66   10.66</time>
   <time name="orth">    0.51    0.52</time>
   <time name="total">   15.16   15.17</time>
   <energy>
    <i name="e_fr_energy">    -77.31220615 </i>
    <i name="e_wo_entrp">    -77.31220615 </i>
    <i name="e_0_energy">    -77.31220615 </i>
   </energy>
  </scstep>
  <scstep>
   <time name="diag">    3.22    3.22</time>
   <time name="diis">   11.57   11.57</time>
   <time name="orth">    0.51    0.52</time>
   <time name="total">   16.12   16.13</time>
   <energy>
    <i name="e_fr_energy">    -76.98009542 </i>
    <i name="e_wo_entrp">    -76.98009542 </i>
    <i name="e_0_energy">    -76.98009542 </i>
   </energy>
  </scstep>
  <scstep>
   <time name="diag">    3.21    3.21</time>
   <time name="diis">   11.55   11.55</time>
   <time name="orth">    0.51    0.51</time>
   <time name="total">   16.08   16.08</time>
   <energy>
    <i name="e_fr_energy">    -76.96195822 </i>
    <i name="e_wo_entrp">    -76.96195822 </i>
    <i name="e_0_energy">    -76.96195822 </i>
   </energy>
  </scstep>
  <scstep>
   <time name="diag">    3.19    3.19</time>
   <time name="diis">   10.96   10.98</time>
   <time name="orth">    0.52    0.52</time>
   <time name="total">   15.49   15.51</time>
   <energy>
    <i name="e_fr_energy">    -76.95667825 </i>
    <i name="e_wo_entrp">    -76.95667825 </i>
    <i name="e_0_energy">    -76.95667825 </i>
   </energy>
  </scstep>
  <scstep>
   <time name="diag">    3.20    3.20</time>
   <time name="diis">   10.55   10.55</time>
   <time name="orth">    0.52    0.52</time>
   <time name="total">   15.08   15.08</time>
   <energy>
    <i name="e_fr_energy">    -76.94631850 </i>
    <i name="e_wo_entrp">    -76.94631850 </i>
    <i name="e_0_energy">    -76.94631850 </i>
   </energy>
  </scstep>
  <scstep>
   <time name="diag">    3.19    3.19</time>
   <time name="diis">   12.06   12.06</time>
   <time name="orth">    0.53    0.53</time>
   <time name="total">   16.58   16.59</time>
   <energy>
    <i name="e_fr_energy">    -76.94725857 </i>
    <i name="e_wo_entrp">    -76.94725857 </i>
    <i name="e_0_energy">    -76.94725857 </i>
   </energy>
  </scstep>
  <scstep>
   <time name="diag">    3.25    3.25</time>
   <time name="diis">   10.92   10.92</time>
   <time name="orth">    0.52    0.52</time>
   <time name="total">   15.51   15.52</time>
   <energy>
    <i name="e_fr_energy">    -76.94721703 </i>
    <i name="e_wo_entrp">    -76.94721703 </i>
    <i name="e_0_energy">    -76.94721703 </i>
   </energy>
  </scstep>
  <scstep>
   <time name="diag">    3.24    3.24</time>
   <time name="diis">   11.22   11.23</time>
   <time name="orth">    0.52    0.52</time>
   <time name="total">   15.79   15.80</time>
   <energy>
    <i name="e_fr_energy">    -76.94669676 </i>
    <i name="e_wo_entrp">    -76.94669676 </i>
    <i name="e_0_energy">    -76.94669676 </i>
   </energy>
  </scstep>
  <scstep>
   <time name="diag">    3.21    3.21</time>
   <time name="diis">   11.50   11.51</time>
   <time name="orth">    0.51    0.51</time>
   <time name="total">   16.03   16.04</time>
   <energy>
    <i name="e_fr_energy">    -76.94648522 </i>
    <i name="e_wo_entrp">    -76.94648522 </i>
    <i name="e_0_energy">    -76.94648522 </i>
   </energy>
  </scstep>
  <scstep>
   <time name="diag">    3.20    3.20</time>
   <time name="diis">   12.18   12.19</time>
   <time name="orth">    0.51    0.51</time>
   <time name="total">   16.70   16.71</time>
   <energy>
    <i name="e_fr_energy">    -76.94644526 </i>
    <i name="e_wo_entrp">    -76.94644526 </i>
    <i name="e_0_energy">    -76.94644526 </i>
   </energy>
  </scstep>
  <scstep>
   <time name="diag">    3.20    3.20</time>
   <time name="diis">   10.20   10.20</time>
   <time name="orth">    0.52    0.52</time>
   <time name="total">   14.72   14.73</time>
   <energy>
    <i name="e_fr_energy">    -76.94644464 </i>
    <i name="e_wo_entrp">    -76.94644464 </i>
    <i name="e_0_energy">    -76.94644464 </i>
   </energy>
  </scstep>
  <scstep>
   <time name="diag">    3.20    3.20</time>
   <time name="diis">    7.27    7.27</time>
   <time name="orth">    0.51    0.51</time>
   <time name="total">   11.79   11.79</time>
   <energy>
    <i name="e_fr_energy">    -76.94645602 </i>
    <i name="e_wo_entrp">    -76.94645602 </i>
    <i name="e_0_energy">    -76.94645602 </i>
   </energy>
  </scstep>
  <scstep>
   <time name="diag">    3.19    3.19</time>
   <time name="diis">    6.40    6.41</time>
   <time name="orth">    0.51    0.51</time>
   <time name="total">   10.91   10.92</time>
   <energy>
    <i name="e_fr_energy">    -76.94645847 </i>
    <i name="e_wo_entrp">    -76.94645847 </i>
    <i name="e_0_energy">    -76.94645847 </i>
   </energy>
  </scstep>
  <scstep>
   <time name="diag">    3.18    3.18</time>
   <time name="diis">    6.37    6.37</time>
   <time name="orth">    0.51    0.51</time>
   <time name="total">   10.24   10.24</time>
   <energy>
    <i name="alphaZ">     92.85882409 </i>
    <i name="ewald">  -1906.92612202 </i>
    <i name="hartreedc">   -491.32722259 </i>
    <i name="XCdc">    209.57119547 </i>
    <i name="pawpsdc">    662.75456752 </i>
    <i name="pawaedc">   -680.82519843 </i>
    <i name="eentropy">      0.00000000 </i>
    <i name="bandstr">   -367.40906036 </i>
    <i name="atom">   2404.35655786 </i>
    <i name="e_fr_energy">    -76.94645848 </i>
    <i name="e_wo_entrp">    -76.94645848 </i>
    <i name="e_0_energy">    -76.94645848 </i>
   </energy>
  </scstep>
  <structure>
   <crystal>
    <varray name="basis" >
     <v>       6.26417858       0.00000000       0.00000000 </v>
     <v>       0.00000000       6.26417858       0.00000000 </v>
     <v>       0.00000000       0.00000000       6.26417858 </v>
    </varray>
    <i name="volume">    245.80594912 </i>
    <varray name="rec_basis" >
     <v>       0.15963785       0.00000000       0.00000000 </v>
     <v>       0.00000000       0.15963785       0.00000000 </v>
     <v>       0.00000000       0.00000000       0.15963785 </v>
    </varray>
   </crystal>
   <varray name="positions" >
    <v>       0.44844981       0.81041568       0.55247758 </v>
    <v>       0.44094019       0.05205835       0.30746260 </v>
    <v>       0.44678017       0.13383422       0.62977073 </v>
    <v>       0.72369152       0.99682154       0.49579847 </v>
    <v>       0.62221306       0.53374315       0.18473698 </v>
    <v>       0.55712117       0.66440303       0.86745775 </v>
    <v>       0.58094555       0.32429403       0.91274708 </v>
    <v>       0.31045187       0.49452649       0.03517319 </v>
    <v>       0.10159088       0.01991725       0.18877336 </v>
    <v>       0.04323959       0.14699149       0.87352722 </v>
    <v>       0.06237773       0.81315788       0.91741192 </v>
    <v>       0.79004336       0.97616263       0.04744884 </v>
    <v>       0.09135169       0.54410625       0.69559740 </v>
    <v>       0.03626519       0.66727282       0.38272060 </v>
    <v>       0.05584476       0.32507034       0.42505560 </v>
    <v>       0.78570464       0.49431002       0.55174220 </v>
    <v>       0.51586637       0.99849423       0.49681976 </v>
    <v>       0.51625667       0.50417168       0.00387765 </v>
    <v>       0.99909927       0.99027651       0.00354882 </v>
    <v>       0.99197650       0.50753252       0.51256221 </v>
   </varray>
  </structure>
  <varray name="forces" >
   <v>       0.31845917      -0.17562344       1.28193687 </v>
   <v>      -0.75773088       0.64769655      -0.09318553 </v>
   <v>      -0.12214427      -0.07472466      -0.00616736 </v>
   <v>      -0.15494829      -0.14231288      -0.11720966 </v>
   <v>       0.22406087       0.05527689       0.49357731 </v>
   <v>       0.39641096       0.61564345      -0.98775411 </v>
   <v>       0.11805418      -0.79775687      -0.89004243 </v>
   <v>      -0.39237785       0.09725686      -0.34278263 </v>
   <v>       0.79038582       0.27304473       1.14996278 </v>
   <v>       0.55302618      -0.51935481      -0.15933150 </v>
   <v>       0.13879998      -0.54988691      -1.01434806 </v>
   <v>      -0.94744236      -0.48031682       0.19262764 </v>
   <v>      -0.03294037       1.47740969       1.17077233 </v>
   <v>       0.50161900       0.09242683       0.07080234 </v>
   <v>      -0.04277855      -0.53586995      -0.44144168 </v>
   <v>      -0.58626115      -0.21806296      -0.09584456 </v>
   <v>       0.23837243      -0.11120174      -0.25589705 </v>
   <v>      -0.07166358       0.08459696       0.23774271 </v>
   <v>      -0.15078751       0.22983520      -0.11640313 </v>
   <v>      -0.02011379       0.03192386      -0.07701427 </v>
  </varray>
  <varray name="stress" >
   <v>     -97.83494557       7.38751936     -13.58560905 </v>
   <v>       7.38751927    -128.09265850     -23.99331087 </v>
   <v>     -13.58560902     -23.99331081    -124.47073510 </v>
  </varray>
  <energy>
   <i name="e_fr_energy">    -79.19351174 </i>
   <i name="e_wo_entrp">    -79.19351174 </i>
   <i name="e_0_energy">      0.00000000 </i>
  </energy>
  <time name="totalsc">  254.43  254.56</time>
 </calculation>
 <calculation>
  <scstep>
   <time name="diag">    3.17    3.17</time>
   <time name="diis">   10.02   10.03</time>
   <time name="orth">    0.52    0.52</time>
   <time name="total">   14.52   14.53</time>
   <energy>
    <i name="alphaZ">     92.85882409 </i>
    <i name="ewald">  -1946.45307692 </i>
    <i name="hartreedc">   -463.70703105 </i>
    <i name="XCdc">    208.70221896 </i>
    <i name="pawpsdc">    662.75758062 </i>
    <i name="pawaedc">   -680.82821875 </i>
    <i name="eentropy">      0.00000000 </i>
    <i name="bandstr">   -354.64377984 </i>
    <i name="atom">   2404.35655786 </i>
    <i name="e_fr_energy">    -76.95692504 </i>
    <i name="e_wo_entrp">    -76.95692504 </i>
    <i name="e_0_energy">    -76.95692504 </i>
   </energy>
  </scstep>
  <scstep>
   <time name="diag">    3.19    3.20</time>
   <time name="diis">   10.63   10.63</time>
   <time name="orth">    0.54    0.54</time>
   <time name="total">   15.18   15.19</time>
   <energy>
    <i name="e_fr_energy">    -77.03302424 </i>
    <i name="e_wo_entrp">    -77.03302424 </i>
    <i name="e_0_energy">    -77.03302424 </i>
   </energy>
  </scstep>
  <scstep>
   <time name="diag">    3.22    3.22</time>
   <time name="diis">   12.64   12.65</time>
   <time name="orth">    0.52    0.52</time>
   <time name="total">   17.21   17.23</time>
   <energy>
    <i name="e_fr_energy">    -77.01577382 </i>
    <i name="e_wo_entrp">    -77.01577382 </i>
    <i name="e_0_energy">    -77.01577382 </i>
   </energy>
  </scstep>
  <scstep>
   <time name="diag">    3.21    3.21</time>
   <time name="diis">   12.14   12.14</time>
   <time name="orth">    0.52    0.52</time>
   <time name="total">   16.69   16.69</time>
   <energy>
    <i name="e_fr_energy">    -77.01516829 </i>
    <i name="e_wo_entrp">    -77.01516829 </i>
    <i name="e_0_energy">    -77.01516829 </i>
   </energy>
  </scstep>
  <scstep>
   <time name="diag">    3.21    3.21</time>
   <time name="diis">   11.02   11.03</time>
   <time name="orth">    0.51    0.52</time>
   <time name="total">   15.57   15.57</time>
   <energy>
    <i name="e_fr_energy">    -77.01466313 </i>
    <i name="e_wo_entrp">    -77.01466313 </i>
    <i name="e_0_energy">    -77.01466313 </i>
   </energy>
  </scstep>
  <scstep>
   <time name="diag">    3.18    3.18</time>
   <time name="diis">   11.14   11.14</time>
   <time name="orth">    0.51    0.51</time>
   <time name="total">   15.63   15.64</time>
   <energy>
    <i name="e_fr_energy">    -77.01426725 </i>
    <i name="e_wo_entrp">    -77.01426725 </i>
    <i name="e_0_energy">    -77.01426725 </i>
   </energy>
  </scstep>
  <scstep>
   <time name="diag">    3.16    3.16</time>
   <time name="diis">   10.67   10.68</time>
   <time name="orth">    0.51    0.51</time>
   <time name="total">   15.14   15.14</time>
   <energy>
    <i name="e_fr_energy">    -77.01405496 </i>
    <i name="e_wo_entrp">    -77.01405496 </i>
    <i name="e_0_energy">    -77.01405496 </i>
   </energy>
  </scstep>
  <scstep>
   <time name="diag">    3.16    3.16</time>
   <time name="diis">   11.62   11.62</time>
   <time name="orth">    0.51    0.51</time>
   <time name="total">   16.09   16.10</time>
   <energy>
    <i name="e_fr_energy">    -77.01401401 </i>
    <i name="e_wo_entrp">    -77.01401401 </i>
    <i name="e_0_energy">    -77.01401401 </i>
   </energy>
  </scstep>
  <scstep>
   <time name="diag">    3.16    3.19</time>
   <time name="diis">   11.26   11.26</time>
   <time name="orth">    0.51    0.51</time>
   <time name="total">   15.74   15.77</time>
   <energy>
    <i name="e_fr_energy">    -77.01402761 </i>
    <i name="e_wo_entrp">    -77.01402761 </i>
    <i name="e_0_energy">    -77.01402761 </i>
   </energy>
  </scstep>
  <scstep>
   <time name="diag">    3.14    3.14</time>
   <time name="diis">   10.32   10.32</time>
   <time name="orth">    0.51    0.51</time>
   <time name="total">   14.76   14.77</time>
   <energy>
    <i name="e_fr_energy">    -77.01403487 </i>
    <i name="e_wo_entrp">    -77.01403487 </i>
    <i name="e_0_energy">    -77.01403487 </i>
   </energy>
  </scstep>
  <scstep>
   <time name="diag">    3.12    3.12</time>
   <time name="diis">    7.18    7.18</time>
   <time name="orth">    0.50    0.50</time>
   <time name="total">   11.59   11.60</time>
   <energy>
    <i name="e_fr_energy">    -77.01403700 </i>
    <i name="e_wo_entrp">    -77.01403700 </i>
    <i name="e_0_energy">    -77.01403700 </i>
   </energy>
  </scstep>
  <scstep>
   <time name="diag">    3.14    3.14</time>
   <time name="diis">    7.32    7.32</time>
   <time name="orth">    0.51    0.51</time>
   <time name="total">   11.78   11.78</time>
   <energy>
    <i name="e_fr_energy">    -77.01403859 </i>
    <i name="e_wo_entrp">    -77.01403859 </i>
    <i name="e_0_energy">    -77.01403859 </i>
   </energy>
  </scstep>
  <scstep>
   <time name="diag">    3.14    3.14</time>
   <time name="diis">    6.26    6.26</time>
   <time name="orth">    0.50    0.50</time>
   <time name="total">   10.07   10.08</time>
   <energy>
    <i name="alphaZ">     92.85882409 </i>
    <i name="ewald">  -1946.45307692 </i>
    <i name="hartreedc">   -460.25365354 </i>
    <i name="XCdc">    208.33628917 </i>
    <i name="pawpsdc">    649.96224400 </i>
    <i name="pawaedc">   -667.97441128 </i>
    <i name="eentropy">      0.00000000 </i>
    <i name="bandstr">   -357.84681267 </i>
    <i name="atom">   2404.35655786 </i>
    <i name="e_fr_energy">    -77.01403930 </i>
    <i name="e_wo_entrp">    -77.01403930 </i>
    <i name="e_0_energy">    -77.01403930 </i>
   </energy>
  </scstep>
  <structure>
   <crystal>
    <varray name="basis" >
     <v>       6.26417858       0.00000000       0.00000000 </v>
     <v>       0.00000000       6.26417858       0.00000000 </v>
     <v>       0.00000000       0.00000000       6.26417858 </v>
    </varray>
    <i name="volume">    245.80594912 </i>
    <varray name="rec_basis" >
     <v>       0.15963785       0.00000000       0.00000000 </v>
     <v>       0.00000000       0.15963785       0.00000000 </v>
     <v>       0.00000000       0.00000000       0.15963785 </v>
    </varray>
   </crystal>
   <varray name="positions" >
    <v>       0.44722347       0.80642408       0.55464923 </v>
    <v>       0.43847439       0.05373498       0.30340941 </v>
    <v>       0.44527825       0.13648561       0.63217562 </v>
    <v>       0.72838578       0.99661218       0.49584608 </v>
    <v>       0.62582979       0.53441377       0.19042737 </v>
    <v>       0.55840875       0.66940617       0.86274523 </v>
    <v>       0.58280162       0.31878865       0.90955784 </v>
    <v>       0.30412914       0.49430475       0.03551042 </v>
    <v>       0.10478473       0.02063310       0.19467112 </v>
    <v>       0.04521681       0.15144806       0.86935762 </v>
    <v>       0.06414998       0.80814168       0.91453378 </v>
    <v>       0.78333301       0.97523714       0.04935331 </v>
    <v>       0.09394818       0.54606642       0.70142157 </v>
    <v>       0.03818392       0.67232874       0.37887010 </v>
    <v>       0.05763138       0.31927222       0.42223914 </v>
    <v>       0.77937247       0.49363167       0.55315704 </v>
    <v>       0.51589053       0.99856094       0.49703594 </v>
    <v>       0.51612904       0.50414555       0.00404396 </v>
    <v>       0.99912225       0.99028418       0.00320202 </v>
    <v>       0.99191650       0.50764022       0.51250316 </v>
   </varray>
  </structure>
  <varray name="forces" >
   <v>       0.30075054      -0.37921945       1.46753928 </v>
   <v>      -0.86597254       0.64205816      -0.37862346 </v>
   <v>      -0.06180012       0.02576184       0.20421184 </v>
   <v>       0.00965613      -0.10049969      -0.15560935 </v>
   <v>      -0.02021352      -0.01195543       0.12944312 </v>
   <v>       0.30085448       0.41836658      -0.83027348 </v>
   <v>       0.01657252      -0.70300417      -0.82861128 </v>
   <v>      -0.03145284       0.17191260      -0.41304810 </v>
   <v>       0.81387933       0.47370132       1.27235324 </v>
   <v>       0.36093301      -0.74030543       0.14094750 </v>
   <v>       0.12785936      -0.72266532      -1.10663171 </v>
   <v>      -0.43701751      -0.34704906      -0.06481113 </v>
   <v>       0.02486058       1.54449333       1.32236085 </v>
   <v>       0.32771958      -0.27161037       0.27245566 </v>
   <v>      -0.20178701      -0.21559319      -0.33384027 </v>
   <v>      -0.27353378      -0.14770599      -0.44211296 </v>
   <v>       0.23606735      -0.07823373      -0.10136106 </v>
   <v>      -0.05495169       0.17050073       0.35383186 </v>
   <v>      -0.44438658       0.32078829      -0.17016824 </v>
   <v>      -0.12803731      -0.04974101      -0.33805229 </v>
  </varray>
  <varray name="stress" >
   <v>    -122.97156752       7.06284409     -13.22761801 </v>
   <v>       7.06284406    -153.51759327     -20.80073441 </v>
   <v>     -13.22761803     -20.80073451    -150.24990602 </v>
  </varray>
  <energy>
   <i name="e_fr_energy">    -79.60450683 </i>
   <i name="e_wo_entrp">    -79.60450683 </i>
   <i name="e_0_energy">      0.00000000 </i>
  </energy>
  <time name="totalsc">  209.09  209.21</time>
 </calculation>
 <calculation>
  <scstep>
   <time name="diag">    3.14    3.14</time>
   <time name="diis">    9.79    9.79</time>
   <time name="orth">    0.51    0.51</time>
   <time name="total">   14.23   14.24</time>
   <energy>
    <i name="alphaZ">     92.85882409 </i>
    <i name="ewald">  -2006.53998033 </i>
    <i name="hartreedc">   -417.96103821 </i>
    <i name="XCdc">    207.00918711 </i>
    <i name="pawpsdc">    649.96393656 </i>
    <i name="pawaedc">   -667.97610850 </i>
    <i name="eentropy">      0.00000000 </i>
    <i name="bandstr">   -338.72971857 </i>
    <i name="atom">   2404.35655786 </i>
    <i name="e_fr_energy">    -77.01834000 </i>
    <i name="e_wo_entrp">    -77.01834000 </i>
    <i name="e_0_energy">    -77.01834000 </i>
   </energy>
  </scstep>
  <scstep>
   <time name="diag">    3.12    3.12</time>
   <time name="diis">   10.28   10.29</time>
   <time name="orth">    0.51    0.51</time>
   <time name="total">   14.72   14.72</time>
   <energy>
    <i name="e_fr_energy">    -77.35457317 </i>
    <i name="e_wo_entrp">    -77.35457317 </i>
    <i name="e_0_energy">    -77.35457317 </i>
   </energy>
  </scstep>
  <scstep>
   <time name="diag">    3.12    3.12</time>
   <time name="diis">   12.48   12.49</time>
   <time name="orth">    0.50    0.50</time>
   <time name="total">   16.92   16.92</time>
   <energy>
    <i name="e_fr_energy">    -77.28024141 </i>
    <i name="e_wo_entrp">    -77.28024141 </i>
    <i name="e_0_energy">    -77.28024141 </i>
   </energy>
  </scstep>
  <scstep>
   <time name="diag">    3.12    3.12</time>
   <time name="diis">   12.35   12.35</time>
   <time name="orth">    0.51    0.51</time>
   <time name="total">   16.78   16.79</time>
   <energy>
    <i name="e_fr_energy">    -77.28202429 </i>
    <i name="e_wo_entrp">    -77.28202429 </i>
    <i name="e_0_energy">    -77.28202429 </i>
   </energy>
  </scstep>
  <scstep>
   <time name="diag">    3.17    3.17</time>
   <time name="diis">   11.32   11.33</time>
   <time name="orth">    0.51    0.51</time>
   <time name="total">   15.82   15.83</time>
   <energy>
    <i name="e_fr_energy">    -77.27839451 </i>
    <i name="e_wo_entrp">    -77.27839451 </i>
    <i name="e_0_energy">    -77.27839451 </i>
   </energy>
  </scstep>
  <scstep>
   <time name="diag">    3.17    3.17</time>
   <time name="diis">   11.30   11.31</time>
   <time name="orth">    0.51    0.51</time>
   <time name="total">   15.79   15.79</time>
   <energy>
    <i name="e_fr_energy">    -77.27823817 </i>
    <i name="e_wo_entrp">    -77.27823817 </i>
    <i name="e_0_energy">    -77.27823817 </i>
   </energy>
  </scstep>
  <scstep>
   <time name="diag">    3.15    3.15</time>
   <time name="diis">   10.86   10.87</time>
   <time name="orth">    0.52    0.52</time>
   <time name="total">   15.34   15.36</time>
   <energy>
    <i name="e_fr_energy">    -77.27709280 </i>
    <i name="e_wo_entrp">    -77.27709280 </i>
    <i name="e_0_energy">    -77.27709280 </i>
   </energy>
  </scstep>
  <scstep>
   <time name="diag">    3.18    3.18</time>
   <time name="diis">   12.25   12.25</time>
   <time name="orth">    0.51    0.51</time>
   <time name="total">   16.74   16.75</time>
   <energy>
    <i name="e_fr_energy">    -77.27696925 </i>
    <i name="e_wo_entrp">    -77.27696925 </i>
    <i name="e_0_energy">    -77.27696925 </i>
   </energy>
  </scstep>
  <scstep>
   <time name="diag">    3.16    3.16</time>
   <time name="diis">   11.65   11.65</time>
   <time name="orth">    0.51    0.51</time>
   <time name="total">   16.12   16.13</time>
   <energy>
    <i name="e_fr_energy">    -77.27699821 </i>
    <i name="e_wo_entrp">    -77.27699821 </i>
    <i name="e_0_energy">    -77.27699821 </i>
   </energy>
  </scstep>
  <scstep>
   <time name="diag">    3.13    3.13</time>
   <time name="diis">   11.28   11.28</time>
   <time name="orth">    0.51    0.51</time>
   <time name="total">   15.72   15.72</time>
   <energy>
    <i name="e_fr_energy">    -77.27699109 </i>
    <i name="e_wo_entrp">    -77.27699109 </i>
    <i name="e_0_energy">    -77.27699109 </i>
   </energy>
  </scstep>
  <scstep>
   <time name="diag">    3.33    3.33</time>
   <time name="diis">   11.19   11.20</time>
   <time name="orth">    0.51    0.51</time>
   <time name="total">   15.84   15.85</time>
   <energy>
    <i name="e_fr_energy">    -77.27697916 </i>
    <i name="e_wo_entrp">    -77.27697916 </i>
    <i name="e_0_energy">    -77.27697916 </i>
   </energy>
  </scstep>
  <scstep>
   <time name="diag">    3.20    3.20</time>
   <time name="diis">    8.88    8.88</time>
   <time name="orth">    0.51    0.51</time>
   <time name="total">   13.40   13.41</time>
   <energy>
    <i name="e_fr_energy">    -77.27697764 </i>
    <i name="e_wo_entrp">    -77.27697764 </i>
    <i name="e_0_energy">    -77.27697764 </i>
   </energy>
  </scstep>
  <scstep>
   <time name="diag">    3.18    3.18</time>
   <time name="diis">    6.45    6.45</time>
   <time name="orth">    0.52    0.52</time>
   <time name="total">   10.97   10.98</time>
   <energy>
    <i name="e_fr_energy">    -77.27697519 </i>
    <i name="e_wo_entrp">    -77.27697519 </i>
    <i name="e_0_energy">    -77.27697519 </i>
   </energy>
  </scstep>
  <scstep>
   <time name="diag">    3.19    3.19</time>
   <time name="diis">    6.32    6.33</time>
   <time name="orth">    0.51    0.52</time>
   <time name="total">   10.85   10.85</time>
   <energy>
    <i name="e_fr_energy">    -77.27697632 </i>
    <i name="e_wo_entrp">    -77.27697632 </i>
    <i name="e_0_energy">    -77.27697632 </i>
   </energy>
  </scstep>
  <scstep>
   <time name="diag">    3.21    3.21</time>
   <time name="diis">    6.24    6.24</time>
   <time name="orth">    0.51    0.52</time>
   <time name="total">   10.15   10.15</time>
   <energy>
    <i name="alphaZ">     92.85882409 </i>
    <i name="ewald">  -2006.53998033 </i>
    <i name="hartreedc">   -413.29609812 </i>
    <i name="XCdc">    206.48130342 </i>
    <i name="pawpsdc">    632.18693639 </i>
    <i name="pawaedc">   -650.12140037 </i>
    <i name="eentropy">      0.00000000 </i>
    <i name="bandstr">   -343.20311961 </i>
    <i name="atom">   2404.35655786 </i>
    <i name="e_fr_energy">    -77.27697668 </i>
    <i name="e_wo_entrp">    -77.27697668 </i>
    <i name="e_0_energy">    -77.27697668 </i>
   </energy>
  </scstep>
  <structure>
   <crystal>
    <varray name="basis" >
     <v>       6.26417858       0.00000000       0.00000000 </v>
     <v>       0.00000000       6.26417858       0.00000000 </v>
     <v>       0.00000000       0.00000000       6.26417858 </v>
    </varray>
    <i name="volume">    245.80594912 </i>
    <varray name="rec_basis" >
     <v>       0.15963785       0.00000000       0.00000000 </v>
     <v>       0.00000000       0.15963785       0.00000000 </v>
     <v>       0.00000000       0.00000000       0.15963785 </v>
    </varray>
   </crystal>
   <varray name="positions" >
    <v>       0.44477078       0.79844088       0.55899252 </v>
    <v>       0.43354279       0.05708823       0.29530305 </v>
    <v>       0.44227441       0.14178838       0.63698540 </v>
    <v>       0.73777429       0.99619346       0.49594130 </v>
    <v>       0.63306325       0.53575501       0.20180817 </v>
    <v>       0.56098391       0.67941246       0.85332018 </v>
    <v>       0.58651375       0.30777789       0.90317937 </v>
    <v>       0.29148369       0.49386126       0.03618488 </v>
    <v>       0.11117243       0.02206480       0.20646665 </v>
    <v>       0.04917125       0.16036122       0.86101842 </v>
    <v>       0.06769448       0.79810928       0.90877750 </v>
    <v>       0.76991232       0.97338616       0.05316226 </v>
    <v>       0.09914117       0.54998674       0.71306989 </v>
    <v>       0.04202139       0.68244059       0.37116910 </v>
    <v>       0.06120462       0.30767597       0.41660621 </v>
    <v>       0.76670813       0.49227498       0.55598671 </v>
    <v>       0.51593884       0.99869436       0.49746828 </v>
    <v>       0.51587376       0.50409329       0.00437659 </v>
    <v>       0.99916822       0.99029953       0.00250842 </v>
    <v>       0.99179650       0.50785562       0.51238504 </v>
   </varray>
  </structure>
  <varray name="forces" >
   <v>       0.65160070      -0.38015974       1.79024164 </v>
   <v>      -1.06740799       0.29973743      -0.21356319 </v>
   <v>       0.19308313       0.22421468       0.62243740 </v>
   <v>      -0.76414299      -0.06232265      -0.28500841 </v>
   <v>       0.06294725      -0.04818280       0.38069254 </v>
   <v>       0.02244425       0.22792332      -1.01361461 </v>
   <v>      -0.30542500      -0.52789468      -0.84790185 </v>
   <v>       0.29460857       0.28688039      -0.73213020 </v>
   <v>       1.06547559       0.86074290       1.30338045 </v>
   <v>       0.25479730      -0.85081577       0.47058297 </v>
   <v>       0.26694448      -1.48132377      -1.47482230 </v>
   <v>      -0.33972029      -0.18276849      -0.31357690 </v>
   <v>      -0.11997859       2.00158971       1.68630046 </v>
   <v>       0.15589888      -0.27297673       0.30756162 </v>
   <v>      -0.20434677      -0.55858485      -0.39522442 </v>
   <v>      -0.00552985       0.07267642      -0.88068028 </v>
   <v>       0.59397304      -0.10966670      -0.25467334 </v>
   <v>      -0.18007928       0.08944915       0.08072308 </v>
   <v>      -0.31466915       0.45288640       0.04390951 </v>
   <v>      -0.26047329      -0.04140424      -0.27463419 </v>
  </varray>
  <varray name="stress" >
   <v>    -178.59929137       6.99529238     -20.96819947 </v>
   <v>       6.99529241    -204.04283494     -18.03838208 </v>
   <v>     -20.96819946     -18.03838210    -212.83104102 </v>
  </varray>
  <energy>
   <i name="e_fr_energy">    -80.14744588 </i>
   <i name="e_wo_entrp">    -80.14744588 </i>
   <i name="e_0_energy">      0.00000000 </i>
  </energy>
  <time name="totalsc">  238.59  238.72</time>
 </calculation>
 <calculation>
  <scstep>
   <time name="diag">    3.23    3.23</time>
   <time name="diis">    9.89    9.90</time>
   <time name="orth">    0.52    0.52</time>
   <time name="total">   14.47   14.48</time>
   <energy>
    <i name="alphaZ">     92.85882409 </i>
    <i name="ewald">  -2061.73555132 </i>
    <i name="hartreedc">   -374.70318491 </i>
    <i name="XCdc">    205.25592709 </i>
    <i name="pawpsdc">    632.18797994 </i>
    <i name="pawaedc">   -650.12243924 </i>
    <i name="eentropy">      0.00000000 </i>
    <i name="bandstr">   -326.66489375 </i>
    <i name="atom">   2404.35655786 </i>
    <i name="e_fr_energy">    -78.56678025 </i>
    <i name="e_wo_entrp">    -78.56678025 </i>
    <i name="e_0_energy">    -78.56678025 </i>
   </energy>
  </scstep>
  <scstep>
   <time name="diag">    3.20    3.21</time>
   <time name="diis">    9.89    9.89</time>
   <time name="orth">    0.51    0.52</time>
   <time name="total">   14.42   14.42</time>
   <energy>
    <i name="e_fr_energy">    -80.45000936 </i>
    <i name="e_wo_entrp">    -80.45000936 </i>
    <i name="e_0_energy">    -80.45000936 </i>
   </energy>
  </scstep>
  <scstep>
   <time name="diag">    3.21    3.21</time>
   <time name="diis">   12.54   12.54</time>
   <time name="orth">    0.51    0.51</time>
   <time name="total">   17.07   17.08</time>
   <energy>
    <i name="e_fr_energy">    -79.92684056 </i>
    <i name="e_wo_entrp">    -79.92684056 </i>
    <i name="e_0_energy">    -79.92684056 </i>
   </energy>
  </scstep>
  <scstep>
   <time name="diag">    3.22    3.22</time>
   <time name="diis">   12.23   12.23</time>
   <time name="orth">    0.51    0.51</time>
   <time name="total">   16.76   16.76</time>
   <energy>
    <i name="e_fr_energy">    -79.84961519 </i>
    <i name="e_wo_entrp">    -79.84961519 </i>
    <i name="e_0_energy">    -79.84961519 </i>
   </energy>
  </scstep>
  <scstep>
   <time name="diag">    3.20    3.21</time>
   <time name="diis">   11.98   11.98</time>
   <time name="orth">    0.51    0.51</time>
   <time name="total">   16.51   16.53</time>
   <energy>
    <i name="e_fr_energy">    -79.81251114 </i>
    <i name="e_wo_entrp">    -79.81251114 </i>
    <i name="e_0_energy">    -79.81251114 </i>
   </energy>
  </scstep>
  <scstep>
   <time name="diag">    3.21    3.21</time>
   <time name="diis">   10.97   10.98</time>
   <time name="orth">    0.51    0.51</time>
   <time name="total">   15.52   15.52</time>
   <energy>
    <i name="e_fr_energy">    -79.79911739 </i>
    <i name="e_wo_entrp">    -79.79911739 </i>
    <i name="e_0_energy">    -79.79911739 </i>
   </energy>
  </scstep>
  <scstep>
   <time name="diag">    3.20    3.21</time>
