diamond                                 
           1
     6.264179    0.000000    0.000000
     0.000000    6.264179    0.000000
     0.000000    0.000000    6.264179
   H    C 
  16   4
Direct configuration=     1
   0.45587999  0.83459997  0.53931999
   0.45587999  0.04190000  0.33202001
   0.45587999  0.11777000  0.61519998
   0.69524998  0.99809003  0.49551001
   0.60030001  0.52968001  0.15026000
   0.54931998  0.63409001  0.89600998
   0.56970000  0.35765001  0.93207002
   0.34876001  0.49586999  0.03313000
   0.08223999  0.01558006  0.15304001
   0.03126001  0.11998999  0.89879000
   0.05164003  0.84355003  0.93484998
   0.83069998  0.98176998  0.03591000
   0.07562006  0.53223002  0.66030997
   0.02463996  0.63664001  0.40605000
   0.04501998  0.36019999  0.44211999
   0.82406998  0.49842000  0.54316997
   0.51572001  0.99809003  0.49551001
   0.51703000  0.50432998  0.00287000
   0.99896002  0.99023002  0.00565000
   0.99234003  0.50687998  0.51292002
Direct configuration=     2
   0.44844981  0.81041568  0.55247758
   0.44094019  0.05205835  0.30746260
   0.44678017  0.13383422  0.62977073
   0.72369152  0.99682154  0.49579847
   0.62221306  0.53374315  0.18473698
   0.55712117  0.66440303  0.86745775
   0.58094555  0.32429403  0.91274708
   0.31045187  0.49452649  0.03517319
   0.10159088  0.01991725  0.18877336
   0.04323959  0.14699149  0.87352722
   0.06237773  0.81315788  0.91741192
   0.79004336  0.97616263  0.04744884
   0.09135169  0.54410625  0.69559740
   0.03626519  0.66727282  0.38272060
   0.05584476  0.32507034  0.42505560
   0.78570464  0.49431002  0.55174220
   0.51586637  0.99849423  0.49681976
   0.51625667  0.50417168  0.00387765
   0.99909927  0.99027651  0.00354882
   0.99197650  0.50753252  0.51256221
Direct configuration=     3
   0.44722347  0.80642408  0.55464923
   0.43847439  0.05373498  0.30340941
   0.44527825  0.13648561  0.63217562
   0.72838578  0.99661218  0.49584608
   0.62582979  0.53441377  0.19042737
   0.55840875  0.66940617  0.86274523
   0.58280162  0.31878865  0.90955784
   0.30412914  0.49430475  0.03551042
   0.10478473  0.02063310  0.19467112
   0.04521681  0.15144806  0.86935762
   0.06414998  0.80814168  0.91453378
   0.78333301  0.97523714  0.04935331
   0.09394818  0.54606642  0.70142157
   0.03818392  0.67232874  0.37887010
   0.05763138  0.31927222  0.42223914
   0.77937247  0.49363167  0.55315704
   0.51589053  0.99856094  0.49703594
   0.51612904  0.50414555  0.00404396
   0.99912225  0.99028418  0.00320202
   0.99191650  0.50764022  0.51250316
Direct configuration=     4
   0.44477078  0.79844088  0.55899252
   0.43354279  0.05708823  0.29530305
   0.44227441  0.14178838  0.63698540
   0.73777429  0.99619346  0.49594130
   0.63306325  0.53575501  0.20180817
   0.56098391  0.67941246  0.85332018
   0.58651375  0.30777789  0.90317937
   0.29148369  0.49386126  0.03618488
   0.11117243  0.02206480  0.20646665
   0.04917125  0.16036122  0.86101842
   0.06769448  0.79810928  0.90877750
   0.76991232  0.97338616  0.05316226
   0.09914117  0.54998674  0.71306989
   0.04202139  0.68244059  0.37116910
   0.06120462  0.30767597  0.41660621
   0.76670813  0.49227498  0.55598671
   0.51593884  0.99869436  0.49746828
   0.51587376  0.50409329  0.00437659
   0.99916822  0.99029953  0.00250842
   0.99179650  0.50785562  0.51238504
