diamond                                 
           1
     6.264179    0.000000    0.000000
     0.000000    6.264179    0.000000
     0.000000    0.000000    6.264179
   H    C 
  16   4
Direct configuration=     1
   0.45587999  0.83459997  0.53931999
   0.45587999  0.04190000  0.33202001
   0.45587999  0.11777000  0.61519998
   0.69524998  0.99809003  0.49551001
   0.60030001  0.52968001  0.15026000
   0.54931998  0.63409001  0.89600998
   0.56970000  0.35765001  0.93207002
   0.34876001  0.49586999  0.03313000
   0.08223999  0.01558006  0.15304001
   0.03126001  0.11998999  0.89879000
   0.05164003  0.84355003  0.93484998
   0.83069998  0.98176998  0.03591000
   0.07562006  0.53223002  0.66030997
   0.02463996  0.63664001  0.40605000
   0.04501998  0.36019999  0.44211999
   0.82406998  0.49842000  0.54316997
   0.51572001  0.99809003  0.49551001
   0.51703000  0.50432998  0.00287000
   0.99896002  0.99023002  0.00565000
   0.99234003  0.50687998  0.51292002
Direct configuration=     2
   0.44844654  0.81040808  0.55247970
   0.44093696  0.05205917  0.30745639
   0.44677945  0.13383816  0.62977562
   0.72370049  0.99682227  0.49579968
   0.62221218  0.53374176  0.18473487
   0.55711882  0.66439856  0.86746145
   0.58094410  0.32429881  0.91274880
   0.31045736  0.49452799  0.03517147
   0.10158895  0.01991713  0.18877029
   0.04323948  0.14698933  0.87352971
   0.06237642  0.81316051  0.91741432
   0.79004837  0.97616270  0.04744924
   0.09134932  0.54410489  0.69559277
   0.03626400  0.66726902  0.38272407
   0.05584280  0.32507574  0.42505754
   0.78571013  0.49431092  0.55174148
   0.51586407  0.99849876  0.49682225
   0.51625531  0.50416827  0.00387100
   0.99910195  0.99027339  0.00354879
   0.99197326  0.50753466  0.51256050
Direct configuration=     3
   0.44721944  0.80641456  0.55465207
   0.43847022  0.05373622  0.30340150
   0.44527717  0.13649064  0.63218172
   0.72839702  0.99661299  0.49584750
   0.62582937  0.53441227  0.19042587
   0.55840623  0.66940180  0.86274875
   0.58280025  0.31879330  0.90955931
   0.30413447  0.49430646  0.03550847
   0.10478302  0.02063308  0.19466854
   0.04521702  0.15144630  0.86935981
   0.06414875  0.80814390  0.91453610
   0.78333773  0.97523707  0.04935410
   0.09394586  0.54606516  0.70141715
   0.03818286  0.67232516  0.37887350
   0.05762940  0.31927753  0.42224092
   0.77937781  0.49363261  0.55315644
   0.51588785  0.99856623  0.49703887
   0.51612742  0.50414157  0.00403624
   0.99912538  0.99028055  0.00320193
   0.99191272  0.50764273  0.51250115
Direct configuration=     4
   0.44476526  0.79842751  0.55899680
   0.43353672  0.05709031  0.29529173
   0.44227259  0.14179561  0.63699392
   0.73779007  0.99619443  0.49594313
   0.63306376  0.53575327  0.20180788
   0.56098105  0.67940829  0.85332334
   0.58651253  0.30778227  0.90318034
   0.29148870  0.49386339  0.03618247
   0.11117116  0.02206499  0.20646503
   0.04917209  0.16036024  0.86102003
   0.06769341  0.79811068  0.90877965
   0.76991644  0.97338581  0.05316383
   0.09913894  0.54998569  0.71306591
   0.04202059  0.68243745  0.37117235
   0.06120259  0.30768112  0.41660769
   0.76671315  0.49227598  0.55598635
   0.51593542  0.99870118  0.49747210
   0.51587166  0.50408818  0.00436673
   0.99917224  0.99029487  0.00250821
   0.99179163  0.50785887  0.51238246
Direct configuration=     5
   0.43985690  0.78245341  0.56768625
   0.42366972  0.06379848  0.27907217
   0.43626344  0.15240554  0.64661833
   0.75657617  0.99535732  0.49613440
   0.64753254  0.53843527  0.22457191
   0.56613068  0.69942126  0.83447252
   0.59393710  0.28576021  0.89042239
   0.26619716  0.49297726  0.03753047
   0.12394744  0.02492879  0.23005802
   0.05708223  0.17818812  0.84434046
   0.07478273  0.77804424  0.89726675
   0.74307387  0.96968328  0.06078328
   0.10952509  0.55782676  0.73636342
   0.04969603  0.70266203  0.35577006
   0.06834898  0.28448830  0.40534122
   0.74138385  0.48956272  0.56164619
   0.51603054  0.99897106  0.49833858
   0.51536012  0.50398140  0.00502770
   0.99926596  0.99032350  0.00112077
   0.99154945  0.50829115  0.51214506
Direct configuration=     6
   0.43004016  0.75050522  0.58506517
   0.40393573  0.07721484  0.24663307
   0.42424513  0.17362540  0.66586714
   0.79414838  0.99368309  0.49651694
   0.67647009  0.54379929  0.27009996
   0.57642995  0.73944721  0.79677088
   0.60878623  0.24171609  0.86490648
   0.21561408  0.49120499  0.04022647
   0.14949999  0.03065640  0.27724399
   0.07290250  0.21384387  0.81098131
   0.08896137  0.73791137  0.87424095
   0.68938872  0.96227823  0.07602219
   0.13029741  0.57350890  0.78295845
   0.06504692  0.74311118  0.32496547
   0.08264176  0.23810266  0.38280828
   0.69072523  0.48413620  0.57296585
   0.51622079  0.99951084  0.50007154
   0.51433705  0.50376784  0.00634963
   0.99945341  0.99038078 -0.00165411
   0.99106509  0.50915572  0.51167028
Direct configuration=     7
   0.45527223  0.72911347  0.62307626
   0.37400599  0.07426197  0.22995033
   0.43813961  0.19329968  0.70332944
   0.81374742  0.99003858  0.49210929
   0.69264844  0.54411039  0.32178735
   0.56945067  0.75823170  0.74604887
   0.59461294  0.20866080  0.82852588
   0.18630443  0.49563637  0.02791394
   0.18210429  0.04387351  0.31326231
   0.09297374  0.24040535  0.79034017
   0.08163651  0.77181913  0.89659983
   0.64783562  0.96558262  0.07678707
   0.15010934  0.52104928  0.79077316
   0.07339214  0.77893083  0.30823026
   0.09131493  0.18626270  0.36315804
   0.65678789  0.49519298  0.56053907
   0.51553913  0.00396777  0.50269694
   0.51144307  0.50145430  0.00764520
   0.00176114  0.98513066 -0.00878452
   0.99113045  0.51053803  0.51072107
Direct configuration=     8
   0.44485561  0.73794469  0.60738404
   0.38636197  0.07548101  0.23683751
   0.43240351  0.18517749  0.68786378
   0.80565629  0.99154316  0.49392891
   0.68596949  0.54398196  0.30044910
   0.57233195  0.75047685  0.76698858
   0.60046414  0.22230711  0.84354499
   0.19840442  0.49380695  0.03299696
   0.16864416  0.03841705  0.29839276
   0.08468767  0.22943990  0.79886151
   0.08466045  0.75782089  0.88736935
   0.66499010  0.96421846  0.07647130
   0.14193032  0.54270633  0.78754699
   0.06994696  0.76414330  0.31513910
   0.08773436  0.20766394  0.37127030
   0.67079834  0.49062838  0.56566926
   0.51582054  0.00212780  0.50161309
   0.51263780  0.50240941  0.00711035
   0.00080843  0.98729808 -0.00584085
   0.99110347  0.50996737  0.51111294
Direct configuration=     9
   0.45976997  0.72118563  0.61825919
   0.37128171  0.06567332  0.22663120
   0.45539324  0.20074331  0.72915357
   0.81777593  0.98830236  0.48563057
   0.69394891  0.54001700  0.35980593
   0.58111495  0.76003955  0.74723308
   0.57229038  0.19727645  0.80989367
   0.18020907  0.50351525  0.01055885
   0.21065383  0.01593699  0.30657804
   0.10863122  0.25778458  0.78327958
   0.08353221  0.75934757  0.90030146
   0.62861881  0.97312880  0.07147966
   0.14283240  0.52078330  0.81490559
   0.07418355  0.79359144  0.30708429
   0.07153678  0.19693382  0.37392704
   0.64802570  0.50879746  0.53444970
   0.51650086  0.00920159  0.50408067
   0.50912382  0.49784607  0.00921358
   0.00386392  0.97594128 -0.01786463
   0.99092272  0.51151435  0.51010888
Direct configuration=    10
   0.44691610  0.73562934  0.60888649
   0.38427856  0.07412603  0.23542746
   0.43557965  0.18732798  0.69356816
   0.80733068  0.99109542  0.49278245
   0.68707188  0.54343418  0.30864953
   0.57354536  0.75179798  0.76425926
   0.59657180  0.21884900  0.83889589
   0.19589064  0.49514820  0.02989703
   0.17444800  0.03531132  0.29952360
   0.08799559  0.23335586  0.79670879
   0.08450458  0.75803181  0.88915598
   0.65996523  0.96544947  0.07578168
   0.14205495  0.53967756  0.79132671
   0.07053226  0.76821170  0.31402629
   0.08549659  0.20618152  0.37163734
   0.66765219  0.49313852  0.56135612
   0.51591453  0.00310508  0.50195400
   0.51215232  0.50177896  0.00740092
   0.00123056  0.98572908 -0.00750200
   0.99107850  0.51018109  0.51097422
Direct configuration=    11
   0.44842263  0.73393647  0.60998502
   0.38275527  0.07313534  0.23439650
   0.43790189  0.18890032  0.69773893
   0.80855491  0.99076806  0.49194422
   0.68787790  0.54303367  0.31464529
   0.57443255  0.75276393  0.76226372
   0.59372591  0.21632060  0.83549670
   0.19405269  0.49612885  0.02763051
   0.17869149  0.03304057  0.30035041
   0.09041418  0.23621901  0.79513483
   0.08439061  0.75818602  0.89046228
   0.65629129  0.96634952  0.07527747
   0.14214607  0.53746307  0.79409026
   0.07096021  0.77118632  0.31321266
   0.08386044  0.20509765  0.37190571
   0.66535188  0.49497382  0.55820257
   0.51598325  0.00381962  0.50220325
   0.51179737  0.50131801  0.00761337
   0.00153920  0.98458191 -0.00871654
   0.99106024  0.51033735  0.51087280
Direct configuration=    12
   0.45264334  0.72919372  0.61306264
   0.37848761  0.07035980  0.23150815
   0.44440790  0.19330539  0.70942379
   0.81198472  0.98985093  0.48959582
   0.69013605  0.54191160  0.33144305
   0.57691811  0.75547014  0.75667299
   0.58575284  0.20923702  0.82597351
   0.18890348  0.49887626  0.02128061
   0.19058006  0.02667879  0.30266682
   0.09719011  0.24424045  0.79072520
   0.08407133  0.75861807  0.89412202
   0.64599835  0.96887111  0.07386485
   0.14240136  0.53125893  0.80183264
   0.07215915  0.77952004  0.31093318
   0.07927658  0.20206106  0.37265755
   0.65890731  0.50011560  0.54936755
   0.51617578  0.00582147  0.50290157
   0.51080293  0.50002660  0.00820858
   0.00240390  0.98136797 -0.01211923
   0.99100909  0.51077515  0.51058865
Direct configuration=    13
   0.45079730  0.73126808  0.61171656
   0.38035418  0.07157375  0.23277145
   0.44156233  0.19137872  0.70431312
   0.81048461  0.99025206  0.49062295
   0.68914839  0.54240237  0.32409612
   0.57583099  0.75428651  0.75911824
   0.58924006  0.21233521  0.83013872
   0.19115562  0.49767461  0.02405790
   0.18538029  0.02946128  0.30165368
   0.09422649  0.24073207  0.79265387
   0.08421098  0.75842910  0.89252134
   0.65050023  0.96776823  0.07448270
   0.14228970  0.53397247  0.79844632
   0.07163476  0.77587507  0.31193017
   0.08128145  0.20338919  0.37232871
   0.66172600  0.49786671  0.55323177
   0.51609157  0.00494591  0.50259614
   0.51123787  0.50059143  0.00794825
   0.00202570  0.98277367 -0.01063098
   0.99103146  0.51058367  0.51071293
Direct configuration=    14
   0.44791279  0.71446773  0.59391479
   0.38959840  0.06040372  0.22180700
   0.43285499  0.19794618  0.71494685
   0.81903383  0.98934219  0.47955447
   0.69071295  0.53646444  0.37710656
   0.60159010  0.76034922  0.77258126
   0.58913890  0.19730956  0.83209857
   0.18289800  0.50938844  0.00441857
   0.20677231  0.00435192  0.30458155
   0.11758095  0.26742325  0.78007566
   0.08584230  0.74449720  0.90077753
   0.61968001  0.97993707  0.06715067
   0.13278091  0.52874282  0.82721791
   0.07436052  0.80035886  0.30972417
   0.05938541  0.19939269  0.38162583
   0.64784028  0.52005465  0.51785784
   0.51912888  0.01168781  0.50430435
   0.50732903  0.49612556  0.01018196
   0.00590227  0.96776612 -0.02373380
   0.98986715  0.51155069  0.50851821
Direct configuration=    15
   0.45023254  0.72797868  0.60823109
   0.38216414  0.06938673  0.23062467
   0.43985749  0.19266459  0.70639514
   0.81215849  0.99007391  0.48845581
   0.68945472  0.54123976  0.33447524
   0.58087446  0.75547355  0.76175421
   0.58922026  0.20939328  0.83052245
   0.18953883  0.49996811  0.02021264
   0.18956872  0.02454502  0.30222694
   0.09879915  0.24595804  0.79019113
   0.08453038  0.75570132  0.89413785
   0.64446582  0.97015081  0.07304713
   0.14042794  0.53294854  0.80407962
   0.07216845  0.78066885  0.31149825
   0.07699434  0.20260670  0.37414903
   0.65900726  0.50221098  0.54630577
   0.51668626  0.00626593  0.50293060
   0.51047254  0.49971704  0.00838560
   0.00278471  0.97983528 -0.01319643
   0.99080350  0.51077300  0.51028322
Direct configuration=    16
   0.44989939  0.72603831  0.60617505
   0.38323181  0.06809663  0.22935833
   0.43885182  0.19342310  0.70762329
   0.81314589  0.98996883  0.48717745
   0.68963542  0.54055395  0.34059773
   0.58384953  0.75617377  0.76330914
   0.58920857  0.20765788  0.83074880
   0.18858511  0.50132101  0.01794438
   0.19203941  0.02164499  0.30256510
   0.10149649  0.24904076  0.78873840
   0.08471879  0.75409224  0.89509141
   0.64090621  0.97155626  0.07220031
   0.13932971  0.53234453  0.80740262
   0.07248326  0.78349663  0.31124346
   0.07446543  0.20214512  0.37522281
   0.65740352  0.50477359  0.54222023
   0.51703706  0.00704460  0.50312789
   0.51002109  0.49920125  0.00864358
   0.00323244  0.97810197 -0.01470975
   0.99066902  0.51088469  0.51002974
Direct configuration=    17
   0.44938855  0.72306302  0.60302242
   0.38486893  0.06611846  0.22741656
   0.43730978  0.19458618  0.70950649
   0.81465993  0.98980769  0.48521726
   0.68991250  0.53950237  0.34998570
   0.58841138  0.75724746  0.76569339
   0.58919066  0.20499689  0.83109588
   0.18712271  0.50339549  0.01446632
   0.19582786  0.01719821  0.30308361
   0.10563249  0.25376768  0.78651084
   0.08500769  0.75162495  0.89655355
   0.63544806  0.97371132  0.07090184
   0.13764574  0.53141838  0.81249797
   0.07296599  0.78783262  0.31085279
   0.07058772  0.20143735  0.37686930
   0.65494441  0.50870300  0.53595562
   0.51757495  0.00823856  0.50343041
   0.50932885  0.49841036  0.00903916
   0.00391896  0.97544418 -0.01703022
   0.99046283  0.51105595  0.50964106
Direct configuration=    18
   0.45823613  0.70776126  0.59376971
   0.40860671  0.05367047  0.21379876
   0.41160284  0.19822715  0.70737668
   0.82386852  0.99197424  0.47138814
   0.69632630  0.53780182  0.35934596
   0.60307818  0.75799916  0.77356476
   0.60217293  0.19108750  0.85135126
   0.18767222  0.51683820  0.01297947
   0.20206521 -0.00450079  0.30610956
   0.13012234  0.27976629  0.77264058
   0.08699514  0.73198384  0.90458519
   0.60391103  0.98997158  0.06303399
   0.12011494  0.53379240  0.82573875
   0.07630259  0.81483278  0.31225595
   0.04915670  0.19036753  0.38791831
   0.63570239  0.52999047  0.53890514
   0.52205729  0.01482254  0.50474210
   0.50516655  0.49455590  0.01095363
   0.00927245  0.95576631 -0.03147185
   0.98777955  0.51085146  0.50572386
Direct configuration=    19
   0.46750830  0.69172519  0.58407298
   0.43348360  0.04062513  0.19952747
   0.38466228  0.20204285  0.70514468
   0.83351900  0.99424476  0.45689540
   0.70304788  0.53601967  0.36915541
   0.61844880  0.75878694  0.78181385
   0.61577819  0.17651063  0.87257864
   0.18824809  0.53092599  0.01142127
   0.20860188 -0.02724108  0.30928071
   0.15578740  0.30701253  0.75810471
   0.08907797  0.71140020  0.91300225
   0.57086061  0.00701213  0.05478858
   0.10174287  0.53628034  0.83961494
   0.07979931  0.84312861  0.31372645
   0.02669724  0.17876649  0.39949754
   0.61553698  0.55229949  0.54199620
   0.52675473  0.02172247  0.50611673
   0.50080451  0.49051648  0.01295996
   0.01488284  0.93514414 -0.04660650
   0.98496750  0.51063717  0.50161869
Direct configuration=    20
   0.46271434  0.70001627  0.58908645
   0.42062158  0.04736992  0.20690611
   0.39859128  0.20007003  0.70629869
   0.82852944  0.99307084  0.46438853
   0.69957264  0.53694109  0.36408366
   0.61050178  0.75837964  0.77754885
   0.60874390  0.18404726  0.86160351
   0.18795035  0.52364222  0.01222690
   0.20522225 -0.01548374  0.30764114
   0.14251788  0.29292549  0.76562014
   0.08800109  0.72204249  0.90865040
   0.58794856 -0.00179829  0.05905167
   0.11124172  0.53499401  0.83244058
   0.07799141  0.82849890  0.31296616
   0.03830938  0.18476454  0.39351077
   0.62596304  0.54076513  0.54039804
   0.52432603  0.01815502  0.50540601
   0.50305980  0.49260497  0.01192263
   0.01198212  0.94580636 -0.03878148
   0.98642140  0.51074797  0.50374117
