diamond                                 
           1
    11.549666    0.000000    0.000000
     0.000000    8.078620    0.000000
     0.000000    0.000000    8.073589
   H    C 
  64  16
Direct configuration=     1
   0.07280000  0.78549999  0.18230000
   0.92720002  0.21450001  0.81770003
   0.92720002  0.71450001  0.68229997
   0.07280000  0.28549999  0.31770000
   0.92720002  0.28549999  0.31770000
   0.07280000  0.71450001  0.68229997
   0.07280000  0.21450001  0.81770003
   0.92720002  0.78549999  0.18230000
   0.57279998  0.28549999  0.18230000
   0.42719999  0.71450001  0.81770003
   0.42719999  0.21450001  0.68229997
   0.57279998  0.78549999  0.31770000
   0.42719999  0.78549999  0.31770000
   0.57279998  0.21450001  0.68229997
   0.57279998  0.71450001  0.81770003
   0.42719999  0.28549999  0.18230000
   0.80100000  0.57950002  0.93360001
   0.19900000  0.42049998  0.06639999
   0.19900000  0.92049998  0.43360001
   0.80100000  0.07950002  0.56639999
   0.19900000  0.07950002  0.56639999
   0.80100000  0.92049998  0.43360001
   0.80100000  0.42049998  0.06639999
   0.19900000  0.57950002  0.93360001
   0.30100000  0.07950002  0.93360001
   0.69900000  0.92049998  0.06639999
   0.69900000  0.42049998  0.43360001
   0.30100000  0.57950002  0.56639999
   0.69900000  0.57950002  0.56639999
   0.30100000  0.42049998  0.43360001
   0.30100000  0.92049998  0.06639999
   0.69900000  0.07950002  0.93360001
   0.69859999  0.56629997  0.07959998
   0.30140001  0.43370003  0.92040002
   0.30140001  0.93370003  0.57959998
   0.69859999  0.06629997  0.42040002
   0.30140001  0.06629997  0.42040002
   0.69859999  0.93370003  0.57959998
   0.69859999  0.43370003  0.92040002
   0.30140001  0.56629997  0.07959998
   0.19859999  0.06629997  0.07959998
   0.80140001  0.93370003  0.92040002
   0.80140001  0.43370003  0.57959998
   0.19859999  0.56629997  0.42040002
   0.80140001  0.56629997  0.42040002
   0.19859999  0.43370003  0.57959998
   0.19859999  0.93370003  0.92040002
   0.80140001  0.06629997  0.07959998
   0.00000000  0.60589999  0.19920000
   0.00000000  0.39410001  0.80079997
   0.00000000  0.89410001  0.69920003
   0.00000000  0.10589999  0.30080000
   0.50000000  0.10589999  0.19920000
   0.50000000  0.89410001  0.80079997
   0.50000000  0.39410001  0.69920003
   0.50000000  0.60589999  0.30080000
   0.00000000  0.74159998  0.78549999
   0.00000000  0.25840002  0.21450001
   0.00000000  0.75840002  0.28549999
   0.00000000  0.24159998  0.71450001
   0.50000000  0.24159998  0.78549999
   0.50000000  0.75840002  0.21450001
   0.50000000  0.25840002  0.28549999
   0.50000000  0.74159998  0.71450001
   0.00000000  0.72960001  0.23029999
   0.00000000  0.27039999  0.76969999
   0.00000000  0.77039999  0.73030001
   0.00000000  0.22960001  0.26969999
   0.50000000  0.22960001  0.23029999
   0.50000000  0.77039999  0.76969999
   0.50000000  0.27039999  0.73030001
   0.50000000  0.72960001  0.26969999
   0.74980003  0.50000000  0.00000000
   0.25019997  0.50000000  0.00000000
   0.25019997  0.00000000  0.50000000
   0.74980003  0.00000000  0.50000000
   0.24980003  0.00000000  0.00000000
   0.75019997  0.00000000  0.00000000
   0.75019997  0.50000000  0.50000000
   0.24980003  0.50000000  0.50000000
Direct configuration=     2
   0.08050548  0.79002852  0.17005523
   0.91949454  0.20997148  0.82994480
   0.91949454  0.70997148  0.67005520
   0.08050548  0.29002852  0.32994477
   0.91949454  0.29002852  0.32994477
   0.08050548  0.70997148  0.67005520
   0.08050548  0.20997148  0.82994480
   0.91949454  0.79002852  0.17005523
   0.58050546  0.29002852  0.17005523
   0.41949451  0.70997148  0.82994480
   0.41949451  0.20997148  0.67005520
   0.58050546  0.79002852  0.32994477
   0.41949451  0.79002852  0.32994477
   0.58050546  0.20997148  0.67005520
   0.58050546  0.70997148  0.82994480
   0.41949451  0.29002852  0.17005523
   0.80785206  0.59013384  0.92481171
   0.19214794  0.40986616  0.07518829
   0.19214794  0.90986616  0.42481171
   0.80785206  0.09013384  0.57518829
   0.19214794  0.09013384  0.57518829
   0.80785206  0.90986616  0.42481171
   0.80785206  0.40986616  0.07518829
   0.19214794  0.59013384  0.92481171
   0.30785206  0.09013384  0.92481171
   0.69214794  0.90986616  0.07518829
   0.69214794  0.40986616  0.42481171
   0.30785206  0.59013384  0.57518829
   0.69214794  0.59013384  0.57518829
   0.30785206  0.40986616  0.42481171
   0.30785206  0.90986616  0.07518829
   0.69214794  0.09013384  0.92481171
   0.69176013  0.57515843  0.09016228
   0.30823987  0.42484157  0.90983772
   0.30823987  0.92484157  0.59016228
   0.69176013  0.07515843  0.40983772
   0.30823987  0.07515843  0.40983772
   0.69176013  0.92484157  0.59016228
   0.69176013  0.42484157  0.90983772
   0.30823987  0.57515843  0.09016228
   0.19176013  0.07515843  0.09016228
   0.80823987  0.92484157  0.90983772
   0.80823987  0.42484157  0.59016228
   0.19176013  0.57515843  0.40983772
   0.80823987  0.57515843  0.40983772
   0.19176013  0.42484157  0.59016228
   0.19176013  0.92484157  0.90983772
   0.80823987  0.07515843  0.09016228
   0.00000000  0.59424514  0.20136740
   0.00000000  0.40575486  0.79863257
   0.00000000  0.90575486  0.70136743
   0.00000000  0.09424514  0.29863260
   0.50000000  0.09424514  0.20136740
   0.50000000  0.90575486  0.79863257
   0.50000000  0.40575486  0.70136743
   0.50000000  0.59424514  0.29863260
   0.00000000  0.30281263  0.68073279
   0.00000000  0.69718737 -0.68073279
   0.00000000  0.19718737  0.18073279
   0.00000000 -0.19718737 -0.18073279
   0.50000000 -0.19718737  0.68073279
   0.50000000  0.19718737 -0.68073279
   0.50000000  0.69718737  0.18073279
   0.50000000  0.30281263 -0.18073279
   0.00000000  0.29339755 -0.64263275
   0.00000000  0.70660245  0.64263274
   0.00000000  0.20660245 -0.14263274
   0.00000000 -0.20660245  0.14263274
   0.50000000 -0.20660245 -0.64263275
   0.50000000  0.20660245  0.64263274
   0.50000000  0.70660245 -0.14263274
   0.50000000  0.29339755  0.14263274
   0.74979967  0.50000000 -0.00000000
   0.25020033  0.50000000 -0.00000000
   0.25020033  0.00000000  0.50000000
   0.74979967 -0.00000000  0.50000000
   0.24979967  0.00000000 -0.00000000
   0.75020033  0.00000000 -0.00000000
   0.75020033  0.50000000  0.50000000
   0.24979967  0.50000000  0.50000000
Direct configuration=     3
   0.08062746  0.79010021  0.16986138
   0.91937256  0.20989979  0.83013865
   0.91937256  0.70989979  0.66986135
   0.08062746  0.29010021  0.33013862
   0.91937256  0.29010021  0.33013862
   0.08062746  0.70989979  0.66986135
   0.08062746  0.20989979  0.83013865
   0.91937256  0.79010021  0.16986138
   0.58062744  0.29010021  0.16986138
   0.41937253  0.70989979  0.83013865
   0.41937253  0.20989979  0.66986135
   0.58062744  0.79010021  0.33013862
   0.41937253  0.79010021  0.33013862
   0.58062744  0.20989979  0.66986135
   0.58062744  0.70989979  0.83013865
   0.41937253  0.29010021  0.16986138
   0.80796054  0.59030219  0.92467258
   0.19203946  0.40969781  0.07532742
   0.19203946  0.90969781  0.42467258
   0.80796054  0.09030219  0.57532742
   0.19203946  0.09030219  0.57532742
   0.80796054  0.90969781  0.42467258
   0.80796054  0.40969781  0.07532742
   0.19203946  0.59030219  0.92467258
   0.30796054  0.09030219  0.92467258
   0.69203946  0.90969781  0.07532742
   0.69203946  0.40969781  0.42467258
   0.30796054  0.59030219  0.57532742
   0.69203946  0.59030219  0.57532742
   0.30796054  0.40969781  0.42467258
   0.30796054  0.90969781  0.07532742
   0.69203946  0.09030219  0.92467258
   0.69165185  0.57529867  0.09032949
   0.30834815  0.42470133  0.90967051
   0.30834815  0.92470133  0.59032949
   0.69165185  0.07529867  0.40967051
   0.30834815  0.07529867  0.40967051
   0.69165185  0.92470133  0.59032949
   0.69165185  0.42470133  0.90967051
   0.30834815  0.57529867  0.09032949
   0.19165185  0.07529867  0.09032949
   0.80834815  0.92470133  0.90967051
   0.80834815  0.42470133  0.59032949
   0.19165185  0.57529867  0.40967051
   0.80834815  0.57529867  0.40967051
   0.19165185  0.42470133  0.59032949
   0.19165185  0.92470133  0.90967051
   0.80834815  0.07529867  0.09032949
   0.00000000  0.59406063  0.20140172
   0.00000000  0.40593937  0.79859825
   0.00000000  0.90593937  0.70140175
   0.00000000  0.09406063  0.29859828
   0.50000000  0.09406063  0.20140172
   0.50000000  0.90593937  0.79859825
   0.50000000  0.40593937  0.70140175
   0.50000000  0.59406063  0.29859828
   0.00000000  0.29586620  0.69490518
   0.00000000  0.70413380 -0.69490518
   0.00000000  0.20413380  0.19490518
   0.00000000 -0.20413380 -0.19490518
   0.50000000 -0.20413380  0.69490518
   0.50000000  0.20413380 -0.69490518
   0.50000000  0.70413380  0.19490518
   0.50000000  0.29586620 -0.19490518
   0.00000000  0.28649204 -0.65645212
   0.00000000  0.71350796  0.65645211
   0.00000000  0.21350796 -0.15645211
   0.00000000 -0.21350796  0.15645211
   0.50000000 -0.21350796 -0.65645212
   0.50000000  0.21350796  0.65645211
   0.50000000  0.71350796 -0.15645211
   0.50000000  0.28649204  0.15645211
   0.74979966  0.50000000 -0.00000000
   0.25020034  0.50000000 -0.00000000
   0.25020034  0.00000000  0.50000000
   0.74979966 -0.00000000  0.50000000
   0.24979966  0.00000000 -0.00000000
   0.75020034  0.00000000 -0.00000000
   0.75020034  0.50000000  0.50000000
   0.24979966  0.50000000  0.50000000
Direct configuration=     4
   0.08087143  0.79024359  0.16947369
   0.91912859  0.20975641  0.83052634
   0.91912859  0.70975641  0.66947366
   0.08087143  0.29024359  0.33052631
   0.91912859  0.29024359  0.33052631
   0.08087143  0.70975641  0.66947366
   0.08087143  0.20975641  0.83052634
   0.91912859  0.79024359  0.16947369
   0.58087141  0.29024359  0.16947369
   0.41912856  0.70975641  0.83052634
   0.41912856  0.20975641  0.66947366
   0.58087141  0.79024359  0.33052631
   0.41912856  0.79024359  0.33052631
   0.58087141  0.20975641  0.66947366
   0.58087141  0.70975641  0.83052634
   0.41912856  0.29024359  0.16947369
   0.80817749  0.59063888  0.92439433
   0.19182251  0.40936112  0.07560567
   0.19182251  0.90936112  0.42439433
   0.80817749  0.09063888  0.57560567
   0.19182251  0.09063888  0.57560567
   0.80817749  0.90936112  0.42439433
   0.80817749  0.40936112  0.07560567
   0.19182251  0.59063888  0.92439433
   0.30817749  0.09063888  0.92439433
   0.69182251  0.90936112  0.07560567
   0.69182251  0.40936112  0.42439433
   0.30817749  0.59063888  0.57560567
   0.69182251  0.59063888  0.57560567
   0.30817749  0.40936112  0.42439433
   0.30817749  0.90936112  0.07560567
   0.69182251  0.09063888  0.92439433
   0.69143529  0.57557915  0.09066392
   0.30856471  0.42442085  0.90933608
   0.30856471  0.92442085  0.59066392
   0.69143529  0.07557915  0.40933608
   0.30856471  0.07557915  0.40933608
   0.69143529  0.92442085  0.59066392
   0.69143529  0.42442085  0.90933608
   0.30856471  0.57557915  0.09066392
   0.19143529  0.07557915  0.09066392
   0.80856471  0.92442085  0.90933608
   0.80856471  0.42442085  0.59066392
   0.19143529  0.57557915  0.40933608
   0.80856471  0.57557915  0.40933608
   0.19143529  0.42442085  0.59066392
   0.19143529  0.92442085  0.90933608
   0.80856471  0.07557915  0.09066392
   0.00000000  0.59369162  0.20147034
   0.00000000  0.40630838  0.79852963
   0.00000000  0.90630838  0.70147037
   0.00000000  0.09369162  0.29852966
   0.50000000  0.09369162  0.20147034
   0.50000000  0.90630838  0.79852963
   0.50000000  0.40630838  0.70147037
   0.50000000  0.59369162  0.29852966
   0.00000000  0.28197335  0.72324998
   0.00000000  0.71802665 -0.72324998
   0.00000000  0.21802665  0.22324998
   0.00000000 -0.21802665 -0.22324998
   0.50000000 -0.21802665  0.72324998
   0.50000000  0.21802665 -0.72324998
   0.50000000  0.71802665  0.22324998
   0.50000000  0.28197335 -0.22324998
   0.00000000  0.27268103 -0.68409085
   0.00000000  0.72731897  0.68409084
   0.00000000  0.22731897 -0.18409084
   0.00000000 -0.22731897  0.18409084
   0.50000000 -0.22731897 -0.68409085
   0.50000000  0.22731897  0.68409084
   0.50000000  0.72731897 -0.18409084
   0.50000000  0.27268103  0.18409084
   0.74979965  0.50000000 -0.00000000
   0.25020035  0.50000000 -0.00000000
   0.25020035  0.00000000  0.50000000
   0.74979965 -0.00000000  0.50000000
   0.24979965  0.00000000 -0.00000000
   0.75020035  0.00000000 -0.00000000
   0.75020035  0.50000000  0.50000000
   0.24979965  0.50000000  0.50000000
Direct configuration=     5
   0.08069032  0.79013715  0.16976150
   0.91930971  0.20986285  0.83023853
   0.91930971  0.70986285  0.66976147
   0.08069032  0.29013715  0.33023850
   0.91930971  0.29013715  0.33023850
   0.08069032  0.70986285  0.66976147
   0.08069032  0.20986285  0.83023853
   0.91930971  0.79013715  0.16976150
   0.58069029  0.29013715  0.16976150
   0.41930968  0.70986285  0.83023853
   0.41930968  0.20986285  0.66976147
   0.58069029  0.79013715  0.33023850
   0.41930968  0.79013715  0.33023850
   0.58069029  0.20986285  0.66976147
   0.58069029  0.70986285  0.83023853
   0.41930968  0.29013715  0.16976150
   0.80801643  0.59038893  0.92460090
   0.19198357  0.40961107  0.07539910
   0.19198357  0.90961107  0.42460090
   0.80801643  0.09038893  0.57539910
   0.19198357  0.09038893  0.57539910
   0.80801643  0.90961107  0.42460090
   0.80801643  0.40961107  0.07539910
   0.19198357  0.59038893  0.92460090
   0.30801643  0.09038893  0.92460090
   0.69198357  0.90961107  0.07539910
   0.69198357  0.40961107  0.42460090
   0.30801643  0.59038893  0.57539910
   0.69198357  0.59038893  0.57539910
   0.30801643  0.40961107  0.42460090
   0.30801643  0.90961107  0.07539910
   0.69198357  0.09038893  0.92460090
   0.69159606  0.57537093  0.09041565
   0.30840394  0.42462907  0.90958435
   0.30840394  0.92462907  0.59041565
   0.69159606  0.07537093  0.40958435
   0.30840394  0.07537093  0.40958435
   0.69159606  0.92462907  0.59041565
   0.69159606  0.42462907  0.90958435
   0.30840394  0.57537093  0.09041565
   0.19159606  0.07537093  0.09041565
   0.80840394  0.92462907  0.90958435
   0.80840394  0.42462907  0.59041565
   0.19159606  0.57537093  0.40958435
   0.80840394  0.57537093  0.40958435
   0.19159606  0.42462907  0.59041565
   0.19159606  0.92462907  0.90958435
   0.80840394  0.07537093  0.09041565
   0.00000000  0.59396557  0.20141939
   0.00000000  0.40603443  0.79858058
   0.00000000  0.90603443  0.70141942
   0.00000000  0.09396557  0.29858061
   0.50000000  0.09396557  0.20141939
   0.50000000  0.90603443  0.79858058
   0.50000000  0.40603443  0.70141942
   0.50000000  0.59396557  0.29858061
   0.00000000  0.29228709  0.70220744
   0.00000000  0.70771291 -0.70220744
   0.00000000  0.20771291  0.20220744
   0.00000000 -0.20771291 -0.20220744
   0.50000000 -0.20771291  0.70220744
   0.50000000  0.20771291 -0.70220744
   0.50000000  0.70771291  0.20220744
   0.50000000  0.29228709 -0.20220744
   0.00000000  0.28293401 -0.66357248
   0.00000000  0.71706599  0.66357247
   0.00000000  0.21706599 -0.16357247
   0.00000000 -0.21706599  0.16357247
   0.50000000 -0.21706599 -0.66357248
   0.50000000  0.21706599  0.66357247
   0.50000000  0.71706599 -0.16357247
   0.50000000  0.28293401  0.16357247
   0.74979966  0.50000000 -0.00000000
   0.25020034  0.50000000 -0.00000000
   0.25020034  0.00000000  0.50000000
   0.74979966 -0.00000000  0.50000000
   0.24979966  0.00000000 -0.00000000
   0.75020034  0.00000000 -0.00000000
   0.75020034  0.50000000  0.50000000
   0.24979966  0.50000000  0.50000000
Direct configuration=     6
   0.08078087  0.79019037  0.16961760
   0.91921915  0.20980963  0.83038243
   0.91921915  0.70980963  0.66961757
   0.08078087  0.29019037  0.33038240
   0.91921915  0.29019037  0.33038240
   0.08078087  0.70980963  0.66961757
   0.08078087  0.20980963  0.83038243
   0.91921915  0.79019037  0.16961760
   0.58078085  0.29019037  0.16961760
   0.41921912  0.70980963  0.83038243
   0.41921912  0.20980963  0.66961757
   0.58078085  0.79019037  0.33038240
   0.41921912  0.79019037  0.33038240
   0.58078085  0.20980963  0.66961757
   0.58078085  0.70980963  0.83038243
   0.41921912  0.29019037  0.16961760
   0.80809696  0.59051390  0.92449762
   0.19190304  0.40948610  0.07550238
   0.19190304  0.90948610  0.42449762
   0.80809696  0.09051390  0.57550238
   0.19190304  0.09051390  0.57550238
   0.80809696  0.90948610  0.42449762
   0.80809696  0.40948610  0.07550238
   0.19190304  0.59051390  0.92449762
   0.30809696  0.09051390  0.92449762
   0.69190304  0.90948610  0.07550238
   0.69190304  0.40948610  0.42449762
   0.30809696  0.59051390  0.57550238
   0.69190304  0.59051390  0.57550238
   0.30809696  0.40948610  0.42449762
   0.30809696  0.90948610  0.07550238
   0.69190304  0.09051390  0.92449762
   0.69151567  0.57547504  0.09053978
   0.30848433  0.42452496  0.90946022
   0.30848433  0.92452496  0.59053978
   0.69151567  0.07547504  0.40946022
   0.30848433  0.07547504  0.40946022
   0.69151567  0.92452496  0.59053978
   0.69151567  0.42452496  0.90946022
   0.30848433  0.57547504  0.09053978
   0.19151567  0.07547504  0.09053978
   0.80848433  0.92452496  0.90946022
   0.80848433  0.42452496  0.59053978
   0.19151567  0.57547504  0.40946022
   0.80848433  0.57547504  0.40946022
   0.19151567  0.42452496  0.59053978
   0.19151567  0.92452496  0.90946022
   0.80848433  0.07547504  0.09053978
   0.00000000  0.59382859  0.20144487
   0.00000000  0.40617141  0.79855510
   0.00000000  0.90617141  0.70144490
   0.00000000  0.09382859  0.29855513
   0.50000000  0.09382859  0.20144487
   0.50000000  0.90617141  0.79855510
   0.50000000  0.40617141  0.70144490
   0.50000000  0.59382859  0.29855513
   0.00000000  0.28713022  0.71272871
   0.00000000  0.71286978 -0.71272871
   0.00000000  0.21286978  0.21272871
   0.00000000 -0.21286978 -0.21272871
   0.50000000 -0.21286978  0.71272871
   0.50000000  0.21286978 -0.71272871
   0.50000000  0.71286978  0.21272871
   0.50000000  0.28713022 -0.21272871
   0.00000000  0.27780752 -0.67383167
   0.00000000  0.72219248  0.67383165
   0.00000000  0.22219248 -0.17383165
   0.00000000 -0.22219248  0.17383165
   0.50000000 -0.22219248 -0.67383167
   0.50000000  0.22219248  0.67383165
   0.50000000  0.72219248 -0.17383165
   0.50000000  0.27780752  0.17383165
   0.74979965  0.50000000 -0.00000000
   0.25020035  0.50000000 -0.00000000
   0.25020035  0.00000000  0.50000000
   0.74979965 -0.00000000  0.50000000
   0.24979965  0.00000000 -0.00000000
   0.75020035  0.00000000 -0.00000000
   0.75020035  0.50000000  0.50000000
   0.24979965  0.50000000  0.50000000
Direct configuration=     7
   0.08080223  0.79020292  0.16958366
   0.91919779  0.20979708  0.83041637
   0.91919779  0.70979708  0.66958363
   0.08080223  0.29020292  0.33041634
   0.91919779  0.29020292  0.33041634
   0.08080223  0.70979708  0.66958363
   0.08080223  0.20979708  0.83041637
   0.91919779  0.79020292  0.16958366
   0.58080221  0.29020292  0.16958366
   0.41919776  0.70979708  0.83041637
   0.41919776  0.20979708  0.66958363
   0.58080221  0.79020292  0.33041634
   0.41919776  0.79020292  0.33041634
   0.58080221  0.20979708  0.66958363
   0.58080221  0.70979708  0.83041637
   0.41919776  0.29020292  0.16958366
   0.80811595  0.59054338  0.92447326
   0.19188405  0.40945662  0.07552674
   0.19188405  0.90945662  0.42447326
   0.80811595  0.09054338  0.57552674
   0.19188405  0.09054338  0.57552674
   0.80811595  0.90945662  0.42447326
   0.80811595  0.40945662  0.07552674
   0.19188405  0.59054338  0.92447326
   0.30811595  0.09054338  0.92447326
   0.69188405  0.90945662  0.07552674
   0.69188405  0.40945662  0.42447326
   0.30811595  0.59054338  0.57552674
   0.69188405  0.59054338  0.57552674
   0.30811595  0.40945662  0.42447326
   0.30811595  0.90945662  0.07552674
   0.69188405  0.09054338  0.92447326
   0.69149671  0.57549959  0.09056906
   0.30850329  0.42450041  0.90943094
   0.30850329  0.92450041  0.59056906
   0.69149671  0.07549959  0.40943094
   0.30850329  0.07549959  0.40943094
   0.69149671  0.92450041  0.59056906
   0.69149671  0.42450041  0.90943094
   0.30850329  0.57549959  0.09056906
   0.19149671  0.07549959  0.09056906
   0.80850329  0.92450041  0.90943094
   0.80850329  0.42450041  0.59056906
   0.19149671  0.57549959  0.40943094
   0.80850329  0.57549959  0.40943094
   0.19149671  0.42450041  0.59056906
   0.19149671  0.92450041  0.90943094
   0.80850329  0.07549959  0.09056906
   0.00000000  0.59379629  0.20145087
   0.00000000  0.40620371  0.79854910
   0.00000000  0.90620371  0.70145090
   0.00000000  0.09379629  0.29854913
   0.50000000  0.09379629  0.20145087
   0.50000000  0.90620371  0.79854910
   0.50000000  0.40620371  0.70145090
   0.50000000  0.59379629  0.29854913
   0.00000000  0.28591399  0.71521011
   0.00000000  0.71408601 -0.71521011
   0.00000000  0.21408601  0.21521011
   0.00000000 -0.21408601 -0.21521011
   0.50000000 -0.21408601  0.71521011
   0.50000000  0.21408601 -0.71521011
   0.50000000  0.71408601  0.21521011
   0.50000000  0.28591399 -0.21521011
   0.00000000  0.27659846 -0.67625126
   0.00000000  0.72340154  0.67625124
   0.00000000  0.22340154 -0.17625124
   0.00000000 -0.22340154  0.17625124
   0.50000000 -0.22340154 -0.67625126
   0.50000000  0.22340154  0.67625124
   0.50000000  0.72340154 -0.17625124
   0.50000000  0.27659846  0.17625124
   0.74979965  0.50000000 -0.00000000
   0.25020035  0.50000000 -0.00000000
   0.25020035  0.00000000  0.50000000
   0.74979965 -0.00000000  0.50000000
   0.24979965  0.00000000 -0.00000000
   0.75020035  0.00000000 -0.00000000
   0.75020035  0.50000000  0.50000000
   0.24979965  0.50000000  0.50000000
Direct configuration=     8
   0.08079215  0.79019700  0.16959968
   0.91920787  0.20980300  0.83040035
   0.91920787  0.70980300  0.66959965
   0.08079215  0.29019700  0.33040032
   0.91920787  0.29019700  0.33040032
   0.08079215  0.70980300  0.66959965
   0.08079215  0.20980300  0.83040035
   0.91920787  0.79019700  0.16959968
   0.58079213  0.29019700  0.16959968
   0.41920784  0.70980300  0.83040035
   0.41920784  0.20980300  0.66959965
   0.58079213  0.79019700  0.33040032
   0.41920784  0.79019700  0.33040032
   0.58079213  0.20980300  0.66959965
   0.58079213  0.70980300  0.83040035
   0.41920784  0.29019700  0.16959968
   0.80810699  0.59052946  0.92448476
   0.19189301  0.40947054  0.07551524
   0.19189301  0.90947054  0.42448476
   0.80810699  0.09052946  0.57551524
   0.19189301  0.09052946  0.57551524
   0.80810699  0.90947054  0.42448476
   0.80810699  0.40947054  0.07551524
   0.19189301  0.59052946  0.92448476
   0.30810699  0.09052946  0.92448476
   0.69189301  0.90947054  0.07551524
   0.69189301  0.40947054  0.42448476
   0.30810699  0.59052946  0.57551524
   0.69189301  0.59052946  0.57551524
   0.30810699  0.40947054  0.42448476
   0.30810699  0.90947054  0.07551524
   0.69189301  0.09052946  0.92448476
   0.69150566  0.57548800  0.09055524
   0.30849434  0.42451200  0.90944476
   0.30849434  0.92451200  0.59055524
   0.69150566  0.07548800  0.40944476
   0.30849434  0.07548800  0.40944476
   0.69150566  0.92451200  0.59055524
   0.69150566  0.42451200  0.90944476
   0.30849434  0.57548800  0.09055524
   0.19150566  0.07548800  0.09055524
   0.80849434  0.92451200  0.90944476
   0.80849434  0.42451200  0.59055524
   0.19150566  0.57548800  0.40944476
   0.80849434  0.57548800  0.40944476
   0.19150566  0.42451200  0.59055524
   0.19150566  0.92451200  0.90944476
   0.80849434  0.07548800  0.09055524
   0.00000000  0.59381154  0.20144804
   0.00000000  0.40618846  0.79855193
   0.00000000  0.90618846  0.70144807
   0.00000000  0.09381154  0.29855196
   0.50000000  0.09381154  0.20144804
   0.50000000  0.90618846  0.79855193
   0.50000000  0.40618846  0.70144807
   0.50000000  0.59381154  0.29855196
   0.00000000  0.28648817  0.71403865
   0.00000000  0.71351183 -0.71403865
   0.00000000  0.21351183  0.21403865
   0.00000000 -0.21351183 -0.21403865
   0.50000000 -0.21351183  0.71403865
   0.50000000  0.21351183 -0.71403865
   0.50000000  0.71351183  0.21403865
   0.50000000  0.28648817 -0.21403865
   0.00000000  0.27716925 -0.67510898
   0.00000000  0.72283075  0.67510896
   0.00000000  0.22283075 -0.17510896
   0.00000000 -0.22283075  0.17510896
   0.50000000 -0.22283075 -0.67510898
   0.50000000  0.22283075  0.67510896
   0.50000000  0.72283075 -0.17510896
   0.50000000  0.27716925  0.17510896
   0.74979965  0.50000000 -0.00000000
   0.25020035  0.50000000 -0.00000000
   0.25020035  0.00000000  0.50000000
   0.74979965 -0.00000000  0.50000000
   0.24979965  0.00000000 -0.00000000
   0.75020035  0.00000000 -0.00000000
   0.75020035  0.50000000  0.50000000
   0.24979965  0.50000000  0.50000000
Direct configuration=     9
   0.11115990  0.80398957  0.15790961
   0.88884012  0.19601043  0.84209042
   0.88884012  0.69601043  0.65790958
   0.11115990  0.30398957  0.34209039
   0.88884012  0.30398957  0.34209039
   0.11115990  0.69601043  0.65790958
   0.11115990  0.19601043  0.84209042
   0.88884012  0.80398957  0.15790961
   0.61115988  0.30398957  0.15790961
   0.38884009  0.69601043  0.84209042
   0.38884009  0.19601043  0.65790958
   0.61115988  0.80398957  0.34209039
   0.38884009  0.80398957  0.34209039
   0.61115988  0.19601043  0.65790958
   0.61115988  0.69601043  0.84209042
   0.38884009  0.30398957  0.15790961
   0.80372282  0.58316242  0.93073365
   0.19627718  0.41683758  0.06926635
   0.19627718  0.91683758  0.43073365
   0.80372282  0.08316242  0.56926635
   0.19627718  0.08316242  0.56926635
   0.80372282  0.91683758  0.43073365
   0.80372282  0.41683758  0.06926635
   0.19627718  0.58316242  0.93073365
   0.30372282  0.08316242  0.93073365
   0.69627718  0.91683758  0.06926635
   0.69627718  0.41683758  0.43073365
   0.30372282  0.58316242  0.56926635
   0.69627718  0.58316242  0.56926635
   0.30372282  0.41683758  0.43073365
   0.30372282  0.91683758  0.06926635
   0.69627718  0.08316242  0.93073365
   0.69595351  0.56954661  0.08336392
   0.30404649  0.43045339  0.91663608
   0.30404649  0.93045339  0.58336392
   0.69595351  0.06954661  0.41663608
   0.30404649  0.06954661  0.41663608
   0.69595351  0.93045339  0.58336392
   0.69595351  0.43045339  0.91663608
   0.30404649  0.56954661  0.08336392
   0.19595351  0.06954661  0.08336392
   0.80404649  0.93045339  0.91663608
   0.80404649  0.43045339  0.58336392
   0.19595351  0.56954661  0.41663608
   0.80404649  0.56954661  0.41663608
   0.19595351  0.43045339  0.58336392
   0.19595351  0.93045339  0.91663608
   0.80404649  0.06954661  0.08336392
   0.00000000  0.60640785  0.18776327
   0.00000000  0.39359215  0.81223670
   0.00000000  0.89359215  0.68776330
   0.00000000  0.10640785  0.31223673
   0.50000000  0.10640785  0.18776327
   0.50000000  0.89359215  0.81223670
   0.50000000  0.39359215  0.68776330
   0.50000000  0.60640785  0.31223673
   0.00000000  0.28301117  0.68839193
   0.00000000  0.71698883 -0.68839193
   0.00000000  0.21698883  0.18839193
   0.00000000 -0.21698883 -0.18839193
   0.50000000 -0.21698883  0.68839193
   0.50000000  0.21698883 -0.68839193
   0.50000000  0.71698883  0.18839193
   0.50000000  0.28301117 -0.18839193
   0.00000000  0.23352054 -0.68640151
   0.00000000  0.76647946  0.68640149
   0.00000000  0.26647946 -0.18640149
   0.00000000 -0.26647946  0.18640149
   0.50000000 -0.26647946 -0.68640151
   0.50000000  0.26647946  0.68640149
   0.50000000  0.76647946 -0.18640149
   0.50000000  0.23352054  0.18640149
   0.74978968  0.50000000 -0.00000000
   0.25021032  0.50000000 -0.00000000
   0.25021032 -0.00000000  0.50000000
   0.74978968  0.00000000  0.50000000
   0.24978968  0.00000000 -0.00000000
   0.75021032  0.00000000 -0.00000000
   0.75021032  0.50000000  0.50000000
   0.24978968  0.50000000  0.50000000
Direct configuration=    10
   0.09856779  0.79827042  0.16275694
   0.90143223  0.20172958  0.83724308
   0.90143223  0.70172958  0.66275692
   0.09856779  0.29827042  0.33724306
   0.90143223  0.29827042  0.33724306
   0.09856779  0.70172958  0.66275692
   0.09856779  0.20172958  0.83724308
   0.90143223  0.79827042  0.16275694
   0.59856777  0.29827042  0.16275694
   0.40143220  0.70172958  0.83724308
   0.40143220  0.20172958  0.66275692
   0.59856777  0.79827042  0.33724306
   0.40143220  0.79827042  0.33724306
   0.59856777  0.20172958  0.66275692
   0.59856777  0.70172958  0.83724308
   0.40143220  0.29827042  0.16275694
   0.80554073  0.58621719  0.92814252
   0.19445927  0.41378281  0.07185748
   0.19445927  0.91378281  0.42814252
   0.80554073  0.08621719  0.57185748
   0.19445927  0.08621719  0.57185748
   0.80554073  0.91378281  0.42814252
   0.80554073  0.41378281  0.07185748
   0.19445927  0.58621719  0.92814252
   0.30554073  0.08621719  0.92814252
   0.69445927  0.91378281  0.07185748
   0.69445927  0.41378281  0.42814252
   0.30554073  0.58621719  0.57185748
   0.69445927  0.58621719  0.57185748
   0.30554073  0.41378281  0.42814252
   0.30554073  0.91378281  0.07185748
   0.69445927  0.08621719  0.92814252
   0.69410919  0.57201023  0.08634583
   0.30589081  0.42798977  0.91365417
   0.30589081  0.92798977  0.58634583
   0.69410919  0.07201023  0.41365417
   0.30589081  0.07201023  0.41365417
   0.69410919  0.92798977  0.58634583
   0.69410919  0.42798977  0.91365417
   0.30589081  0.57201023  0.08634583
   0.19410919  0.07201023  0.08634583
   0.80589081  0.92798977  0.91365417
   0.80589081  0.42798977  0.58634583
   0.19410919  0.57201023  0.41365417
   0.80589081  0.57201023  0.41365417
   0.19410919  0.42798977  0.58634583
   0.19410919  0.92798977  0.91365417
   0.80589081  0.07201023  0.08634583
   0.00000000  0.60118474  0.19343772
   0.00000000  0.39881526  0.80656225
   0.00000000  0.89881526  0.69343775
   0.00000000  0.10118474  0.30656228
   0.50000000  0.10118474  0.19343772
   0.50000000  0.89881526  0.80656225
   0.50000000  0.39881526  0.69343775
   0.50000000  0.60118474  0.30656228
   0.00000000  0.28445292  0.69902644