diamond                                 
           1
    11.549666    0.000000    0.000000
     0.000000    8.078620    0.000000
     0.000000    0.000000    8.073589
   H    C 
  56  16
Direct configuration=     1
   0.80100000  0.57950002  0.93360001
   0.19900000  0.42049998  0.06639999
   0.19900000  0.92049998  0.43360001
   0.80100000  0.07950002  0.56639999
   0.19900000  0.07950002  0.56639999
   0.80100000  0.92049998  0.43360001
   0.80100000  0.42049998  0.06639999
   0.19900000  0.57950002  0.93360001
   0.30100000  0.07950002  0.93360001
   0.69900000  0.92049998  0.06639999
   0.69900000  0.42049998  0.43360001
   0.30100000  0.57950002  0.56639999
   0.69900000  0.57950002  0.56639999
   0.30100000  0.42049998  0.43360001
   0.30100000  0.92049998  0.06639999
   0.69900000  0.07950002  0.93360001
   0.69859999  0.56629997  0.07959998
   0.30140001  0.43370003  0.92040002
   0.30140001  0.93370003  0.57959998
   0.69859999  0.06629997  0.42040002
   0.30140001  0.06629997  0.42040002
   0.69859999  0.93370003  0.57959998
   0.69859999  0.43370003  0.92040002
   0.30140001  0.56629997  0.07959998
   0.19859999  0.06629997  0.07959998
   0.80140001  0.93370003  0.92040002
   0.80140001  0.43370003  0.57959998
   0.19859999  0.56629997  0.42040002
   0.80140001  0.56629997  0.42040002
   0.19859999  0.43370003  0.57959998
   0.19859999  0.93370003  0.92040002
   0.80140001  0.06629997  0.07959998
   0.07280000  0.78549999  0.18230000
   0.92720002  0.21450001  0.81770003
   0.92720002  0.71450001  0.68229997
   0.07280000  0.28549999  0.31770000
   0.92720002  0.28549999  0.31770000
   0.07280000  0.71450001  0.68229997
   0.07280000  0.21450001  0.81770003
   0.92720002  0.78549999  0.18230000
   0.57279998  0.28549999  0.18230000
   0.42719999  0.71450001  0.81770003
   0.42719999  0.21450001  0.68229997
   0.57279998  0.78549999  0.31770000
   0.42719999  0.78549999  0.31770000
   0.57279998  0.21450001  0.68229997
   0.57279998  0.71450001  0.81770003
   0.42719999  0.28549999  0.18230000
   0.00000000  0.60589999  0.19920000
   0.00000000  0.39410001  0.80079997
   0.00000000  0.89410001  0.69920003
   0.00000000  0.10589999  0.30080000
   0.50000000  0.10589999  0.19920000
   0.50000000  0.89410001  0.80079997
   0.50000000  0.39410001  0.69920003
   0.50000000  0.60589999  0.30080000
   0.00000000  0.72960001  0.23029999
   0.00000000  0.27039999  0.76969999
   0.00000000  0.77039999  0.73030001
   0.00000000  0.22960001  0.26969999
   0.50000000  0.22960001  0.23029999
   0.50000000  0.77039999  0.76969999
   0.50000000  0.27039999  0.73030001
   0.50000000  0.72960001  0.26969999
   0.74980003  0.50000000  0.00000000
   0.25019997  0.50000000  0.00000000
   0.25019997  0.00000000  0.50000000
   0.74980003  0.00000000  0.50000000
   0.24980003  0.00000000  0.00000000
   0.75019997  0.00000000  0.00000000
   0.75019997  0.50000000  0.50000000
   0.24980003  0.50000000  0.50000000
Direct configuration=     2
   0.80793249  0.59013437  0.92485885
   0.19206751  0.40986563  0.07514115
   0.19206751  0.90986563  0.42485885
   0.80793249  0.09013437  0.57514115
   0.19206751  0.09013437  0.57514115
   0.80793249  0.90986563  0.42485885
   0.80793249  0.40986563  0.07514115
   0.19206751  0.59013437  0.92485885
   0.30793249  0.09013437  0.92485885
   0.69206751  0.90986563  0.07514115
   0.69206751  0.40986563  0.42485885
   0.30793249  0.59013437  0.57514115
   0.69206751  0.59013437  0.57514115
   0.30793249  0.40986563  0.42485885
   0.30793249  0.90986563  0.07514115
   0.69206751  0.09013437  0.92485885
   0.69168339  0.57524029  0.09017980
   0.30831661  0.42475971  0.90982020
   0.30831661  0.92475971  0.59017980
   0.69168339  0.07524029  0.40982020
   0.30831661  0.07524029  0.40982020
   0.69168339  0.92475971  0.59017980
   0.69168339  0.42475971  0.90982020
   0.30831661  0.57524029  0.09017980
   0.19168339  0.07524029  0.09017980
   0.80831661  0.92475971  0.90982020
   0.80831661  0.42475971  0.59017980
   0.19168339  0.57524029  0.40982020
   0.80831661  0.57524029  0.40982020
   0.19168339  0.42475971  0.59017980
   0.19168339  0.92475971  0.90982020
   0.80831661  0.07524029  0.09017980
   0.08300499  0.79399460  0.18180805
   0.91699504  0.20600540  0.81819198
   0.91699504  0.70600540  0.68180802
   0.08300499  0.29399460  0.31819195
   0.91699504  0.29399460  0.31819195
   0.08300499  0.70600540  0.68180802
   0.08300499  0.20600540  0.81819198
   0.91699504  0.79399460  0.18180805
   0.58300496  0.29399460  0.18180805
   0.41699501  0.70600540  0.81819198
   0.41699501  0.20600540  0.68180802
   0.58300496  0.79399460  0.31819195
   0.41699501  0.79399460  0.31819195
   0.58300496  0.20600540  0.68180802
   0.58300496  0.70600540  0.81819198
   0.41699501  0.29399460  0.18180805
  -0.00000000  0.58918000  0.20114574
  -0.00000000  0.41082000  0.79885423
  -0.00000000  0.91082000  0.70114577
  -0.00000000  0.08918000  0.29885426
   0.50000000  0.08918000  0.20114574
   0.50000000  0.91082000  0.79885423
   0.50000000  0.41082000  0.70114577
   0.50000000  0.58918000  0.29885426
  -0.00000000  0.72966249  0.22925806
  -0.00000000  0.27033751  0.77074192
  -0.00000000  0.77033751  0.72925808
  -0.00000000  0.22966249  0.27074192
   0.50000000  0.22966249  0.22925806
   0.50000000  0.77033751  0.77074192
   0.50000000  0.27033751  0.72925808
   0.50000000  0.72966249  0.27074192
   0.74975133  0.50000000 -0.00000000
   0.25024867  0.50000000 -0.00000000
   0.25024867 -0.00000000  0.50000000
   0.74975133 -0.00000000  0.50000000
   0.24975133 -0.00000000 -0.00000000
   0.75024867 -0.00000000 -0.00000000
   0.75024867  0.50000000  0.50000000
   0.24975133  0.50000000  0.50000000
Direct configuration=     3
   0.80480911  0.58534315  0.92879711
   0.19519089  0.41465685  0.07120289
   0.19519089  0.91465685  0.42879711
   0.80480911  0.08534315  0.57120289
   0.19519089  0.08534315  0.57120289
   0.80480911  0.91465685  0.42879711
   0.80480911  0.41465685  0.07120289
   0.19519089  0.58534315  0.92879711
   0.30480911  0.08534315  0.92879711
   0.69519089  0.91465685  0.07120289
   0.69519089  0.41465685  0.42879711
   0.30480911  0.58534315  0.57120289
   0.69519089  0.58534315  0.57120289
   0.30480911  0.41465685  0.42879711
   0.30480911  0.91465685  0.07120289
   0.69519089  0.08534315  0.92879711
   0.69479961  0.57121231  0.08541315
   0.30520039  0.42878769  0.91458685
   0.30520039  0.92878769  0.58541315
   0.69479961  0.07121231  0.41458685
   0.30520039  0.07121231  0.41458685
   0.69479961  0.92878769  0.58541315
   0.69479961  0.42878769  0.91458685
   0.30520039  0.57121231  0.08541315
   0.19479961  0.07121231  0.08541315
   0.80520039  0.92878769  0.91458685
   0.80520039  0.42878769  0.58541315
   0.19479961  0.57121231  0.41458685
   0.80520039  0.57121231  0.41458685
   0.19479961  0.42878769  0.58541315
   0.19479961  0.92878769  0.91458685
   0.80520039  0.07121231  0.08541315
   0.07840721  0.79016742  0.18202969
   0.92159281  0.20983258  0.81797034
   0.92159281  0.70983258  0.68202966
   0.07840721  0.29016742  0.31797031
   0.92159281  0.29016742  0.31797031
   0.07840721  0.70983258  0.68202966
   0.07840721  0.20983258  0.81797034
   0.92159281  0.79016742  0.18202969
   0.57840719  0.29016742  0.18202969
   0.42159278  0.70983258  0.81797034
   0.42159278  0.20983258  0.68202966
   0.57840719  0.79016742  0.31797031
   0.42159278  0.79016742  0.31797031
   0.57840719  0.20983258  0.68202966
   0.57840719  0.70983258  0.81797034
   0.42159278  0.29016742  0.18202969
  -0.00000000  0.59671306  0.20026911
  -0.00000000  0.40328694  0.79973086
  -0.00000000  0.90328694  0.70026914
  -0.00000000  0.09671306  0.29973089
   0.50000000  0.09671306  0.20026911
   0.50000000  0.90328694  0.79973086
   0.50000000  0.40328694  0.70026914
   0.50000000  0.59671306  0.29973089
  -0.00000000  0.72963434  0.22972750
  -0.00000000  0.27036566  0.77027249
  -0.00000000  0.77036566  0.72972751
  -0.00000000  0.22963434  0.27027249
   0.50000000  0.22963434  0.22972750
   0.50000000  0.77036566  0.77027249
   0.50000000  0.27036566  0.72972751
   0.50000000  0.72963434  0.27027249
   0.74977327  0.50000000 -0.00000000
   0.25022673  0.50000000 -0.00000000
   0.25022673 -0.00000000  0.50000000
   0.74977327 -0.00000000  0.50000000
   0.24977327 -0.00000000 -0.00000000
   0.75022673 -0.00000000 -0.00000000
   0.75022673  0.50000000  0.50000000
   0.24977327  0.50000000  0.50000000
Direct configuration=     4
   0.80523581  0.58587080  0.92850737
   0.19476419  0.41412920  0.07149263
   0.19476419  0.91412920  0.42850737
   0.80523581  0.08587080  0.57149263
   0.19476419  0.08587080  0.57149263
   0.80523581  0.91412920  0.42850737
   0.80523581  0.41412920  0.07149263
   0.19476419  0.58587080  0.92850737
   0.30523581  0.08587080  0.92850737
   0.69476419  0.91412920  0.07149263
   0.69476419  0.41412920  0.42850737
   0.30523581  0.58587080  0.57149263
   0.69476419  0.58587080  0.57149263
   0.30523581  0.41412920  0.42850737
   0.30523581  0.91412920  0.07149263
   0.69476419  0.08587080  0.92850737
   0.69437153  0.57174045  0.08588785
   0.30562847  0.42825955  0.91411215
   0.30562847  0.92825955  0.58588785
   0.69437153  0.07174045  0.41411215
   0.30562847  0.07174045  0.41411215
   0.69437153  0.92825955  0.58588785
   0.69437153  0.42825955  0.91411215
   0.30562847  0.57174045  0.08588785
   0.19437153  0.07174045  0.08588785
   0.80562847  0.92825955  0.91411215
   0.80562847  0.42825955  0.58588785
   0.19437153  0.57174045  0.41411215
   0.80562847  0.57174045  0.41411215
   0.19437153  0.42825955  0.58588785
   0.19437153  0.92825955  0.91411215
   0.80562847  0.07174045  0.08588785
   0.07975513  0.79171262  0.18559190
   0.92024489  0.20828738  0.81440813
   0.92024489  0.70828738  0.68559187
   0.07975513  0.29171262  0.31440810
   0.92024489  0.29171262  0.31440810
   0.07975513  0.70828738  0.68559187
   0.07975513  0.20828738  0.81440813
   0.92024489  0.79171262  0.18559190
   0.57975511  0.29171262  0.18559190
   0.42024486  0.70828738  0.81440813
   0.42024486  0.20828738  0.68559187
   0.57975511  0.79171262  0.31440810
   0.42024486  0.79171262  0.31440810
   0.57975511  0.20828738  0.68559187
   0.57975511  0.70828738  0.81440813
   0.42024486  0.29171262  0.18559190
  -0.00000000  0.59493372  0.20427241
  -0.00000000  0.40506628  0.79572756
  -0.00000000  0.90506628  0.70427244
  -0.00000000  0.09493372  0.29572759
   0.50000000  0.09493372  0.20427241
   0.50000000  0.90506628  0.79572756
   0.50000000  0.40506628  0.70427244
   0.50000000  0.59493372  0.29572759
  -0.00000000  0.72862866  0.21841205
  -0.00000000  0.27137134  0.78158794
  -0.00000000  0.77137134  0.71841206
  -0.00000000  0.22862866  0.28158794
   0.50000000  0.22862866  0.21841205
   0.50000000  0.77137134  0.78158794
   0.50000000  0.27137134  0.71841206
   0.50000000  0.72862866  0.28158794
   0.74974953  0.50000000 -0.00000000
   0.25025047  0.50000000 -0.00000000
   0.25025047 -0.00000000  0.50000000
   0.74974953 -0.00000000  0.50000000
   0.24974953 -0.00000000 -0.00000000
   0.75025047 -0.00000000 -0.00000000
   0.75025047  0.50000000  0.50000000
   0.24974953  0.50000000  0.50000000
Direct configuration=     5
   0.80560236  0.58632408  0.92825847
   0.19439764  0.41367592  0.07174153
   0.19439764  0.91367592  0.42825847
   0.80560236  0.08632408  0.57174153
   0.19439764  0.08632408  0.57174153
   0.80560236  0.91367592  0.42825847
   0.80560236  0.41367592  0.07174153
   0.19439764  0.58632408  0.92825847
   0.30560236  0.08632408  0.92825847
   0.69439764  0.91367592  0.07174153
   0.69439764  0.41367592  0.42825847
   0.30560236  0.58632408  0.57174153
   0.69439764  0.58632408  0.57174153
   0.30560236  0.41367592  0.42825847
   0.30560236  0.91367592  0.07174153
   0.69439764  0.08632408  0.92825847
   0.69400379  0.57219415  0.08629564
   0.30599621  0.42780585  0.91370436
   0.30599621  0.92780585  0.58629564
   0.69400379  0.07219415  0.41370436
   0.30599621  0.07219415  0.41370436
   0.69400379  0.92780585  0.58629564
   0.69400379  0.42780585  0.91370436
   0.30599621  0.57219415  0.08629564
   0.19400379  0.07219415  0.08629564
   0.80599621  0.92780585  0.91370436
   0.80599621  0.42780585  0.58629564
   0.19400379  0.57219415  0.41370436
   0.80599621  0.57219415  0.41370436
   0.19400379  0.42780585  0.58629564
   0.19400379  0.92780585  0.91370436
   0.80599621  0.07219415  0.08629564
   0.08091306  0.79304001  0.18865200
   0.91908696  0.20695999  0.81134803
   0.91908696  0.70695999  0.68865197
   0.08091306  0.29304001  0.31134800
   0.91908696  0.29304001  0.31134800
   0.08091306  0.70695999  0.68865197
   0.08091306  0.20695999  0.81134803
   0.91908696  0.79304001  0.18865200
   0.58091304  0.29304001  0.18865200
   0.41908693  0.70695999  0.81134803
   0.41908693  0.20695999  0.68865197
   0.58091304  0.79304001  0.31134800
   0.41908693  0.79304001  0.31134800
   0.58091304  0.20695999  0.68865197
   0.58091304  0.70695999  0.81134803
   0.41908693  0.29304001  0.18865200
  -0.00000000  0.59340519  0.20771145
  -0.00000000  0.40659481  0.79228852
  -0.00000000  0.90659481  0.70771148
  -0.00000000  0.09340519  0.29228855
   0.50000000  0.09340519  0.20771145
   0.50000000  0.90659481  0.79228852
   0.50000000  0.40659481  0.70771148
   0.50000000  0.59340519  0.29228855
  -0.00000000  0.72776473  0.20869152
  -0.00000000  0.27223527  0.79130846
  -0.00000000  0.77223527  0.70869154
  -0.00000000  0.22776473  0.29130846
   0.50000000  0.22776473  0.20869152
   0.50000000  0.77223527  0.79130846
   0.50000000  0.27223527  0.70869154
   0.50000000  0.72776473  0.29130846
   0.74972913  0.50000000 -0.00000000
   0.25027087  0.50000000 -0.00000000
   0.25027087 -0.00000000  0.50000000
   0.74972913 -0.00000000  0.50000000
   0.24972913 -0.00000000 -0.00000000
   0.75027087 -0.00000000 -0.00000000
   0.75027087  0.50000000  0.50000000
   0.24972913  0.50000000  0.50000000
Direct configuration=     6
   0.80577137  0.58653307  0.92814371
   0.19422863  0.41346693  0.07185629
   0.19422863  0.91346693  0.42814371
   0.80577137  0.08653307  0.57185629
   0.19422863  0.08653307  0.57185629
   0.80577137  0.91346693  0.42814371
   0.80577137  0.41346693  0.07185629
   0.19422863  0.58653307  0.92814371
   0.30577137  0.08653307  0.92814371
   0.69422863  0.91346693  0.07185629
   0.69422863  0.41346693  0.42814371
   0.30577137  0.58653307  0.57185629
   0.69422863  0.58653307  0.57185629
   0.30577137  0.41346693  0.42814371
   0.30577137  0.91346693  0.07185629
   0.69422863  0.08653307  0.92814371
   0.69383424  0.57240333  0.08648366
   0.30616576  0.42759667  0.91351634
   0.30616576  0.92759667  0.58648366
   0.69383424  0.07240333  0.41351634
   0.30616576  0.07240333  0.41351634
   0.69383424  0.92759667  0.58648366
   0.69383424  0.42759667  0.91351634
   0.30616576  0.57240333  0.08648366
   0.19383424  0.07240333  0.08648366
   0.80616576  0.92759667  0.91351634
   0.80616576  0.42759667  0.58648366
   0.19383424  0.57240333  0.41351634
   0.80616576  0.57240333  0.41351634
   0.19383424  0.42759667  0.58648366
   0.19383424  0.92759667  0.91351634
   0.80616576  0.07240333  0.08648366
   0.08144694  0.79365203  0.19006290
   0.91855308  0.20634797  0.80993712
   0.91855308  0.70634797  0.69006288
   0.08144694  0.29365203  0.30993710
   0.91855308  0.29365203  0.30993710
   0.08144694  0.70634797  0.69006288
   0.08144694  0.20634797  0.80993712
   0.91855308  0.79365203  0.19006290
   0.58144692  0.29365203  0.19006290
   0.41855305  0.70634797  0.80993712
   0.41855305  0.20634797  0.69006288
   0.58144692  0.79365203  0.30993710
   0.41855305  0.79365203  0.30993710
   0.58144692  0.20634797  0.69006288
   0.58144692  0.70634797  0.80993712
   0.41855305  0.29365203  0.19006290
  -0.00000000  0.59270044  0.20929706
  -0.00000000  0.40729956  0.79070291
  -0.00000000  0.90729956  0.70929709
  -0.00000000  0.09270044  0.29070294
   0.50000000  0.09270044  0.20929706
   0.50000000  0.90729956  0.79070291
   0.50000000  0.40729956  0.70929709
   0.50000000  0.59270044  0.29070294
  -0.00000000  0.72736640  0.20420975
  -0.00000000  0.27263360  0.79579023
  -0.00000000  0.77263360  0.70420977
  -0.00000000  0.22736640  0.29579023
   0.50000000  0.22736640  0.20420975
   0.50000000  0.77263360  0.79579023
   0.50000000  0.27263360  0.70420977
   0.50000000  0.72736640  0.29579023
   0.74971973  0.50000000 -0.00000000
   0.25028027  0.50000000 -0.00000000
   0.25028027 -0.00000000  0.50000000
   0.74971973 -0.00000000  0.50000000
   0.24971973 -0.00000000 -0.00000000
   0.75028027 -0.00000000 -0.00000000
   0.75028027  0.50000000  0.50000000
   0.24971973  0.50000000  0.50000000
Direct configuration=     7
   0.80422881  0.58404100  0.93043336
   0.19577119  0.41595900  0.06956664
   0.19577119  0.91595900  0.43043336
   0.80422881  0.08404100  0.56956664
   0.19577119  0.08404100  0.56956664
   0.80422881  0.91595900  0.43043336
   0.80422881  0.41595900  0.06956664
   0.19577119  0.58404100  0.93043336
   0.30422881  0.08404100  0.93043336
   0.69577119  0.91595900  0.06956664
   0.69577119  0.41595900  0.43043336
   0.30422881  0.58404100  0.56956664
   0.69577119  0.58404100  0.56956664
   0.30422881  0.41595900  0.43043336
   0.30422881  0.91595900  0.06956664
   0.69577119  0.08404100  0.93043336
   0.69542437  0.57032685  0.08381094
   0.30457563  0.42967315  0.91618906
   0.30457563  0.92967315  0.58381094
   0.69542437  0.07032685  0.41618906
   0.30457563  0.07032685  0.41618906
   0.69542437  0.92967315  0.58381094
   0.69542437  0.42967315  0.91618906
   0.30457563  0.57032685  0.08381094
   0.19542437  0.07032685  0.08381094
   0.80457563  0.92967315  0.91618906
   0.80457563  0.42967315  0.58381094
   0.19542437  0.57032685  0.41618906
   0.80457563  0.57032685  0.41618906
   0.19542437  0.42967315  0.58381094
   0.19542437  0.92967315  0.91618906
   0.80457563  0.07032685  0.08381094
   0.08139314  0.79371886  0.19104316
   0.91860689  0.20628114  0.80895687
   0.91860689  0.70628114  0.69104313
   0.08139314  0.29371886  0.30895684
   0.91860689  0.29371886  0.30895684
   0.08139314  0.70628114  0.69104313
   0.08139314  0.20628114  0.80895687
   0.91860689  0.79371886  0.19104316
   0.58139311  0.29371886  0.19104316
   0.41860686  0.70628114  0.80895687
   0.41860686  0.20628114  0.69104313
   0.58139311  0.79371886  0.30895684
   0.41860686  0.79371886  0.30895684
   0.58139311  0.20628114  0.69104313
   0.58139311  0.70628114  0.80895687
   0.41860686  0.29371886  0.19104316
  -0.00000000  0.59293029  0.21028430
  -0.00000000  0.40706971  0.78971567
  -0.00000000  0.90706971  0.71028433
  -0.00000000  0.09293029  0.28971570
   0.50000000  0.09293029  0.21028430
   0.50000000  0.90706971  0.78971567
   0.50000000  0.40706971  0.71028433
   0.50000000  0.59293029  0.28971570
  -0.00000000  0.72742183  0.20088480
  -0.00000000  0.27257817  0.79911519
  -0.00000000  0.77257817  0.70088481
  -0.00000000  0.22742183  0.29911519
   0.50000000  0.22742183  0.20088480
   0.50000000  0.77257817  0.79911519
   0.50000000  0.27257817  0.70088481
   0.50000000  0.72742183  0.29911519
   0.74954510  0.50000000 -0.00000000
   0.25045490  0.50000000 -0.00000000
   0.25045490 -0.00000000  0.50000000
   0.74954510 -0.00000000  0.50000000
   0.24954510 -0.00000000 -0.00000000
   0.75045490 -0.00000000 -0.00000000
   0.75045490  0.50000000  0.50000000
   0.24954510  0.50000000  0.50000000
Direct configuration=     8
   0.80478646  0.58494191  0.92960563
   0.19521354  0.41505809  0.07039437
   0.19521354  0.91505809  0.42960563
   0.80478646  0.08494191  0.57039437
   0.19521354  0.08494191  0.57039437
   0.80478646  0.91505809  0.42960563
   0.80478646  0.41505809  0.07039437
   0.19521354  0.58494191  0.92960563
   0.30478646  0.08494191  0.92960563
   0.69521354  0.91505809  0.07039437
   0.69521354  0.41505809  0.42960563
   0.30478646  0.58494191  0.57039437
   0.69521354  0.58494191  0.57039437
   0.30478646  0.41505809  0.42960563
   0.30478646  0.91505809  0.07039437
   0.69521354  0.08494191  0.92960563
   0.69484952  0.57107752  0.08477715
   0.30515048  0.42892248  0.91522285
   0.30515048  0.92892248  0.58477715
   0.69484952  0.07107752  0.41522285
   0.30515048  0.07107752  0.41522285
   0.69484952  0.92892248  0.58477715
   0.69484952  0.42892248  0.91522285
   0.30515048  0.57107752  0.08477715
   0.19484952  0.07107752  0.08477715
   0.80515048  0.92892248  0.91522285
   0.80515048  0.42892248  0.58477715
   0.19484952  0.57107752  0.41522285
   0.80515048  0.57107752  0.41522285
   0.19484952  0.42892248  0.58477715
   0.19484952  0.92892248  0.91522285
   0.80515048  0.07107752  0.08477715
   0.08141259  0.79369470  0.19068879
   0.91858744  0.20630530  0.80931124
   0.91858744  0.70630530  0.69068876
   0.08141259  0.29369470  0.30931121
   0.91858744  0.29369470  0.30931121
   0.08141259  0.70630530  0.69068876
   0.08141259  0.20630530  0.80931124
   0.91858744  0.79369470  0.19068879
   0.58141256  0.29369470  0.19068879
   0.41858741  0.70630530  0.80931124
   0.41858741  0.20630530  0.69068876
   0.58141256  0.79369470  0.30931121
   0.41858741  0.79369470  0.30931121
   0.58141256  0.20630530  0.69068876
   0.58141256  0.70630530  0.80931124
   0.41858741  0.29369470  0.19068879
  -0.00000000  0.59284719  0.20992740
  -0.00000000  0.40715281  0.79007257
  -0.00000000  0.90715281  0.70992743
  -0.00000000  0.09284719  0.29007260
   0.50000000  0.09284719  0.20992740
   0.50000000  0.90715281  0.79007257
   0.50000000  0.40715281  0.70992743
   0.50000000  0.59284719  0.29007260
  -0.00000000  0.72740179  0.20208681
  -0.00000000  0.27259821  0.79791318
  -0.00000000  0.77259821  0.70208682
  -0.00000000  0.22740179  0.29791318
   0.50000000  0.22740179  0.20208681
   0.50000000  0.77259821  0.79791318
   0.50000000  0.27259821  0.70208682
   0.50000000  0.72740179  0.29791318
   0.74960823  0.50000000 -0.00000000
   0.25039177  0.50000000 -0.00000000
   0.25039177 -0.00000000  0.50000000
   0.74960823 -0.00000000  0.50000000
   0.24960823 -0.00000000 -0.00000000
   0.75039177 -0.00000000 -0.00000000
   0.75039177  0.50000000  0.50000000
   0.24960823  0.50000000  0.50000000
Direct configuration=     9
   0.80478104  0.58490586  0.92976475
   0.19521896  0.41509414  0.07023525
   0.19521896  0.91509414  0.42976475
   0.80478104  0.08490586  0.57023525
   0.19521896  0.08490586  0.57023525
   0.80478104  0.91509414  0.42976475
   0.80478104  0.41509414  0.07023525
   0.19521896  0.58490586  0.92976475
   0.30478104  0.08490586  0.92976475
   0.69521896  0.91509414  0.07023525
   0.69521896  0.41509414  0.42976475
   0.30478104  0.58490586  0.57023525
   0.69521896  0.58490586  0.57023525
   0.30478104  0.41509414  0.42976475
   0.30478104  0.91509414  0.07023525
   0.69521896  0.08490586  0.92976475
   0.69475341  0.57117111  0.08479202
   0.30524659  0.42882889  0.91520798
   0.30524659  0.92882889  0.58479202
   0.69475341  0.07117111  0.41520798
   0.30524659  0.07117111  0.41520798
   0.69475341  0.92882889  0.58479202
   0.69475341  0.42882889  0.91520798
   0.30524659  0.57117111  0.08479202
   0.19475341  0.07117111  0.08479202
   0.80524659  0.92882889  0.91520798
   0.80524659  0.42882889  0.58479202
   0.19475341  0.57117111  0.41520798
   0.80524659  0.57117111  0.41520798
   0.19475341  0.42882889  0.58479202
   0.19475341  0.92882889  0.91520798
   0.80524659  0.07117111  0.08479202
   0.08140774  0.79375813  0.19086253
   0.91859228  0.20624187  0.80913750
   0.91859228  0.70624187  0.69086250
   0.08140774  0.29375813  0.30913747
   0.91859228  0.29375813  0.30913747
   0.08140774  0.70624187  0.69086250
   0.08140774  0.20624187  0.80913750
   0.91859228  0.79375813  0.19086253
   0.58140772  0.29375813  0.19086253
   0.41859225  0.70624187  0.80913750
   0.41859225  0.20624187  0.69086250
   0.58140772  0.79375813  0.30913747
   0.41859225  0.79375813  0.30913747
   0.58140772  0.20624187  0.69086250
   0.58140772  0.70624187  0.80913750
   0.41859225  0.29375813  0.19086253
  -0.00000000  0.59342060  0.21006685
  -0.00000000  0.40657940  0.78993312
  -0.00000000  0.90657940  0.71006688
  -0.00000000  0.09342060  0.28993315
   0.50000000  0.09342060  0.21006685
   0.50000000  0.90657940  0.78993312
   0.50000000  0.40657940  0.71006688
   0.50000000  0.59342060  0.28993315
  -0.00000000  0.72705261  0.20129851
  -0.00000000  0.27294739  0.79870148
  -0.00000000  0.77294739  0.70129852
  -0.00000000  0.22705261  0.29870148
   0.50000000  0.22705261  0.20129851
   0.50000000  0.77294739  0.79870148
   0.50000000  0.27294739  0.70129852
   0.50000000  0.72705261  0.29870148
   0.74973915  0.50000000 -0.00000000
   0.25026085  0.50000000 -0.00000000
   0.25026085 -0.00000000  0.50000000
   0.74973915 -0.00000000  0.50000000
   0.24973915 -0.00000000 -0.00000000
   0.75026085 -0.00000000 -0.00000000
   0.75026085  0.50000000  0.50000000
   0.24973915  0.50000000  0.50000000
Direct configuration=    10
   0.80478313  0.58491977  0.92970335
   0.19521687  0.41508023  0.07029665
   0.19521687  0.91508023  0.42970335
   0.80478313  0.08491977  0.57029665
   0.19521687  0.08491977  0.57029665
   0.80478313  0.91508023  0.42970335
   0.80478313  0.41508023  0.07029665
   0.19521687  0.58491977  0.92970335
   0.30478313  0.08491977  0.92970335
   0.69521687  0.91508023  0.07029665
   0.69521687  0.41508023  0.42970335
   0.30478313  0.58491977  0.57029665
   0.69521687  0.58491977  0.57029665
   0.30478313  0.41508023  0.42970335
   0.30478313  0.91508023  0.07029665
   0.69521687  0.08491977  0.92970335
   0.69479050  0.57113499  0.08478628
   0.30520950  0.42886501  0.91521372
   0.30520950  0.92886501  0.58478628
   0.69479050  0.07113499  0.41521372
   0.30520950  0.07113499  0.41521372
   0.69479050  0.92886501  0.58478628
   0.69479050  0.42886501  0.91521372
   0.30520950  0.57113499  0.08478628
   0.19479050  0.07113499  0.08478628
   0.80520950  0.92886501  0.91521372
   0.80520950  0.42886501  0.58478628
   0.19479050  0.57113499  0.41521372
   0.80520950  0.57113499  0.41521372
   0.19479050  0.42886501  0.58478628
   0.19479050  0.92886501  0.91521372
   0.80520950  0.07113499  0.08478628
   0.08140961  0.79373365  0.19079549
   0.91859041  0.20626635  0.80920454
   0.91859041  0.70626635  0.69079546
   0.08140961  0.29373365  0.30920451
   0.91859041  0.29373365  0.30920451
   0.08140961  0.70626635  0.69079546
   0.08140961  0.20626635  0.80920454
   0.91859041  0.79373365  0.19079549
   0.58140959  0.29373365  0.19079549
   0.41859038  0.70626635  0.80920454
   0.41859038  0.20626635  0.69079546
   0.58140959  0.79373365  0.30920451
   0.41859038  0.79373365  0.30920451
   0.58140959  0.20626635  0.69079546
   0.58140959  0.70626635  0.80920454
   0.41859038  0.29373365  0.19079549
  -0.00000000  0.59319933  0.21001304
  -0.00000000  0.40680067  0.78998693
  -0.00000000  0.90680067  0.71001307
  -0.00000000  0.09319933  0.28998696
   0.50000000  0.09319933  0.21001304
   0.50000000  0.90680067  0.78998693
   0.50000000  0.40680067  0.71001307
   0.50000000  0.59319933  0.28998696
  -0.00000000  0.72718735  0.20160270
  -0.00000000  0.27281265  0.79839728
  -0.00000000  0.77281265  0.70160272
  -0.00000000  0.22718735  0.29839728
   0.50000000  0.22718735  0.20160270
   0.50000000  0.77281265  0.79839728
   0.50000000  0.27281265  0.70160272
   0.50000000  0.72718735  0.29839728
   0.74968863  0.50000000 -0.00000000
   0.25031137  0.50000000 -0.00000000
   0.25031137 -0.00000000  0.50000000
   0.74968863 -0.00000000  0.50000000
   0.24968863 -0.00000000 -0.00000000
   0.75031137 -0.00000000 -0.00000000
   0.75031137  0.50000000  0.50000000
   0.24968863  0.50000000  0.50000000
Direct configuration=    11
   0.80482977  0.58496979  0.92975223
   0.19517023  0.41503021  0.07024777
   0.19517023  0.91503021  0.42975223
   0.80482977  0.08496979  0.57024777
   0.19517023  0.08496979  0.57024777
   0.80482977  0.91503021  0.42975223
   0.80482977  0.41503021  0.07024777
   0.19517023  0.58496979  0.92975223
   0.30482977  0.08496979  0.92975223
   0.69517023  0.91503021  0.07024777
   0.69517023  0.41503021  0.42975223
   0.30482977  0.58496979  0.57024777
   0.69517023  0.58496979  0.57024777
   0.30482977  0.41503021  0.42975223
   0.30482977  0.91503021  0.07024777
   0.69517023  0.08496979  0.92975223
   0.69473330  0.57119167  0.08479101
   0.30526670  0.42880833  0.91520899
   0.30526670  0.92880833  0.58479101
   0.69473330  0.07119167  0.41520899
   0.30526670  0.07119167  0.41520899
   0.69473330  0.92880833  0.58479101
   0.69473330  0.42880833  0.91520899
   0.30526670  0.57119167  0.08479101
   0.19473330  0.07119167  0.08479101
   0.80526670  0.92880833  0.91520899
   0.80526670  0.42880833  0.58479101
   0.19473330  0.57119167  0.41520899
   0.80526670  0.57119167  0.41520899
   0.19473330  0.42880833  0.58479101
   0.19473330  0.92880833  0.91520899
   0.80526670  0.07119167  0.08479101
   0.08138156  0.79374793  0.19091092
   0.91861846  0.20625207  0.80908911
   0.91861846  0.70625207  0.69091089
   0.08138156  0.29374793  0.30908908
   0.91861846  0.29374793  0.30908908
   0.08138156  0.70625207  0.69091089
   0.08138156  0.20625207  0.80908911
   0.91861846  0.79374793  0.19091092
   0.58138154  0.29374793  0.19091092
   0.41861843  0.70625207  0.80908911
   0.41861843  0.20625207  0.69091089
   0.58138154  0.79374793  0.30908908
   0.41861843  0.79374793  0.30908908
   0.58138154  0.20625207  0.69091089
   0.58138154  0.70625207  0.80908911
   0.41861843  0.29374793  0.19091092
  -0.00000000  0.59332419  0.21011506
  -0.00000000  0.40667581  0.78988491
  -0.00000000  0.90667581  0.71011509
  -0.00000000  0.09332419  0.28988494
   0.50000000  0.09332419  0.21011506
   0.50000000  0.90667581  0.78988491
   0.50000000  0.40667581  0.71011509
   0.50000000  0.59332419  0.28988494