diamond                                 
           1
     6.264179    0.000000    0.000000
     0.000000    6.264179    0.000000
     0.000000    0.000000    6.264179
   H    C 
  16   4
Direct configuration=     1
   0.45587999  0.83459997  0.53931999
   0.45587999  0.04190000  0.33202001
   0.45587999  0.11777000  0.61519998
   0.69524998  0.99809003  0.49551001
   0.60030001  0.52968001  0.15026000
   0.54931998  0.63409001  0.89600998
   0.56970000  0.35765001  0.93207002
   0.34876001  0.49586999  0.03313000
   0.08223999  0.01558006  0.15304001
   0.03126001  0.11998999  0.89879000
   0.05164003  0.84355003  0.93484998
   0.83069998  0.98176998  0.03591000
   0.07562006  0.53223002  0.66030997
   0.02463996  0.63664001  0.40605000
   0.04501998  0.36019999  0.44211999
   0.82406998  0.49842000  0.54316997
   0.51572001  0.99809003  0.49551001
   0.51703000  0.50432998  0.00287000
   0.99896002  0.99023002  0.00565000
   0.99234003  0.50687998  0.51292002
Direct configuration=     2
   0.44844981  0.81041568  0.55247758
   0.44094019  0.05205835  0.30746260
   0.44678017  0.13383422  0.62977073
   0.72369152  0.99682154  0.49579847
   0.62221306  0.53374315  0.18473698
   0.55712117  0.66440303  0.86745775
   0.58094555  0.32429403  0.91274708
   0.31045187  0.49452649  0.03517319
   0.10159088  0.01991725  0.18877336
   0.04323959  0.14699149  0.87352722
   0.06237773  0.81315788  0.91741192
   0.79004336  0.97616263  0.04744884
   0.09135169  0.54410625  0.69559740
   0.03626519  0.66727282  0.38272060
   0.05584476  0.32507034  0.42505560
   0.78570464  0.49431002  0.55174220
   0.51586637  0.99849423  0.49681976
   0.51625667  0.50417168  0.00387765
   0.99909927  0.99027651  0.00354882
   0.99197650  0.50753252  0.51256221
Direct configuration=     3
   0.44722347  0.80642408  0.55464923
   0.43847439  0.05373498  0.30340941
   0.44527825  0.13648561  0.63217562
   0.72838578  0.99661218  0.49584608
   0.62582979  0.53441377  0.19042737
   0.55840875  0.66940617  0.86274523
   0.58280162  0.31878865  0.90955784
   0.30412914  0.49430475  0.03551042
   0.10478473  0.02063310  0.19467112
   0.04521681  0.15144806  0.86935762
   0.06414998  0.80814168  0.91453378
   0.78333301  0.97523714  0.04935331
   0.09394818  0.54606642  0.70142157
   0.03818392  0.67232874  0.37887010
   0.05763138  0.31927222  0.42223914
   0.77937247  0.49363167  0.55315704
   0.51589053  0.99856094  0.49703594
   0.51612904  0.50414555  0.00404396
   0.99912225  0.99028418  0.00320202
   0.99191650  0.50764022  0.51250316
Direct configuration=     4
   0.44477078  0.79844088  0.55899252
   0.43354279  0.05708823  0.29530305
   0.44227441  0.14178838  0.63698540
   0.73777429  0.99619346  0.49594130
   0.63306325  0.53575501  0.20180817
   0.56098391  0.67941246  0.85332018
   0.58651375  0.30777789  0.90317937
   0.29148369  0.49386126  0.03618488
   0.11117243  0.02206480  0.20646665
   0.04917125  0.16036122  0.86101842
   0.06769448  0.79810928  0.90877750
   0.76991232  0.97338616  0.05316226
   0.09914117  0.54998674  0.71306989
   0.04202139  0.68244059  0.37116910
   0.06120462  0.30767597  0.41660621
   0.76670813  0.49227498  0.55598671
   0.51593884  0.99869436  0.49746828
   0.51587376  0.50409329  0.00437659
   0.99916822  0.99029953  0.00250842
   0.99179650  0.50785562  0.51238504
Direct configuration=     5
   0.43986540  0.78247448  0.56767912
   0.42367958  0.06379475  0.27909031
   0.43626674  0.15239393  0.64660495
   0.75655131  0.99535601  0.49613173
   0.64753017  0.53843748  0.22456976
   0.56613423  0.69942502  0.83447009
   0.59393803  0.28575638  0.89042242
   0.26619277  0.49297429  0.03753379
   0.12394783  0.02492820  0.23005770
   0.05708013  0.17818752  0.84434001
   0.07478348  0.77804449  0.89726495
   0.74307095  0.96968421  0.06078017
   0.10952714  0.55782739  0.73636655
   0.04969632  0.70266427  0.35576711
   0.06835110  0.28448349  0.40534036
   0.74137945  0.48956158  0.56164607
   0.51603547  0.99896121  0.49833298
   0.51536322  0.50398878  0.00504183
   0.99926015  0.99033022  0.00112122
   0.99155651  0.50828642  0.51214882
Direct configuration=     6
   0.43005464  0.75054169  0.58505231
   0.40395318  0.07720777  0.24666485
   0.42425140  0.17360502  0.66584407
   0.79410536  0.99368111  0.49651261
   0.67646402  0.54380243  0.27009295
   0.57643487  0.73945015  0.79676991
   0.60878658  0.24171335  0.86490853
   0.21561094  0.49120034  0.04023161
   0.14949864  0.03065500  0.27723979
   0.07289790  0.21384013  0.81098320
   0.08896147  0.73791489  0.87423985
   0.68938819  0.96228030  0.07601597
   0.13029909  0.57350870  0.78295985
   0.06504619  0.74311164  0.32496312
   0.08264407  0.23809852  0.38280866
   0.69072209  0.48413479  0.57296478
   0.51622872  0.99949491  0.50006237
   0.51434212  0.50377976  0.00637233
   0.99944401  0.99039160 -0.00165317
   0.99107651  0.50914802  0.51167637
Direct configuration=     7
   0.45530607  0.72914875  0.62308216
   0.37401288  0.07425226  0.22997904
   0.43815306  0.19328996  0.70332283
   0.81368830  0.99003189  0.49210715
   0.69264266  0.54411416  0.32179184
   0.56945152  0.75824344  0.74602337
   0.59461091  0.20864179  0.82851241
   0.18629580  0.49563470  0.02791283
   0.18211032  0.04387741  0.31327738
   0.09297088  0.24040612  0.79034300
   0.08163289  0.77184026  0.89660861
   0.64782589  0.96559023  0.07677482
   0.15011296  0.52102268  0.79077584
   0.07339520  0.77894279  0.30821938
   0.09132622  0.18623730  0.36314760
   0.65677840  0.49519818  0.56052964
   0.51555175  0.00394427  0.50267994
   0.51144806  0.50146994  0.00767801
   0.00175031  0.98514574 -0.00878559
   0.99114589  0.51052825  0.51072969
Direct configuration=     8
   0.44487401  0.73798676  0.60737098
   0.38638204  0.07547326  0.23687241
   0.43240990  0.18515757  0.68783932
   0.80559804  0.99153948  0.49392716
   0.68595882  0.54398537  0.30043360
   0.57233654  0.75047941  0.76698817
   0.60046727  0.22230456  0.84354865
   0.19840670  0.49380275  0.03300206
   0.16863753  0.03841487  0.29838926
   0.08467818  0.22943097  0.79887003
   0.08466053  0.75782475  0.88736746
   0.66499643  0.96422281  0.07646132
   0.14192731  0.54270610  0.78754684
   0.06994599  0.76413995  0.31513668
   0.08773938  0.20766260  0.37127012
   0.67080147  0.49062759  0.56566694
   0.51583143  0.00210612  0.50159855
   0.51264368  0.50242419  0.00713860
   0.00079752  0.98731295 -0.00583899
   0.99111723  0.50995804  0.51112079
Direct configuration=     9
   0.45980263  0.72123540  0.61825445
   0.37128884  0.06566515  0.22666817
   0.45541485  0.20073893  0.72915459
   0.81769303  0.98829364  0.48563641
   0.69393501  0.54002392  0.35978313
   0.58111545  0.76004110  0.74722242
   0.57228407  0.19725748  0.80987736
   0.18021210  0.50351305  0.01055581
   0.21065234  0.01592652  0.30658241
   0.10861839  0.25777533  0.78329633
   0.08353400  0.75934780  0.90029757
   0.62862743  0.97313823  0.07146300
   0.14282375  0.52077466  0.81491028
   0.07418616  0.79358881  0.30707444
   0.07155226  0.19693671  0.37392324
   0.64803073  0.50879754  0.53444592
   0.51651752  0.00917162  0.50405477
   0.50913034  0.49786556  0.00925244
   0.00385027  0.97596547 -0.01786343
   0.99094083  0.51150320  0.51012064
Direct configuration=    10
   0.44693410  0.73567514  0.60887285
   0.38429924  0.07411978  0.23546427
   0.43558449  0.18730773  0.69354066
   0.80726710  0.99109157  0.49278307
   0.68705950  0.54343871  0.30862359
   0.57354799  0.75179889  0.76426058
   0.59657810  0.21884817  0.83890215
   0.19589592  0.49514273  0.02990457
   0.17443541  0.03531157  0.29951988
   0.08798183  0.23334238  0.79672092
   0.08450507  0.75803493  0.88915176
   0.65997765  0.96545310  0.07577157
   0.14205101  0.53967965  0.79132288
   0.07053112  0.76820378  0.31402412
   0.08550563  0.20618247  0.37163624
   0.66765920  0.49313497  0.56135857
   0.51592611  0.00308113  0.50193750
   0.51215885  0.50179512  0.00743030
   0.00121878  0.98574705 -0.00749831
   0.99109288  0.51017127  0.51098277
Direct configuration=    11
   0.44844099  0.73398427  0.60997143
   0.38277574  0.07312975  0.23443425
   0.43790660  0.18888051  0.69771101
   0.80848797  0.99076394  0.49194621
   0.68786461  0.54303884  0.31461432
   0.57443413  0.75276404  0.76226543
   0.59373330  0.21631992  0.83550338
   0.19405936  0.49612288  0.02763885
   0.17867637  0.03304160  0.30034689
   0.09039835  0.23620345  0.79514892
   0.08439136  0.75818866  0.89045692
   0.65630658  0.96635302  0.07526704
   0.14214150  0.53746590  0.79408494
   0.07095912  0.77117634  0.31321032
   0.08387170  0.20509980  0.37190405
   0.66536073  0.49496904  0.55820713
   0.51599536  0.00379432  0.50218543
   0.51180422  0.50133497  0.00764367
   0.00152693  0.98460163 -0.00871206
   0.99107508  0.51032724  0.51088182
Direct configuration=    12
   0.45266650  0.72924283  0.61305197
   0.37850364  0.07035359  0.23154597
   0.44441810  0.19329078  0.70940520
   0.81191142  0.98984521  0.48959953
   0.69012225  0.54191756  0.33141306
   0.57691898  0.75547046  0.75667078
   0.58575611  0.20923040  0.82597280
   0.18890942  0.49887136  0.02128549
   0.19056856  0.02667632  0.30266595
   0.09717457  0.24422625  0.79074082
   0.08407250  0.75861976  0.89411676
   0.64601242  0.96887651  0.07385228
   0.14239523  0.53125826  0.80183010
   0.07215929  0.77951176  0.31092833
   0.07928998  0.20206387  0.37265500
   0.65891552  0.50011200  0.54937009
   0.51618956  0.00579419  0.50288066
   0.51080978  0.50004466  0.00824199
   0.00239100  0.98138976 -0.01211555
   0.99102515  0.51076459  0.51059873
Direct configuration=    13
   0.45081862  0.73131633  0.61170480
   0.38037190  0.07156765  0.23280906
   0.44157052  0.19136210  0.70429115
   0.81041429  0.99024698  0.49062577
   0.68913495  0.54240791  0.32406671
   0.57583232  0.75428690  0.75911740
   0.58924466  0.21233076  0.83014067
   0.19116157  0.49766941  0.02406391
   0.18536792  0.02945996  0.30165179
   0.09421122  0.24071776  0.79266855
   0.08421194  0.75843123  0.89251626
   0.65051421  0.96777295  0.07447098
   0.14228427  0.53397296  0.79844302
   0.07163444  0.77586655  0.31192628
   0.08129364  0.20339153  0.37232660
   0.66173411  0.49786290  0.55323466
   0.51610463  0.00491961  0.50257662
   0.51124466  0.50060894  0.00798033
   0.00201313  0.98279436 -0.01062715
   0.99104698  0.51057333  0.51072253
Direct configuration=    14
   0.44791986  0.71452603  0.59387490
   0.38960075  0.06039818  0.22185112
   0.43289057  0.19794503  0.71495574
   0.81893707  0.98933121  0.47956638
   0.69069334  0.53647069  0.37708378
   0.60161348  0.76034539  0.77260519
   0.58912254  0.19729040  0.83207739
   0.18290419  0.50938432  0.00441133
   0.20676733  0.00433440  0.30457951
   0.11756214  0.26740961  0.78009881
   0.08584601  0.74449113  0.90076875
   0.61969749  0.97994590  0.06713312
   0.13276984  0.52873914  0.82722501
   0.07436381  0.80034812  0.30971369
   0.05940690  0.19941284  0.38162034
   0.64785348  0.52005095  0.51784691
   0.51915048  0.01165360  0.50427254
   0.50733607  0.49614705  0.01022388
   0.00588699  0.96779679 -0.02373004
   0.98988765  0.51153932  0.50853161
Direct configuration=    15
   0.45025124  0.72802994  0.60821492
   0.38217828  0.06938143  0.23066424
   0.43987158  0.19265059  0.70637855
   0.81208247  0.99006774  0.48846109
   0.68943998  0.54124581  0.33444385
   0.58087852  0.75547274  0.76175739
   0.58922076  0.20938688  0.83051975
   0.18954534  0.49996239  0.02021727
   0.18955647  0.02454208  0.30222484
   0.09878175  0.24594221  0.79020825
   0.08453178  0.75570271  0.89413153
   0.64448240  0.97015558  0.07303472
   0.14042199  0.53294853  0.80407658
   0.07216866  0.78065838  0.31149320
   0.07700970  0.20261277  0.37414568
   0.65901723  0.50220581  0.54630815
   0.51670080  0.00623767  0.50290857
   0.51047962  0.49973560  0.00841947
   0.00277137  0.97985886 -0.01319180
   0.99082007  0.51076240  0.51029370
Direct configuration=    16
   0.44991654  0.72609127  0.60615622
   0.38324387  0.06809177  0.22939900
   0.43886936  0.19341067  0.70760992
   0.81306654  0.98996200  0.48718414
   0.68961991  0.54056028  0.34056536
   0.58385529  0.75617227  0.76331474
   0.58920666  0.20765027  0.83074337
   0.18859191  0.50131503  0.01794812
   0.19202731  0.02164100  0.30256288
   0.10147791  0.24902413  0.78875691
   0.08472046  0.75409314  0.89508439
   0.64092420  0.97156111  0.07218747
   0.13932343  0.53234422  0.80739984
   0.07248380  0.78348510  0.31123773
   0.07448259  0.20215338  0.37521877
   0.65741453  0.50476771  0.54222217
   0.51705249  0.00701520  0.50310438
   0.51002833  0.49922042  0.00867852
   0.00321865  0.97812719 -0.01470470
   0.99068621  0.51087394  0.51004073
Direct configuration=    17
   0.44940327  0.72311831  0.60299918
   0.38487797  0.06611405  0.22745875
   0.43733245  0.19457628  0.70949823
   0.81457562  0.98979985  0.48522592
   0.68989585  0.53950901  0.34995279
   0.58842021  0.75724501  0.76570294
   0.58918503  0.20498716  0.83108629
   0.18712983  0.50338933  0.01446835
   0.19581638  0.01719217  0.30308127
   0.10561253  0.25375030  0.78653126
   0.08500979  0.75162485  0.89654561
   0.63546766  0.97371651  0.07088820
   0.13763876  0.53141750  0.81249610
   0.07296708  0.78781991  0.31084596
   0.07060723  0.20144890  0.37686435
   0.65495676  0.50869642  0.53595626
   0.51759180  0.00820755  0.50340467
   0.50933626  0.49843038  0.00907577
   0.00390458  0.97547166 -0.01702476
   0.99048093  0.51104498  0.50965279
Direct configuration=    18
   0.45826651  0.70781446  0.59373434
   0.40864028  0.05365758  0.21383261
   0.41156340  0.19823234  0.70734925
   0.82376128  0.99196300  0.47139375
   0.69629415  0.53780628  0.35933420
   0.60310222  0.75798728  0.77358510
   0.60221788  0.19105076  0.85139479
   0.18769199  0.51684437  0.01298283
   0.20203848 -0.00454076  0.30611441
   0.13012575  0.27977791  0.77265421
   0.08700267  0.73195040  0.90457991
   0.60390460  0.98999934  0.06300380
   0.12007618  0.53379951  0.82574777
   0.07631367  0.81484503  0.31224652
   0.04917208  0.19038062  0.38791690
   0.63571575  0.53000942  0.53888360
   0.52209303  0.01478711  0.50470137
   0.50516822  0.49457740  0.01100236
   0.00926226  0.95578007 -0.03148151
   0.98779958  0.51083799  0.50573374
Direct configuration=    19
   0.46747397  0.69191625  0.58410968
   0.43332546  0.04071733  0.19967727
   0.38479354  0.20203040  0.70511680
   0.83330369  0.99421016  0.45702437
   0.70294095  0.53603743  0.36907997
   0.61835445  0.75875838  0.78177339
   0.61575690  0.17657311  0.87249202
   0.18827599  0.53082197  0.01143962
   0.20850224 -0.02711774  0.30926534
   0.15559101  0.30681637  0.75823821
   0.08907295  0.71151185  0.91292623
   0.57111569  0.00691456  0.05481319
   0.10183151  0.53627403  0.83951412
   0.07979022  0.84291974  0.31370148
   0.02690444  0.17888247  0.39939870
   0.61572746  0.55215016  0.54192463
   0.52676909  0.02162220  0.50604844
   0.50083831  0.49057478  0.01300377
   0.01482803  0.93532371 -0.04649974
   0.98501410  0.51062296  0.50166248
Direct configuration=    20
   0.46276923  0.70003978  0.58902760
   0.42071205  0.04732943  0.20691023
   0.39847216  0.20008970  0.70625751
   0.82842779  0.99306193  0.46436670
   0.69954463  0.53694126  0.36410017
   0.61056100  0.75836437  0.77758942
   0.60883885  0.18397077  0.86171195
   0.18797758  0.52367982  0.01222815
   0.20519945 -0.01558156  0.30765531
   0.14257900  0.29300050  0.76560437
   0.08801510  0.72195535  0.90866150
   0.58786987 -0.00172863  0.05899836
   0.11115400  0.53500962  0.83247991
   0.07801380  0.82857438  0.31295804
   0.03828256  0.18475769  0.39353183
   0.62594090  0.54083689  0.54037075
   0.52437976  0.01812967  0.50536013
   0.50305077  0.49262001  0.01198111
   0.01198408  0.94577631 -0.03882586
   0.98643740  0.51073284  0.50374278
Direct configuration=    21
   0.47045738  0.69351765  0.58950096
   0.43245632  0.03934299  0.19947005
   0.38742763  0.20240078  0.70823430
   0.83545689  0.99628279  0.45637358
   0.70747198  0.53457245  0.36105040
   0.61423974  0.75734817  0.77882825
   0.61043565  0.17647240  0.87088241
   0.19279580  0.53225647  0.02123372
   0.21298547 -0.01920849  0.30733513
   0.15651517  0.30451252  0.75726469
   0.08776696  0.71799984  0.91549140
   0.56968988  0.00921180  0.05592872
   0.10060753  0.52980390  0.82675356
   0.07558925  0.83857663  0.31541663
   0.02679181  0.17577935  0.40001421
   0.61253943  0.55205364  0.54786931
   0.52663441  0.02179614  0.50626520
   0.50077184  0.49106804  0.01247344
   0.01551842  0.93350216 -0.04656810
   0.98405845  0.51027087  0.50089208
Direct configuration=    22
   0.47398080  0.69052861  0.58971790
   0.43783862  0.03568287  0.19606028
   0.38236601  0.20345993  0.70914025
   0.83867827  0.99775888  0.45271039
   0.71110502  0.53348684  0.35965272
   0.61592567  0.75688245  0.77939599
   0.61116744  0.17303596  0.87508516
   0.19500394  0.53618708  0.02536090
   0.21655374 -0.02087068  0.30718840
   0.16290200  0.30978839  0.75344268
   0.08765324  0.71618707  0.91862149
   0.56135814  0.01422571  0.05452193
   0.09577417  0.52741816  0.82412922
   0.07447809  0.84316058  0.31654339
   0.02152570  0.17166465  0.40298503
   0.60639764  0.55719419  0.55130584
   0.52766770  0.02347646  0.50667999
   0.49972743  0.49035678  0.01269907
   0.01713818  0.92787701 -0.05011631
   0.98296819  0.51005916  0.49958564
Direct configuration=    23
   0.47473383  0.69447960  0.59753813
   0.43725758  0.02872700  0.19852961
   0.37338536  0.20618737  0.71286148
   0.84752453  0.00299716  0.44561211
   0.71897908  0.53033805  0.35969743
   0.61575947  0.75504255  0.77844445
   0.60869230  0.16695900  0.88129946
   0.19966660  0.54482627  0.03284961
   0.22907494 -0.01684587  0.30491975
   0.17642051  0.31680543  0.74597769
   0.08684241  0.71618273  0.92541268
   0.55277234  0.02439916  0.04484047
   0.08962141  0.51887604  0.81722819
   0.06711231  0.84790337  0.32051711
   0.01131772  0.16074353  0.40872441
   0.60397795  0.55794596  0.55009660
   0.52957086  0.02687894  0.50785091
   0.49754961  0.48980369  0.01270496
   0.02072723  0.91558713 -0.05650600
   0.97922395  0.50972300  0.49611088
Direct configuration=    24
   0.47555542  0.69879035  0.60607042
   0.43662364  0.02113777  0.20122378
   0.36358699  0.20916316  0.71692156
   0.85717628  0.00871241  0.43786751
   0.72757011  0.52690255  0.35974621
   0.61557814  0.75303512  0.77740626
   0.60599178  0.16032871  0.88807960
   0.20475380  0.55425209  0.04102019
   0.24273624 -0.01245458  0.30244454
   0.19116993  0.32446140  0.73783300
   0.08595776  0.71617799  0.93282224
   0.54340478  0.03549894  0.03427748
   0.08290842  0.50955613  0.80969880
   0.05907585  0.85307801  0.32485265
   0.00018028  0.14882799  0.41498638
   0.60133794  0.55876619  0.54877726
   0.53164731  0.03059123  0.50912846
   0.49517348  0.48920024  0.01271139
   0.02464307  0.90217820 -0.06347749
   0.97513877  0.50935622  0.49231973
Direct configuration=    25
   0.47328574  0.70654144  0.61504996
   0.43130979  0.01783626  0.20636837
   0.36346226  0.20903461  0.71809576
   0.85641060  0.00540080  0.43581330
   0.73073815  0.52500168  0.36481276
   0.61254568  0.75183556  0.77617389
   0.60385044  0.16291840  0.88371318
   0.20539912  0.55839475  0.03966840
   0.24438278 -0.01316093  0.30127722
   0.19471800  0.32694322  0.73670348
   0.08612001  0.71317264  0.93387455
   0.54115230  0.03683306  0.03335753
   0.08452884  0.50876259  0.81080565
   0.05823751  0.85905337  0.32762166
   0.00251756  0.14896462  0.41586470
   0.60813215  0.55297801  0.53919726
   0.53276493  0.03213352  0.50971509
   0.49341938  0.48989704  0.01274232
   0.02635756  0.89540391 -0.06569129
   0.97087721  0.50961555  0.48954615
Direct configuration=    26
   0.46995932  0.71790131  0.62821020
   0.42352191  0.01299763  0.21390818
   0.36327947  0.20884621  0.71981665
   0.85528844  0.00054735  0.43280269
   0.73538118  0.52221580  0.37223820
   0.60810135  0.75007750  0.77436775
   0.60071213  0.16671382  0.87731384
   0.20634488  0.56446617  0.03768724
   0.24679590 -0.01419613  0.29956642
   0.19991798  0.33058054  0.73504809
   0.08635780  0.70876804  0.93541680
   0.53785112  0.03878832  0.03200926
   0.08690369  0.50759961  0.81242783
   0.05700885  0.86781075  0.33167987
   0.00594303  0.14916485  0.41715197
   0.61808964  0.54449496  0.52515699
   0.53440289  0.03439388  0.51057486
   0.49084860  0.49091826  0.01278766
   0.02887028  0.88547564 -0.06893579
   0.96463154  0.50999561  0.48548124
Direct configuration=    27
   0.47091588  0.71463461  0.62442578
   0.42576143  0.01438905  0.21173999
   0.36333203  0.20890039  0.71932178
   0.85561113  0.00194303  0.43366844
   0.73404600  0.52301692  0.37010290
   0.60937938  0.75058306  0.77488713
   0.60161459  0.16562239  0.87915407
   0.20607291  0.56272024  0.03825696
   0.24610197 -0.01389844  0.30005839
   0.19842265  0.32953458  0.73552412
   0.08628942  0.71003465  0.93497331
   0.53880042  0.03822606  0.03239698
   0.08622077  0.50793404  0.81196135
   0.05736217  0.86529243  0.33051287
   0.00495798  0.14910727  0.41678179
   0.61522621  0.54693439  0.52919448
   0.53393187  0.03374388  0.51032762
   0.49158787  0.49062459  0.01277462
   0.02814771  0.88833067 -0.06800278
   0.96642757  0.50988632  0.48665016
Direct configuration=    28
   0.47299817  0.71499377  0.62762635
   0.42665083  0.01296812  0.21095925
   0.36829915  0.20730172  0.72042931
   0.85562419 -0.00252198  0.43126758
   0.74228440  0.51999718  0.37248070
   0.60725009  0.75018811  0.77648953
   0.59562384  0.16872609  0.87447249
   0.20786739  0.56438339  0.03516251
   0.24169826 -0.01672799  0.30116382
   0.19890420  0.33219694  0.73603586
   0.08540344  0.70733850  0.93370479
   0.53610228  0.03984699  0.03477621
   0.09076924  0.50868429  0.81531504
   0.05565765  0.87346948  0.33430141
   0.00841961  0.14985128  0.41760058
   0.61366618  0.54881702  0.52619013
   0.53511743  0.03456307  0.51098787
   0.48883879  0.49183482  0.01297116
   0.02949404  0.88150920 -0.06965839
   0.95954082  0.51014013  0.48243376
Direct configuration=    29
   0.47771670  0.71580764  0.63487893
   0.42866624  0.00974826  0.20919008
   0.37955477  0.20367907  0.72293899
   0.85565377 -0.01263982  0.42582717
   0.76095281  0.51315438  0.37786885
   0.60242504  0.74929316  0.78012060
   0.58204865  0.17575915  0.86386392
   0.21193372  0.56815212  0.02815043
   0.23171933 -0.02313984  0.30366876
   0.19999540  0.33822994  0.73719547
   0.08339578  0.70122895  0.93083030
   0.52998821  0.04352006  0.04016761
   0.10107620  0.51038437  0.82291458
   0.05179516  0.89199888  0.34288634
   0.01626373  0.15153724  0.41945597
   0.61013109  0.55308311  0.51938218
   0.53780395  0.03641939  0.51248401
   0.48260930  0.49457723  0.01341653
   0.03254487  0.86605157 -0.07341004
   0.94393527  0.51071528  0.47287927
Direct configuration=    30
   0.47828572  0.71329336  0.63269148
   0.42740059  0.00845987  0.20979674
   0.38314105  0.20395073  0.72451159
   0.85674097 -0.01431510  0.42435321
   0.76664559  0.51140211  0.38192688
   0.60321776  0.74999038  0.78505747
   0.57493551  0.17746591  0.86121365
   0.21546364  0.56798626  0.02676239
   0.23194740 -0.02415224  0.30354232
   0.20207043  0.33798388  0.73712443
   0.08196503  0.70036636  0.92961797
   0.52896604  0.04590172  0.03986177
   0.10514263  0.50983479  0.82469816
   0.04842437  0.89741881  0.34612147
   0.01758215  0.15079197  0.42031743
   0.60930271  0.55584476  0.51641989
   0.53884002  0.03693150  0.51302348
   0.47963143  0.49592230  0.01361811
   0.03302473  0.86171139 -0.07469436
   0.93748221  0.51077138  0.46874588
Direct configuration=    31
   0.47926728  0.70895629  0.62891815
   0.42521735  0.00623742  0.21084323
   0.38932734  0.20441935  0.72722430
   0.85861637 -0.01720494  0.42181065
   0.77646554  0.50837947  0.38892691
   0.60458519  0.75119306  0.79357348
   0.56266547  0.18041005  0.85664197
   0.22155272  0.56770015  0.02436805
   0.23234082 -0.02589862  0.30332422
   0.20564982  0.33755943  0.73700189
   0.07949701  0.69887840  0.92752673
   0.52720282  0.05001004  0.03933418
   0.11215717  0.50888679  0.82777481
   0.04260981  0.90676810  0.35170202
   0.01985640  0.14950638  0.42180344
   0.60787375  0.56060855  0.51131000
   0.54062723  0.03781487  0.51395406
   0.47449466  0.49824253  0.01396582
   0.03385247  0.85422464 -0.07690980
   0.92635078  0.51086815  0.46161585
Direct configuration=    32
   0.47910785  0.70966077  0.62953106
   0.42557198  0.00659842  0.21067325
   0.38832249  0.20434323  0.72678367
   0.85831174 -0.01673554  0.42222364
   0.77487046  0.50887044  0.38778988
   0.60436308  0.75099771  0.79219020
   0.56465852  0.17993183  0.85738456
   0.22056366  0.56774663  0.02475697
   0.23227692 -0.02561496  0.30335964
   0.20506841  0.33762838  0.73702179
   0.07989789  0.69912010  0.92786641
   0.52748922  0.04934272  0.03941988
   0.11101778  0.50904078  0.82727507
   0.04355428  0.90524947  0.35079556
   0.01948699  0.14971520  0.42156206
   0.60810586  0.55983475  0.51214001
   0.54033693  0.03767138  0.51380291
   0.47532904  0.49786565  0.01390934
   0.03371802  0.85544073 -0.07654994
   0.92815889  0.51085243  0.46277399
Direct configuration=    33
   0.48152639  0.70726326  0.62814928
   0.42380921  0.00622267  0.21084317
   0.38812228  0.20663349  0.72710805
   0.85725676 -0.01474322  0.42304003
   0.77236851  0.50921227  0.39105981
   0.60365289  0.75108726  0.79398008
   0.55997492  0.17935403  0.85893144
   0.22413737  0.56732842  0.02495667
   0.23512912 -0.02553425  0.30269421
   0.20761448  0.33496569  0.73612246
   0.08016442  0.69728825  0.92813577
   0.52778120  0.05140079  0.03765646
   0.11334938  0.50699202  0.82651771
   0.04331368  0.90601555  0.35108810
   0.01871511  0.14869434  0.42263465
   0.61001650  0.56159587  0.50950091
   0.54097728  0.03766781  0.51402238
   0.47251711  0.49921514  0.01411777
   0.03270391  0.85625720 -0.07724138
   0.92707947  0.51064352  0.46139235
Direct configuration=    34
   0.48878201  0.70007073  0.62400394
   0.41852092  0.00509540  0.21135292
   0.38752167  0.21350428  0.72808120
   0.85409181 -0.00876625  0.42548919
   0.76486265  0.51023775  0.40086961
   0.60152232  0.75135591  0.79934972
   0.54592413  0.17762063  0.86357209
   0.23485853  0.56607381  0.02555578
   0.24368571 -0.02529213  0.30069792
   0.21525268  0.32697764  0.73342446
   0.08096398  0.69179273  0.92894383
   0.52865712  0.05757502  0.03236621
   0.12034416  0.50084575  0.82424566
   0.04259189  0.90831378  0.35196574
   0.01639949  0.14563175  0.42585243
   0.61574843  0.56687923  0.50158363
   0.54289834  0.03765707  0.51468079
   0.46408134  0.50326362  0.01474309
   0.02966159  0.85870662 -0.07931568
   0.92384122  0.51001679  0.45724742
Direct configuration=    35
   0.49285804  0.69798088  0.62417109
   0.41933800  0.00565495  0.20911913
   0.38754382  0.21596357  0.72708577
   0.85252865 -0.00564073  0.42680224
   0.76532313  0.50909853  0.40179852
   0.59930636  0.75083780  0.80016830
   0.54093076  0.17674600  0.86672324
   0.23958812  0.56556558  0.02487795
   0.24425688 -0.02633342  0.30101138
   0.21662922  0.32458157  0.73197309
   0.08206354  0.68940649  0.92952093
   0.52853347  0.05932930  0.03186734
   0.12367489  0.49816766  0.82368794
   0.04354418  0.90937296  0.35164196
   0.01496706  0.14463745  0.42790937
   0.61381326  0.57066964  0.50102130
   0.54402563  0.03736606  0.51479410
   0.45935889  0.50551124  0.01528436
   0.02832642  0.85915290 -0.08013375
   0.92359967  0.50949169  0.45538568
Direct configuration=    36
   0.49849129  0.69509263  0.62440210
   0.42046725  0.00642827  0.20603194
   0.38757443  0.21936241  0.72571006
   0.85036830 -0.00132114  0.42861692
   0.76595952  0.50752408  0.40308232
   0.59624381  0.75012174  0.80129961
   0.53402971  0.17553724  0.87107825
   0.24612460  0.56486318  0.02394116
   0.24504626 -0.02777251  0.30144458
   0.21853167  0.32127012  0.72996724
   0.08358317  0.68610860  0.93031850
   0.52836258  0.06175379  0.03117789
   0.12827811  0.49446643  0.82291714
   0.04486029  0.91083680  0.35119447
   0.01298737  0.14326330  0.43075214
   0.61113877  0.57590813  0.50024415
   0.54558359  0.03696387  0.51495070
   0.45283228  0.50861755  0.01603243
   0.02648116  0.85976967 -0.08126435
   0.92326585  0.50876597  0.45281269
Direct configuration=    37
   0.50047586  0.69610827  0.62792716
   0.42194083  0.00732753  0.20364721
   0.39108802  0.21915210  0.72341821
   0.84907331  0.00107876  0.42976207
   0.76600289  0.50598386  0.40205867
   0.59339528  0.74941617  0.80161312
   0.53054661  0.17669297  0.87155535
   0.25036714  0.56453000  0.02156847
   0.24472293 -0.02969057  0.30175726
   0.21516973  0.32161890  0.72803060
   0.08555148  0.68424270  0.93086109
   0.52809433  0.06076110  0.03481515
   0.13130150  0.49294162  0.82377967
   0.04555913  0.91222787  0.35072122
   0.01157940  0.14357215  0.43359938
   0.61060581  0.57737223  0.49815655
   0.54726701  0.03648930  0.51480665
   0.44694744  0.51134671  0.01711536
   0.02561556  0.85835129 -0.08183593
   0.92490572  0.50803718  0.45135270
Direct configuration=    38
   0.50397206  0.69789750  0.63413719
   0.42453681  0.00891173  0.19944606
   0.39727786  0.21878161  0.71938069
   0.84679196  0.00530661  0.43177945
   0.76607930  0.50327047  0.40025531
   0.58837707  0.74817317  0.80216544
   0.52441049  0.17872900  0.87239585
   0.25784117  0.56394305  0.01738855
   0.24415332 -0.03306958  0.30230810
   0.20924705  0.32223335  0.72461884
   0.08901904  0.68095558  0.93181695
   0.52762175  0.05901229  0.04122285
   0.13662776  0.49025538  0.82529918
   0.04679027  0.91467850  0.34988750
   0.00909900  0.14411624  0.43861530
   0.60966689  0.57995151  0.49447887