diamond                                 
           1
    11.549666    0.000000    0.000000
     0.000000    8.078620    0.000000
     0.000000    0.000000    8.073589
   H    C 
  64  16
Direct configuration=     1
   0.07739566  0.79577734  0.15401591
   0.92260436  0.20422266  0.84598412
   0.92260436  0.70422266  0.65401588
   0.07739566  0.29577734  0.34598409
   0.92260436  0.29577734  0.34598409
   0.07739566  0.70422266  0.65401588
   0.07739566  0.20422266  0.84598412
   0.92260436  0.79577734  0.15401591
   0.57739564  0.29577734  0.15401591
   0.42260433  0.70422266  0.84598412
   0.42260433  0.20422266  0.65401588
   0.57739564  0.79577734  0.34598409
   0.42260433  0.79577734  0.34598409
   0.57739564  0.20422266  0.65401588
   0.57739564  0.70422266  0.84598412
   0.42260433  0.29577734  0.15401591
   0.80468429  0.58490486  0.92910303
   0.19531571  0.41509514  0.07089697
   0.19531571  0.91509514  0.42910303
   0.80468429  0.08490486  0.57089697
   0.19531571  0.08490486  0.57089697
   0.80468429  0.91509514  0.42910303
   0.80468429  0.41509514  0.07089697
   0.19531571  0.58490486  0.92910303
   0.30468429  0.08490486  0.92910303
   0.69531571  0.91509514  0.07089697
   0.69531571  0.41509514  0.42910303
   0.30468429  0.58490486  0.57089697
   0.69531571  0.58490486  0.57089697
   0.30468429  0.41509514  0.42910303
   0.30468429  0.91509514  0.07089697
   0.69531571  0.08490486  0.92910303
   0.69518758  0.57086978  0.08525225
   0.30481242  0.42913022  0.91474775
   0.30481242  0.92913022  0.58525225
   0.69518758  0.07086978  0.41474775
   0.30481242  0.07086978  0.41474775
   0.69518758  0.92913022  0.58525225
   0.69518758  0.42913022  0.91474775
   0.30481242  0.57086978  0.08525225
   0.19518758  0.07086978  0.08525225
   0.80481242  0.92913022  0.91474775
   0.80481242  0.42913022  0.58525225
   0.19518758  0.57086978  0.41474775
   0.80481242  0.57086978  0.41474775
   0.19518758  0.42913022  0.58525225
   0.19518758  0.92913022  0.91474775
   0.80481242  0.07086978  0.08525225
   0.00000000  0.60401745  0.15830000
   0.00000000  0.39598255  0.84169997
   0.00000000  0.89598255  0.65830003
   0.00000000  0.10401745  0.34170000
   0.50000000  0.10401745  0.15830000
   0.50000000  0.89598255  0.84169997
   0.50000000  0.39598255  0.65830003
   0.50000000  0.60401745  0.34170000
   0.00000000  0.26421806  0.66360693
   0.00000000  0.73578194  0.33639307
   0.00000000  0.23578194  0.16360693
   0.00000000  0.76421806  0.83639307
   0.50000000  0.76421806  0.66360693
   0.50000000  0.23578194  0.33639307
   0.50000000  0.73578194  0.16360693
   0.50000000  0.26421806  0.83639307
   0.00000000  0.23287517  0.29933902
   0.00000000  0.76712483  0.70066096
   0.00000000  0.26712483  0.79933904
   0.00000000  0.73287517  0.20066096
   0.50000000  0.73287517  0.29933902
   0.50000000  0.26712483  0.70066096
   0.50000000  0.76712483  0.79933904
   0.50000000  0.23287517  0.20066096
   0.74984751  0.50000000  0.00000000
   0.25015249  0.50000000  0.00000000
   0.25015249  0.00000000  0.50000000
   0.74984751  0.00000000  0.50000000
   0.24984751  0.00000000  0.00000000
   0.75015249  0.00000000  0.00000000
   0.75015249  0.50000000  0.50000000
   0.24984751  0.50000000  0.50000000
Direct configuration=     2
   0.07742799  0.79580619  0.15406031
   0.92257203  0.20419381  0.84593971
   0.92257203  0.70419381  0.65406029
   0.07742799  0.29580619  0.34593969
   0.92257203  0.29580619  0.34593969
   0.07742799  0.70419381  0.65406029
   0.07742799  0.20419381  0.84593971
   0.92257203  0.79580619  0.15406031
   0.57742797  0.29580619  0.15406031
   0.42257200  0.70419381  0.84593971
   0.42257200  0.20419381  0.65406029
   0.57742797  0.79580619  0.34593969
   0.42257200  0.79580619  0.34593969
   0.57742797  0.20419381  0.65406029
   0.57742797  0.70419381  0.84593971
   0.42257200  0.29580619  0.15406031
   0.80468132  0.58493908  0.92906815
   0.19531868  0.41506092  0.07093185
   0.19531868  0.91506092  0.42906815
   0.80468132  0.08493908  0.57093185
   0.19531868  0.08493908  0.57093185
   0.80468132  0.91506092  0.42906815
   0.80468132  0.41506092  0.07093185
   0.19531868  0.58493908  0.92906815
   0.30468132  0.08493908  0.92906815
   0.69531868  0.91506092  0.07093185
   0.69531868  0.41506092  0.42906815
   0.30468132  0.58493908  0.57093185
   0.69531868  0.58493908  0.57093185
   0.30468132  0.41506092  0.42906815
   0.30468132  0.91506092  0.07093185
   0.69531868  0.08493908  0.92906815
   0.69519384  0.57088991  0.08529421
   0.30480616  0.42911009  0.91470579
   0.30480616  0.92911009  0.58529421
   0.69519384  0.07088991  0.41470579
   0.30480616  0.07088991  0.41470579
   0.69519384  0.92911009  0.58529421
   0.69519384  0.42911009  0.91470579
   0.30480616  0.57088991  0.08529421
   0.19519384  0.07088991  0.08529421
   0.80480616  0.92911009  0.91470579
   0.80480616  0.42911009  0.58529421
   0.19519384  0.57088991  0.41470579
   0.80480616  0.57088991  0.41470579
   0.19519384  0.42911009  0.58529421
   0.19519384  0.92911009  0.91470579
   0.80480616  0.07088991  0.08529421
   0.00000000  0.60406148  0.15840131
   0.00000000  0.39593852  0.84159866
   0.00000000  0.89593852  0.65840134
   0.00000000  0.10406148  0.34159869
   0.50000000  0.10406148  0.15840131
   0.50000000  0.89593852  0.84159866
   0.50000000  0.39593852  0.65840134
   0.50000000  0.60406148  0.34159869
   0.00000000  0.26424740  0.66362322
   0.00000000  0.73575260  0.33637678
   0.00000000  0.23575260  0.16362322
   0.00000000  0.76424740  0.83637678
   0.50000000  0.76424740  0.66362322
   0.50000000  0.23575260  0.33637678
   0.50000000  0.73575260  0.16362322
   0.50000000  0.26424740  0.83637678
   0.00000000  0.23273813  0.29923494
   0.00000000  0.76726187  0.70076505
   0.00000000  0.26726187  0.79923495
   0.00000000  0.73273813  0.20076505
   0.50000000  0.73273813  0.29923494
   0.50000000  0.26726187  0.70076505
   0.50000000  0.76726187  0.79923495
   0.50000000  0.23273813  0.20076505
   0.74985024  0.50000000  0.00000000
   0.25014976  0.50000000  0.00000000
   0.25014976 -0.00000000  0.50000000
   0.74985024  0.00000000  0.50000000
   0.24985024  0.00000000  0.00000000
   0.75014976 -0.00000000  0.00000000
   0.75014976  0.50000000  0.50000000
   0.24985024  0.50000000  0.50000000
Direct configuration=     3
   0.07741046  0.79579054  0.15403623
   0.92258956  0.20420946  0.84596380
   0.92258956  0.70420946  0.65403620
   0.07741046  0.29579054  0.34596377
   0.92258956  0.29579054  0.34596377
   0.07741046  0.70420946  0.65403620
   0.07741046  0.20420946  0.84596380
   0.92258956  0.79579054  0.15403623
   0.57741044  0.29579054  0.15403623
   0.42258953  0.70420946  0.84596380
   0.42258953  0.20420946  0.65403620
   0.57741044  0.79579054  0.34596377
   0.42258953  0.79579054  0.34596377
   0.57741044  0.20420946  0.65403620
   0.57741044  0.70420946  0.84596380
   0.42258953  0.29579054  0.15403623
   0.80468293  0.58492052  0.92908707
   0.19531707  0.41507948  0.07091293
   0.19531707  0.91507948  0.42908707
   0.80468293  0.08492052  0.57091293
   0.19531707  0.08492052  0.57091293
   0.80468293  0.91507948  0.42908707
   0.80468293  0.41507948  0.07091293
   0.19531707  0.58492052  0.92908707
   0.30468293  0.08492052  0.92908707
   0.69531707  0.91507948  0.07091293
   0.69531707  0.41507948  0.42908707
   0.30468293  0.58492052  0.57091293
   0.69531707  0.58492052  0.57091293
   0.30468293  0.41507948  0.42908707
   0.30468293  0.91507948  0.07091293
   0.69531707  0.08492052  0.92908707
   0.69519044  0.57087899  0.08527145
   0.30480956  0.42912101  0.91472855
   0.30480956  0.92912101  0.58527145
   0.69519044  0.07087899  0.41472855
   0.30480956  0.07087899  0.41472855
   0.69519044  0.92912101  0.58527145
   0.69519044  0.42912101  0.91472855
   0.30480956  0.57087899  0.08527145
   0.19519044  0.07087899  0.08527145
   0.80480956  0.92912101  0.91472855
   0.80480956  0.42912101  0.58527145
   0.19519044  0.57087899  0.41472855
   0.80480956  0.57087899  0.41472855
   0.19519044  0.42912101  0.58527145
   0.19519044  0.92912101  0.91472855
   0.80480956  0.07087899  0.08527145
   0.00000000  0.60403760  0.15834636
   0.00000000  0.39596240  0.84165361
   0.00000000  0.89596240  0.65834639
   0.00000000  0.10403760  0.34165364
   0.50000000  0.10403760  0.15834636
   0.50000000  0.89596240  0.84165361
   0.50000000  0.39596240  0.65834639
   0.50000000  0.60403760  0.34165364
   0.00000000  0.26423149  0.66361439
   0.00000000  0.73576851  0.33638561
   0.00000000  0.23576851  0.16361439
   0.00000000  0.76423149  0.83638561
   0.50000000  0.76423149  0.66361439
   0.50000000  0.23576851  0.33638561
   0.50000000  0.73576851  0.16361439
   0.50000000  0.26423149  0.83638561
   0.00000000  0.23281245  0.29929139
   0.00000000  0.76718755  0.70070859
   0.00000000  0.26718755  0.79929141
   0.00000000  0.73281245  0.20070859
   0.50000000  0.73281245  0.29929139
   0.50000000  0.26718755  0.70070859
   0.50000000  0.76718755  0.79929141
   0.50000000  0.23281245  0.20070859
   0.74984876  0.50000000  0.00000000
   0.25015124  0.50000000  0.00000000
   0.25015124 -0.00000000  0.50000000
   0.74984876  0.00000000  0.50000000
   0.24984876  0.00000000  0.00000000
   0.75015124 -0.00000000  0.00000000
   0.75015124  0.50000000  0.50000000
   0.24984876  0.50000000  0.50000000
