diamond                                 
           1
     6.264179    0.000000    0.000000
     0.000000    6.264179    0.000000
     0.000000    0.000000    6.264179
   H    C 
  16   4
Direct configuration=     1
   0.60030001  0.52968001  0.15026000
   0.54931998  0.63409001  0.89600998
   0.56970000  0.35765001  0.93207002
   0.34876001  0.49586999  0.03313000
   0.96934003  0.10341001  0.13061000
   0.95473999  0.05858004  0.85507000
   0.16532004  0.94997001  0.00338000
   0.90644997  0.84893000  0.03353000
   0.07562006  0.53223002  0.66030997
   0.02463996  0.63664001  0.40605000
   0.04501998  0.36019999  0.44211999
   0.82406998  0.49842000  0.54316997
   0.57178003  0.02575004  0.62698001
   0.52079999  0.13015997  0.37272999
   0.54118002  0.85372001  0.40878999
   0.32023999  0.99194002  0.50984001
   0.51703000  0.50432998  0.00287000
   0.99896002  0.99023002  0.00565000
   0.99234003  0.50687998  0.51292002
   0.48850000  0.00039995  0.47959000
Direct configuration=     2
   0.61890844  0.53739186  0.18979634
   0.56152057  0.66593118  0.86744023
   0.58501999  0.32444489  0.91474594
   0.30947790  0.49669800  0.03998240
   0.95765859  0.12660082  0.15560258
   0.94183210  0.07898411  0.82229816
   0.20396305  0.93773122  0.00215846
   0.88476015  0.81805127  0.04863294
   0.09601088  0.53518272  0.69442729
   0.03405334  0.66511200  0.37791044
   0.05372157  0.32870326  0.42298074
   0.78450893  0.49366950  0.54812009
   0.58850415  0.02978100  0.66179981
   0.53376021  0.15784928  0.34647231
   0.55385325  0.82344873  0.39146725
   0.27931289  0.98749293  0.52135867
   0.51582469  0.50360070  0.00224428
   0.99959270  0.99094445  0.00571871
   0.99279883  0.50688297  0.51358551
   0.48902786  0.00057919  0.47833781
Direct configuration=     3
   0.62153292  0.53847951  0.19537243
   0.56324131  0.67042197  0.86341084
   0.58718068  0.31976173  0.91230260
   0.30393766  0.49681478  0.04094884
   0.95601107  0.12987159  0.15912746
   0.94001161  0.08186184  0.81767612
   0.20941315  0.93600510  0.00198618
   0.88170107  0.81369622  0.05076302
   0.09888675  0.53559916  0.69923910
   0.03538097  0.66912761  0.37394171
   0.05494882  0.32426106  0.42028139
   0.77892935  0.49299950  0.54881824
   0.59086287  0.03034951  0.66671069
   0.53558808  0.16175450  0.34276900
   0.55564064  0.81917936  0.38902410
   0.27354065  0.98686572  0.52298323
   0.51565470  0.50349785  0.00215603
   0.99968193  0.99104521  0.00572840
   0.99286354  0.50688339  0.51367937
   0.48910231  0.00060447  0.47816120
Direct configuration=     4
   0.62678188  0.54065483  0.20652461
   0.56668278  0.67940354  0.85535205
   0.59150205  0.31039542  0.90741592
   0.29285719  0.49704834  0.04288173
   0.95271604  0.13641312  0.16617722
   0.93637063  0.08761730  0.80843203
   0.22031335  0.93255285  0.00164162
   0.87558293  0.80498612  0.05502317
   0.10463848  0.53643205  0.70886272
   0.03803625  0.67715882  0.36600427
   0.05740331  0.31537664  0.41488270
   0.76777019  0.49165951  0.55021454
   0.59558032  0.03148654  0.67653247
   0.53924382  0.16956494  0.33536238
   0.55921544  0.81064061  0.38413780
   0.26199617  0.98561131  0.52623235
   0.51531471  0.50329214  0.00197953
   0.99986040  0.99124674  0.00574778
   0.99299296  0.50688423  0.51386709
   0.48925120  0.00065503  0.47780799
Direct configuration=     5
   0.63727980  0.54500545  0.22882898
   0.57356573  0.69736670  0.83923446
   0.60014480  0.29166280  0.89764257
   0.27069625  0.49751546  0.04674750
   0.94612597  0.14949619  0.18027675
   0.92908866  0.09912823  0.78994384
   0.24211375  0.92564835  0.00095249
   0.86334665  0.78756593  0.06354347
   0.11614194  0.53809781  0.72810995
   0.04334679  0.69322125  0.35012937
   0.06231230  0.29760781  0.40408532
   0.74545188  0.48897952  0.55300714
   0.60501521  0.03376060  0.69617601
   0.54655531  0.18518583  0.32054915
   0.56636502  0.79356311  0.37436519
   0.23890720  0.98310249  0.53273059
   0.51463474  0.50288072  0.00162654
   0.00021732  0.99164978  0.00578654
   0.99325179  0.50688591  0.51424252
   0.48954900  0.00075615  0.47710157
Direct configuration=     6
   0.65827563  0.55370670  0.27343772
   0.58733162  0.73329300  0.80699930
   0.61743030  0.25419755  0.87809586
   0.22637435  0.49844970  0.05447904
   0.93294584  0.17566232  0.20847580
   0.91452473  0.12215008  0.75296748
   0.28571455  0.91183936 -0.00042577
   0.83887407  0.75272555  0.08058407
   0.13914885  0.54142933  0.76660443
   0.05396787  0.72534611  0.31837958
   0.07213028  0.26207015  0.38249056
   0.70081526  0.48361954  0.55859235
   0.62388499  0.03830871  0.73546309
   0.56117829  0.21642759  0.29092268
   0.58066419  0.75940812  0.35481999
   0.19272927  0.97808485  0.54572706
   0.51327479  0.50205787  0.00092054
   0.00093118  0.99245587  0.00586406
   0.99376946  0.50688927  0.51499339
   0.49014458  0.00095839  0.47568872
Direct configuration=     7
   0.70026730  0.57110921  0.36265519
   0.61486340  0.80514562  0.74252896
   0.65200129  0.17926706  0.83900244
   0.13773057  0.50031818  0.06994212
   0.90658557  0.22799459  0.26487390
   0.88539687  0.16819378  0.67901474
   0.37291614  0.88422138 -0.00318229
   0.78992893  0.68304477  0.11466528
   0.18516268  0.54809239  0.84359338
   0.07521004  0.78959584  0.25488001
   0.09176623  0.19099482  0.33930104
   0.61154202  0.47289958  0.56976275
   0.66162455  0.04740494  0.81403726
   0.59042424  0.27891113  0.23166974
   0.60926253  0.69109813  0.31572958
   0.10037340  0.96804956  0.57172001
   0.51055489  0.50041219 -0.00049145
   0.00235889  0.99406804  0.00601910
   0.99480480  0.50689600  0.51649513
   0.49133575  0.00136287  0.47286303
Direct configuration=     8
   0.66535907  0.55664228  0.28848754
   0.59197587  0.74541360  0.79612400
   0.62326197  0.24155776  0.87150131
   0.21142131  0.49876489  0.05708746
   0.92849921  0.18449009  0.21798942
   0.90961124  0.12991705  0.74049262
   0.30042431  0.90718057 -0.00089076
   0.83061767  0.74097131  0.08633312
   0.14691078  0.54255330  0.77959145
   0.05755115  0.73618420  0.30766804
   0.07544260  0.25008067  0.37520506
   0.68575604  0.48181122  0.56047665
   0.63025116  0.03984313  0.74871752
   0.56611169  0.22696775  0.28092749
   0.58548836  0.74788512  0.34822595
   0.17715004  0.97639203  0.55011173
   0.51281598  0.50178027  0.00068236
   0.00117201  0.99272782  0.00589021
   0.99394411  0.50689041  0.51524671
   0.49034552  0.00102662  0.47521207
