   32   32    1    1
  0.8817899E+01  0.4932875E-09  0.4932875E-09  0.1339614E-08  0.5000000E-15
  1.000000000000000E-004
  CAR 
 graphite                                
    128     76     84
 
  0.0000000E+00  0.0000000E+00  0.0000000E+00  0.6944444E-02
    1      -14.941396
    2      -14.794694
    3      -14.794118
    4      -14.637136
    5       -9.619068
    6       -9.608795
    7       -9.605839
    8       -9.558407
    9       -9.556830
   10       -9.546592
   11       -9.545174
   12       -9.545162
   13       -9.541146
   14       -9.506739
   15       -9.493845
   16       -9.491322
   17       -8.540307
   18       -8.539006
   19       -8.537935
   20       -8.508658
   21       -8.507919
   22       -8.505719
   23       -8.505258
   24       -8.505248
   25       -8.502720
   26       -8.454501
   27       -8.453604
   28       -8.451144
   29       -3.817294
   30       -2.924119
   31       -2.922305
   32       -1.834779
   33       -1.714271
   34       -1.711982
   35       -1.696341
   36       -1.686662
   37       -1.685825
   38       -1.685819
   39       -1.681790
   40       -1.669063
   41       -1.667102
   42       -1.657879
   43       -1.655077
   44       -1.639767
   45        1.682642
   46        1.690061
   47        1.690910
   48        1.696197
   49        1.702139
   50        1.707087
   51        1.708218
   52        1.715145
   53        1.923652
   54        1.926573
   55        1.928585
   56        2.329752
   57        2.332349
   58        2.339581
   59        2.339921
   60        2.340010
   61        2.343980
   62        2.605793
   63        2.623829
   64        2.625543
   65        6.204174
   66        6.206337
   67        6.212486
   68        6.342418
   69        6.345421
   70        6.347558
   71        6.349838
   72        6.350221
   73        6.353761
   74        6.877707
   75        6.884228
   76        6.887541
   77        9.010999
   78       11.660174
   79       11.663299
   80       11.886071
   81       11.889998
   82       11.921703
   83       12.081115
   84       12.085557
 
  0.1666667E+00  0.0000000E+00  0.0000000E+00  0.1388889E-01
    1      -14.775728
    2      -14.630418
    3      -14.629850
    4      -14.474500
    5      -10.920457
    6      -10.809022
    7      -10.808518
    8      -10.691615
    9      -10.048192
   10      -10.040923
   11       -9.950208
   12       -9.949591
   13       -9.942556
   14       -9.941586
   15       -9.848333
   16       -9.840348
   17       -7.923816
   18       -7.917878
   19       -7.846412
   20       -7.844270
   21       -7.839377
   22       -7.838504
   23       -7.761004
   24       -7.754657
   25       -7.080147
   26       -7.000018
   27       -6.998639
   28       -6.914964
   29       -3.616201
   30       -2.728509
   31       -2.726701
   32       -2.206042
   33       -2.189345
   34       -2.171468
   35       -2.171248
   36       -2.155399
   37       -2.153545
   38       -2.135944
   39       -2.119184
   40       -1.646883
   41       -1.549779
   42       -1.523482
   43       -1.520521
   44       -1.493918
   45        0.835020
   46        1.031045
   47        1.047089
   48        1.051212
   49        1.066795
   50        1.343655
   51        1.356261
   52        1.360959
   53        1.374637
   54        1.492360
   55        1.494610
   56        1.696441
   57        1.700948
   58        2.205036
   59        2.222314
   60        2.224808
   61        2.230935
   62        2.231890
   63        2.699515
   64        2.712972
   65        6.380417
   66        6.383111
   67        6.624495
   68        6.628041
   69        6.630136
   70        6.633987
   71        7.054869
   72        7.156748
   73        7.163509
   74        7.448298
   75        7.452246
   76        8.051971
   77        9.210763
   78       11.831437
   79       11.834547
   80       11.979165
   81       12.167451
   82       12.168953
   83       12.357597
   84       12.619296
 
  0.3333333E+00  0.0000000E+00  0.0000000E+00  0.1388889E-01
    1      -14.280515
    2      -14.139401
    3      -14.138859
    4      -13.988342
    5      -12.331462
    6      -12.206872
    7      -12.206396
    8      -12.074689
    9      -10.471209
   10      -10.467534
   11      -10.364253
   12      -10.363712
   13      -10.360519
   14      -10.359273
   15      -10.251448
   16      -10.247602
   17       -6.750047
   18       -6.741018
   19       -6.677811
   20       -6.675623
   21       -6.668138
   22       -6.666966
   23       -6.600420
   24       -6.591528
   25       -4.963698
   26       -4.897605
   27       -4.895966
   28       -4.827803
   29       -3.363777
   30       -3.349730
   31       -3.318598
   32       -3.318253
   33       -3.305152
   34       -3.303222
   35       -3.271369
   36       -3.257173
   37       -3.017181
   38       -2.146871
   39       -2.145067
   40       -1.089837
   41       -1.075727
   42       -1.050588
   43       -1.047408
   44       -1.022042
   45       -0.711843
   46       -0.623057
   47       -0.591772
   48       -0.588658
   49       -0.557280
   50        0.069162
   51        0.070991
   52        0.544315
   53        0.563081
   54        0.567394
   55        0.586518
   56        0.991015
   57        1.390515
   58        1.393864
   59        2.033703
   60        2.036267
   61        2.039404
   62        2.040369
   63        2.735327
   64        2.742110
   65        6.875226
   66        6.878187
   67        7.201435
   68        7.203752
   69        7.206070
   70        7.209588
   71        7.627016
   72        7.630400
   73        9.197051
   74        9.588847
   75        9.592365
   76        9.811619
   77       10.103649
   78       12.068297
   79       12.314510
   80       12.316133
   81       12.319512
   82       12.398882
   83       12.400728
   84       12.705426
 
  0.5000000E+00  0.0000000E+00  0.0000000E+00  0.6944444E-02
    1      -13.463101
    2      -13.460311
    3      -13.329887
    4      -13.327375
    5      -13.327362
    6      -13.324239
    7      -13.185762
    8      -13.182905
    9      -10.619898
   10      -10.618179
   11      -10.511189
   12      -10.509860
   13      -10.509823
   14      -10.507666
   15      -10.395861
   16      -10.394092
   17       -5.836717
   18       -5.834944
   19       -5.796948
   20       -5.796945
   21       -5.796148
   22       -5.792086
   23       -5.758621
   24       -5.756172
   25       -4.247551
   26       -4.245893
   27       -4.223320
   28       -4.220706
   29       -4.219733
   30       -4.219730
   31       -4.189282
   32       -4.188113
   33       -2.742875
   34       -2.739464
   35       -2.695309
   36       -2.690058
   37       -2.690051
   38       -2.689325
   39       -2.641240
   40       -2.638533
   41       -2.036951
   42       -2.034669
   43       -1.199294
   44       -1.197058
   45       -1.196868
   46       -1.193488
   47       -0.342084
   48       -0.338514
   49       -0.318238
   50       -0.317111
   51       -0.317090
   52       -0.309364
   53       -0.293150
   54       -0.286029
   55       -0.189309
   56       -0.186697
   57        1.270581
   58        1.272648
   59        1.949603
   60        1.952865
   61        1.953164
   62        1.954570
   63        2.723673
   64        2.726023
   65        7.202151
   66        7.204694
   67        7.508247
   68        7.508420
   69        7.508465
   70        7.513418
   71        7.815980
   72        7.818534
   73       10.805153
   74       10.806138
   75       11.630612
   76       11.633953
   77       11.865654
   78       11.873043
   79       11.873934
   80       11.877873
   81       12.271270
   82       12.274907
   83       12.629668
   84       12.632287
 
 -0.1355253E-19  0.1666667E+00  0.0000000E+00  0.1388889E-01
    1      -14.775724
    2      -14.630416
    3      -14.629844
    4      -14.474496
    5      -10.920472
    6      -10.809028
    7      -10.808551
    8      -10.691642
    9      -10.048281
   10      -10.040683
   11       -9.950425
   12       -9.949604
   13       -9.942547
   14       -9.940960
   15       -9.848379
   16       -9.840045
   17       -7.924166
   18       -7.918762
   19       -7.846426
   20       -7.845620
   21       -7.839479
   22       -7.839224
   23       -7.761281
   24       -7.755348
   25       -7.079227
   26       -6.998684
   27       -6.998183
   28       -6.914088
   29       -3.616211
   30       -2.728519
   31       -2.726715
   32       -2.204879
   33       -2.189256
   34       -2.171449
   35       -2.168810
   36       -2.155431
   37       -2.153545
   38       -2.134659
   39       -2.119208
   40       -1.646898
   41       -1.550883
   42       -1.523488
   43       -1.523021
   44       -1.495377
   45        0.834387
   46        1.034386
   47        1.051214
   48        1.051619
   49        1.068594
   50        1.341988
   51        1.356256
   52        1.356539
   53        1.370753
   54        1.492140
   55        1.493316
   56        1.696610
   57        1.701907
   58        2.204020
   59        2.222769
   60        2.224797
   61        2.230974
   62        2.233933
   63        2.699609
   64        2.714100
   65        6.378639
   66        6.382909
   67        6.623839
   68        6.626468
   69        6.629854
   70        6.632324
   71        7.056544
   72        7.156296
   73        7.161796
   74        7.450425
   75        7.453185
   76        8.053475
   77        9.210753
   78       11.831370
   79       11.834481
   80       11.978535
   81       12.167304
   82       12.167798
   83       12.356920
   84       12.634635
 
  0.1666667E+00  0.1666667E+00  0.0000000E+00  0.1388889E-01
    1      -14.445046
    2      -14.302542
    3      -14.301990
    4      -14.149870
    5      -11.542814
    6      -11.539888
    7      -11.426215
    8      -11.423629
    9      -11.423612
   10      -11.420296
   11      -11.300742
   12      -11.297745
   13       -9.193438
   14       -9.135173
   15       -9.134052
   16       -9.085940
   17       -8.134972
   18       -8.108361
   19       -8.104721
   20       -8.060185
   21       -5.970343
   22       -5.966864
   23       -5.899347
   24       -5.895575
   25       -5.895556
   26       -5.892510
   27       -5.822106
   28       -5.818703
   29       -3.536205
   30       -3.489380
   31       -3.487618
   32       -3.439342
   33       -3.215822
   34       -2.339537
   35       -2.337737
   36       -1.877686
   37       -1.875047
   38       -1.845098
   39       -1.843687
   40       -1.843681
   41       -1.839400
   42       -1.810431
   43       -1.807242
   44       -1.273965
   45       -0.003139
   46        0.012674
   47        0.016794
   48        0.031018
   49        0.189249
   50        0.191197
   51        0.667677
   52        0.677433
   53        0.682047
   54        0.694451
   55        0.917340
   56        0.919299
   57        0.919434
   58        0.922711
   59        1.756767
   60        1.759199
   61        2.522461
   62        2.927341
   63        2.929609
   64        3.190305
   65        6.130870
   66        6.132585
   67        6.138011
   68        6.431027
   69        8.001772
   70        8.004258
   71        8.400120
   72        8.404146
   73        8.404696
   74        8.406675
   75        8.919943
   76        8.922721
   77        9.612834
   78       12.177857
   79       12.181071
   80       12.772570
   81       12.776903
   82       12.980530
   83       12.981067
   84       12.984027
 
  0.3333333E+00  0.1666667E+00  0.0000000E+00  0.1388889E-01
    1      -13.787792
    2      -13.650841
    3      -13.650330
    4      -13.504581
    5      -12.814547
    6      -12.685846
    7      -12.685337
    8      -12.548990
    9      -11.858416
   10      -11.738024
   11      -11.737426
   12      -11.610398
   13       -9.179190
   14       -9.089193
   15       -9.088881
   16       -8.996459
   17       -7.280851
   18       -7.221640
   19       -7.218643
   20       -7.156876
   21       -4.970031
   22       -4.924655
   23       -4.922759
   24       -4.872785
   25       -4.807872
   26       -4.756097
   27       -4.754254
   28       -4.702027
   29       -3.826596
   30       -3.771964
   31       -3.770362
   32       -3.714443
   33       -2.777526
   34       -2.742692
   35       -2.741400
   36       -2.704182
   37       -2.424535
   38       -1.734195
   39       -1.702804
   40       -1.699246
   41       -1.664291
   42       -1.570695
   43       -1.569214
   44       -1.268599
   45       -1.237370
   46       -1.208906
   47       -1.206039
   48       -1.176827
   49       -0.542615
   50       -0.459709
   51       -0.458008
   52       -0.339376
   53       -0.319319
   54       -0.314613
   55       -0.293251
   56       -0.147826
   57        0.506266
   58        0.611784
   59        0.613187
   60        1.504291
   61        2.811129
   62        3.335493
   63        3.337485
   64        3.822048
   65        5.768890
   66        5.988988
   67        5.992635
   68        6.319199
   69        8.812256
   70        9.119176
   71        9.121183
   72        9.446876
   73       10.297539
   74       10.416484
   75       10.611756
   76       10.614335
   77       10.998622
   78       11.604500
   79       12.562609
   80       12.661400
   81       12.672802
   82       12.796829
   83       12.928846
   84       12.939328
 
  0.5000000E+00  0.1666667E+00  0.0000000E+00  0.1388889E-01
    1      -13.788988
    2      -13.652043
    3      -13.651513
    4      -13.505769
    5      -12.812859
    6      -12.684152
    7      -12.683663
    8      -12.547313
    9      -11.859635
   10      -11.739247
   11      -11.738640
   12      -11.611625
   13       -9.176363
   14       -9.086113
   15       -9.085744
   16       -8.992991
   17       -7.276307
   18       -7.216116
   19       -7.214862
   20       -7.152232
   21       -4.978141
   22       -4.932375
   23       -4.931935
   24       -4.881512
   25       -4.817238
   26       -4.765783
   27       -4.762549
   28       -4.710578
   29       -3.830259
   30       -3.776037
   31       -3.773724
   32       -3.718177
   33       -2.766512
   34       -2.732111
   35       -2.729215
   36       -2.692525
   37       -2.425826
   38       -1.732115
   39       -1.700006
   40       -1.698342
   41       -1.662498
   42       -1.571893
   43       -1.570480
   44       -1.266867
   45       -1.233863
   46       -1.205781
   47       -1.202078
   48       -1.173209
   49       -0.543886
   50       -0.458051
   51       -0.456274
   52       -0.341277
   53       -0.320499
   54       -0.317871
   55       -0.296054
   56       -0.149085
   57        0.507970
   58        0.610324
   59        0.611771
   60        1.502527
   61        2.812099
   62        3.339554
   63        3.340412
   64        3.830886
   65        5.765141
   66        5.989601
   67        5.991548
   68        6.318704
   69        8.808428
   70        9.115790
   71        9.118489
   72        9.445839
   73       10.298039
   74       10.414759
   75       10.610419
   76       10.613404
   77       10.996021
   78       11.606883
   79       12.559918
   80       12.662441
   81       12.673783
   82       12.795489
   83       12.925889
   84       12.936363
 
 -0.3333333E+00  0.1666667E+00  0.0000000E+00  0.1388889E-01
    1      -14.445761
    2      -14.303261
    3      -14.302696
    4      -14.150579
    5      -11.544962
    6      -11.539166
    7      -11.427413
    8      -11.426830
    9      -11.421539
   10      -11.421079
   11      -11.303007
   12      -11.297175
   13       -9.182989
   14       -9.123198
   15       -9.122794
   16       -9.073076
   17       -8.135729
   18       -8.106855
   19       -8.106445
   20       -8.059682
   21       -5.978170
   22       -5.972616
   23       -5.906492
   24       -5.904101
   25       -5.900669
   26       -5.899078
   27       -5.829913
   28       -5.824654
   29       -3.549646
   30       -3.502213
   31       -3.501761
   32       -3.452866
   33       -3.216614
   34       -2.340319
   35       -2.338534
   36       -1.873116
   37       -1.860240
   38       -1.841322
   39       -1.838222
   40       -1.828075
   41       -1.825747
   42       -1.805716
   43       -1.792948
   44       -1.274750
   45       -0.007902
   46        0.009112
   47        0.009412
   48        0.025442
   49        0.186382
   50        0.192456
   51        0.673719
   52        0.685002
   53        0.685282
   54        0.698008
   55        0.914431
   56        0.915875
   57        0.920911
   58        0.922931
   59        1.752256
   60        1.759991
   61        2.524395
   62        2.936368
   63        2.936773
   64        3.207631
   65        6.127824
   66        6.132546
   67        6.134857
   68        6.433969
   69        7.998264
   70        8.001628
   71        8.396233
   72        8.399847
   73        8.400095
   74        8.403418
   75        8.917336
   76        8.917797
   77        9.611755
   78       12.176677
   79       12.179875
   80       12.773040
   81       12.801640
   82       12.980118
   83       12.987000
   84       13.012760
 
 -0.1666667E+00  0.1666667E+00  0.0000000E+00  0.1388889E-01
    1      -14.775963
    2      -14.630655
    3      -14.630078
    4      -14.474732
    5      -10.926762
    6      -10.815399
    7      -10.814921
    8      -10.698096
    9      -10.039642
   10      -10.037595
   11       -9.941723
   12       -9.940201
   13       -9.940177
   14       -9.937548
   15       -9.839160
   16       -9.837053
   17       -7.922205
   18       -7.920370
   19       -7.844659
   20       -7.842193
   21       -7.842174
   22       -7.841060
   23       -7.759080
   24       -7.757325
   25       -7.086463
   26       -7.006740
   27       -7.004515
   28       -6.921211
   29       -3.616478
   30       -2.728783
   31       -2.726983
   32       -2.205582
   33       -2.203485
   34       -2.171277
   35       -2.170604
   36       -2.170596
   37       -2.166645
   38       -2.135687
   39       -2.133070
   40       -1.647165
   41       -1.533838
   42       -1.507208
   43       -1.505046
   44       -1.478191
   45        0.828982
   46        1.023240
   47        1.038553
   48        1.043423
   49        1.059665
   50        1.351092
   51        1.364805
   52        1.369048
   53        1.381708
   54        1.485242
   55        1.486748
   56        1.701774
   57        1.703856
   58        2.194808
   59        2.231433
   60        2.232060
   61        2.232212
   62        2.236091
   63        2.712927
   64        2.715014
   65        6.378483
   66        6.380970
   67        6.624285
   68        6.629722
   69        6.630034
   70        6.631805
   71        7.053981
   72        7.158506
   73        7.161493
   74        7.444160
   75        7.448455
   76        8.047867
   77        9.210378
   78       11.830918
   79       11.834031
   80       12.011422
   81       12.199936
   82       12.200973
   83       12.389621
   84       12.619578
 
 -0.2710505E-19  0.3333333E+00  0.0000000E+00  0.1388889E-01
    1      -14.280499
    2      -14.139395
    3      -14.138831
    4      -13.988324
    5      -12.331427
    6      -12.206859
    7      -12.206337
    8      -12.074652
    9      -10.471535
   10      -10.467264
   11      -10.365035
   12      -10.363747
   13      -10.360512
   14      -10.358456
   15      -10.251715
   16      -10.247274
   17       -6.750563
   18       -6.741917
   19       -6.677826
   20       -6.677145
   21       -6.668195
   22       -6.667925
   23       -6.600856
   24       -6.592248
   25       -4.962657
   26       -4.895998
   27       -4.895542
   28       -4.826809
   29       -3.362594
   30       -3.349415
   31       -3.318272
   32       -3.316167
   33       -3.304552
   34       -3.303219
   35       -3.270063
   36       -3.256917
   37       -3.017225
   38       -2.146912
   39       -2.145130
   40       -1.089899
   41       -1.076947
   42       -1.050595
   43       -1.050198
   44       -1.023698
   45       -0.712106
   46       -0.620995
   47       -0.588659
   48       -0.588099
   49       -0.555616
   50        0.068981
   51        0.070510
   52        0.542728
   53        0.563075
   54        0.563467
   55        0.583802
   56        0.990591
   57        1.390582
   58        1.394732
   59        2.034009
   60        2.036213
   61        2.039420
   62        2.042237
   63        2.735560
   64        2.743132
   65        6.874041
   66        6.877121
   67        7.200019
   68        7.202073
   69        7.206094
   70        7.208378
   71        7.625458
   72        7.629925
   73        9.198233
   74        9.590235
   75        9.593010
   76        9.811598
   77       10.104637
   78       12.068002
   79       12.313912
   80       12.315790
   81       12.319177
   82       12.398856
   83       12.399157
   84       12.704841
 
  0.1666667E+00  0.3333333E+00  0.0000000E+00  0.1388889E-01
    1      -13.787778
    2      -13.650835
    3      -13.650306
    4      -13.504564
    5      -12.814512
    6      -12.685833
    7      -12.685274
    8      -12.548950
    9      -11.858461
   10      -11.738035
   11      -11.737507
   12      -11.610445
   13       -9.179125
   14       -9.089105
   15       -9.088829
   16       -8.996384
   17       -7.281219
   18       -7.221642
   19       -7.219501
   20       -7.157378
   21       -4.969588
   22       -4.923893
   23       -4.922756
   24       -4.872452
   25       -4.809240
   26       -4.757056
   27       -4.756089
   28       -4.703459
   29       -3.825229
   30       -3.770372
   31       -3.769250
   32       -3.713098
   33       -2.775899
   34       -2.741401
   35       -2.739431
   36       -2.702527
   37       -2.424572
   38       -1.732977
   39       -1.700968
   40       -1.699233
   41       -1.663520
   42       -1.570692
   43       -1.569268
   44       -1.268819
   45       -1.238868
   46       -1.209276
   47       -1.208900
   48       -1.178605
   49       -0.542645
   50       -0.459910
   51       -0.458346
   52       -0.340118
   53       -0.319321
   54       -0.316757
   55       -0.294970
   56       -0.147510
   57        0.505949
   58        0.612077
   59        0.613639
   60        1.504755
   61        2.811599
   62        3.336413
   63        3.337519
   64        3.822446
   65        5.768400
   66        5.988946
   67        5.991269
   68        6.318401
   69        8.810944
   70        9.118380
   71        9.119653
   72        9.445850
   73       10.298698
   74       10.416485
   75       10.612665
   76       10.615398
   77       10.999563
   78       11.604436
   79       12.562966
   80       12.661133
   81       12.672606
   82       12.796859
   83       12.929269
   84       12.939612
 
  0.3333333E+00  0.3333333E+00  0.0000000E+00  0.1388889E-01
    1      -12.978978
    2      -12.976312
    3      -12.973797
    4      -12.850290
    5      -12.847141
    6      -12.847124
    7      -12.845472
    8      -12.844243
    9      -12.841620
   10      -12.710421
   11      -12.707782
   12      -12.705196
   13       -7.964499
   14       -7.874630
   15       -7.873010
   16       -7.866223
   17       -7.864070
   18       -7.859756
   19       -7.857476
   20       -7.770492
   21       -5.822989
   22       -5.822585
   23       -5.818169
   24       -5.817272
   25       -3.063864
   26       -3.060539
   27       -3.058830
   28       -3.037195
   29       -3.032626
   30       -3.032616
   31       -3.031936
   32       -3.031713
   33       -3.026768
   34       -3.007109
   35       -3.004906
   36       -3.001156
   37       -1.702302
   38       -1.698253
   39       -1.695764
   40       -1.684162
   41       -1.680956
   42       -1.679123
   43       -1.678442
   44       -1.678425
   45       -1.673279
   46       -1.658960
   47       -1.657438
   48       -1.652696
   49       -1.458586
   50       -1.456350
   51       -1.453807
   52       -0.642135
   53       -0.638795
   54       -0.638593
   55       -0.637252
   56       -0.636061
   57       -0.633004
   58        0.338859
   59        0.341223
   60        0.343975
   61        4.051514
   62        4.666862
   63        4.675095
   64        4.684423
   65        4.684827
   66        4.705676
   67        4.706904
   68        5.414118
   69       10.821504
   70       10.824366
   71       10.828473
   72       11.057101
   73       11.061489
   74       11.061744
   75       11.062799
   76       11.063419
   77       11.065626
   78       11.306865
   79       11.311913
   80       11.314587
   81       11.418273
   82       11.420227
   83       11.425358
   84       13.690901
 
  0.5000000E+00  0.3333333E+00  0.0000000E+00  0.1388889E-01
    1      -13.789688
    2      -13.652755
    3      -13.652196
    4      -13.506464
    5      -12.816400
    6      -12.687749
    7      -12.687127
    8      -12.550835
    9      -11.854629
   10      -11.734170
   11      -11.733709
   12      -11.606623
   13       -9.168996
   14       -9.078903
   15       -9.078331
   16       -8.985779
   17       -7.284570
   18       -7.224593
   19       -7.224083
   20       -7.161655
   21       -4.976351
   22       -4.931077
   23       -4.929886
   24       -4.879944
   25       -4.815682
   26       -4.764328
   27       -4.761940
   28       -4.710152
   29       -3.837015
   30       -3.782934
   31       -3.779858
   32       -3.724411
   33       -2.771905
   34       -2.738228
   35       -2.734562
   36       -2.698454
   37       -2.426656
   38       -1.741111
   39       -1.708900
   40       -1.706521
   41       -1.670807
   42       -1.572867
   43       -1.571518
   44       -1.270862
   45       -1.223700
   46       -1.195175
   47       -1.192223
   48       -1.163074
   49       -0.544780
   50       -0.462045
   51       -0.460497
   52       -0.331416
   53       -0.310169
   54       -0.308240
   55       -0.286071
   56       -0.143774
   57        0.503592
   58        0.615624
   59        0.617433
   60        1.508322
   61        2.817569
   62        3.344182
   63        3.345570
   64        3.833445
   65        5.769333
   66        5.985663
   67        5.987195
   68        6.307593
   69        8.812884
   70        9.115832
   71        9.118325
   72        9.439640
   73       10.291909
   74       10.413803
   75       10.606496
   76       10.609902
   77       10.996513
   78       11.602262
   79       12.556021
   80       12.656628
   81       12.668064
   82       12.802210
   83       12.931110
   84       12.941531
 
 -0.3333333E+00  0.3333333E+00  0.0000000E+00  0.1388889E-01
    1      -14.281453
    2      -14.140351
    3      -14.139770
    4      -13.989269
    5      -12.335256
    6      -12.210729
    7      -12.210130
    8      -12.078486
    9      -10.463941
   10      -10.462154
   11      -10.357232
   12      -10.355789
   13      -10.355758
   14      -10.353583
   15      -10.244051
   16      -10.242217
   17       -6.749239
   18       -6.747304
   19       -6.677358
   20       -6.674613
   21       -6.674594
   22       -6.673587
   23       -6.599976
   24       -6.598147
   25       -4.972619
   26       -4.906795
   27       -4.904369
   28       -4.836453
   29       -3.361120
   30       -3.359363
   31       -3.315926
   32       -3.315862
   33       -3.315801
   34       -3.311965
   35       -3.268965
   36       -3.266785
   37       -3.018286
   38       -2.147965
   39       -2.146200
   40       -1.090977
   41       -1.060903
   42       -1.035448
   43       -1.032978
   44       -1.007426
   45       -0.716101
   46       -0.632936
   47       -0.601986
   48       -0.597813
   49       -0.566596
   50        0.064756
   51        0.066245
   52        0.554767
   53        0.574024
   54        0.577643
   55        0.596622
   56        0.985845
   57        1.396912
   58        1.398895
   59        2.041801
   60        2.042685
   61        2.042871
   62        2.046663
   63        2.744228
   64        2.746536
   65        6.875626
   66        6.878335
   67        7.198743
   68        7.203670
   69        7.203854
   70        7.205123
   71        7.621105
   72        7.623812
   73        9.191157
   74        9.583204
   75        9.586585
   76        9.810234
   77       10.100120
   78       12.074016
   79       12.315025
   80       12.318530
   81       12.340034
   82       12.428376
   83       12.429598
   84       12.729797
 
 -0.1666667E+00  0.3333333E+00  0.0000000E+00  0.1388889E-01
    1      -14.445749
    2      -14.303256
    3      -14.302676
    4      -14.150566
    5      -11.545372
    6      -11.538845
    7      -11.428197
    8      -11.427318
    9      -11.421472
   10      -11.419871
   11      -11.303343
   12      -11.296751
   13       -9.182255
   14       -9.123182
   15       -9.121307
   16       -9.072332
   17       -8.137474
   18       -8.109586
   19       -8.106849
   20       -8.061184
   21       -5.978715
   22       -5.971453
   23       -5.906501
   24       -5.905855
   25       -5.899095
   26       -5.897385
   27       -5.830380
   28       -5.823280
   29       -3.548657
   30       -3.502199
   31       -3.499655
   32       -3.451725
   33       -3.216646
   34       -2.340350
   35       -2.338575
   36       -1.874366
   37       -1.860153
   38       -1.841331
   39       -1.840916
   40       -1.827399
   41       -1.825746
   42       -1.806986
   43       -1.792657
   44       -1.274796
   45       -0.006244
   46        0.009116
   47        0.013624
   48        0.028742
   49        0.186226