 running on    6 total cores
 distrk:  each k-point on    6 cores,    1 groups
 distr:  one band on    1 cores,    6 groups
 using from now: INCAR     
 vasp.5.3.5 31Mar14 (build Nov 02 2014 15:17:37) complex                        
  
 POSCAR found :  1 types and      32 ions
 scaLAPACK will be used

 ----------------------------------------------------------------------------- 
|                                                                             |
|           W    W    AA    RRRRR   N    N  II  N    N   GGGG   !!!           |
|           W    W   A  A   R    R  NN   N  II  NN   N  G    G  !!!           |
|           W    W  A    A  R    R  N N  N  II  N N  N  G       !!!           |
|           W WW W  AAAAAA  RRRRR   N  N N  II  N  N N  G  GGG   !            |
|           WW  WW  A    A  R   R   N   NN  II  N   NN  G    G                |
|           W    W  A    A  R    R  N    N  II  N    N   GGGG   !!!           |
|                                                                             |
|      For optimal performance we recommend to set                            |
|        NCORE= 4 - approx SQRT( number of cores)                             |
|      NCORE specifies how many cores store one orbital (NPAR=cpu/NCORE).     |
|      This setting can  greatly improve the performance of VASP for DFT.     |
|      The default, NPAR=number of cores might be grossly inefficient         |
|      on modern multi-core architectures or massively parallel machines.     |
|      Do your own testing !!!!                                               |
|      Unfortunately you need to use the default for GW and RPA calculations. |
|      (for HF NCORE is supported but not extensively tested yet)             |
|                                                                             |
 ----------------------------------------------------------------------------- 


 ----------------------------------------------------------------------------- 
|                                                                             |
|  ADVICE TO THIS USER RUNNING 'VASP/VAMP'   (HEAR YOUR MASTER'S VOICE ...):  |
|                                                                             |
|      You have a (more or less) 'large supercell' and for larger cells       |
|      it might be more efficient to use real space projection operators      |
|      So try LREAL= Auto  in the INCAR   file.                               |
|      Mind: If you want to do a very accurate calculations keep the          |
|      reciprocal projection scheme          (i.e. LREAL=.FALSE.)             |
|                                                                             |
 ----------------------------------------------------------------------------- 

 LDA part: xc-table for Pade appr. of Perdew
 POSCAR, INCAR and KPOINTS ok, starting setup
 FFT: planning ...
 WAVECAR not read
 WARNING: random wavefunctions but no delay for mixing, default for NELMDL
 entering main loop
       N       E                     dE             d eps       ncg     rms          rms(c)
DAV:   1     0.705929955346E+03    0.70593E+03   -0.84121E+04 12768   0.200E+03
DAV:   2    -0.254656581642E+03   -0.96059E+03   -0.92554E+03 15900   0.341E+02
DAV:   3    -0.312590480438E+03   -0.57934E+02   -0.57341E+02 15552   0.824E+01
DAV:   4    -0.313718708633E+03   -0.11282E+01   -0.11259E+01 15924   0.124E+01
DAV:   5    -0.313753302439E+03   -0.34594E-01   -0.34582E-01 16344   0.203E+00    0.221E+01
DAV:   6    -0.299334719568E+03    0.14419E+02   -0.14871E+01 14592   0.107E+01    0.116E+01
DAV:   7    -0.294767641024E+03    0.45671E+01   -0.15671E+01 14544   0.110E+01    0.195E+00
DAV:   8    -0.294830443792E+03   -0.62803E-01   -0.61122E-01 14964   0.209E+00    0.767E-01
DAV:   9    -0.294830068744E+03    0.37505E-03   -0.69361E-02 14904   0.775E-01    0.380E-01
DAV:  10    -0.294827894355E+03    0.21744E-02   -0.31446E-02 15276   0.374E-01    0.304E-01
DAV:  11    -0.294827533314E+03    0.36104E-03   -0.44962E-02 19572   0.403E-01    0.227E-01
DAV:  12    -0.294827511852E+03    0.21462E-04   -0.26290E-02 15660   0.322E-01    0.205E-01
DAV:  13    -0.294827277416E+03    0.23444E-03   -0.10980E-02 15144   0.200E-01    0.101E-01
DAV:  14    -0.294827648982E+03   -0.37157E-03   -0.21571E-03 15420   0.103E-01    0.152E-01
DAV:  15    -0.294827207819E+03    0.44116E-03   -0.20120E-03 15708   0.104E-01    0.605E-02
DAV:  16    -0.294827273394E+03   -0.65575E-04   -0.96733E-04 14928   0.518E-02    0.718E-02
DAV:  17    -0.294827244289E+03    0.29105E-04   -0.21497E-03 16824   0.631E-02    0.575E-02
DAV:  18    -0.294827179683E+03    0.64606E-04   -0.30262E-04 16860   0.311E-02    0.136E-02
DAV:  19    -0.294827179165E+03    0.51776E-06   -0.14277E-05 14544   0.911E-03    0.160E-02
DAV:  20    -0.294827196740E+03   -0.17575E-04   -0.27880E-04 20136   0.132E-02    0.433E-02
DAV:  21    -0.294827179136E+03    0.17604E-04   -0.48055E-05 17640   0.102E-02    0.224E-02
DAV:  22    -0.294827179645E+03   -0.50910E-06   -0.57732E-05 15312   0.542E-03    0.238E-02
DAV:  23    -0.294827177794E+03    0.18511E-05   -0.24968E-05 15444   0.406E-03    0.895E-03
DAV:  24    -0.294827177943E+03   -0.14908E-06   -0.40546E-07 14964   0.143E-03    0.101E-02
DAV:  25    -0.294827178449E+03   -0.50614E-06   -0.33975E-06 13200   0.167E-03    0.188E-02
DAV:  26    -0.294827177735E+03    0.71431E-06   -0.25148E-06 15288   0.115E-03    0.838E-03
DAV:  27    -0.294827177789E+03   -0.54320E-07   -0.95528E-08 12492   0.651E-04    0.914E-03
DAV:  28    -0.294827178201E+03   -0.41158E-06   -0.11971E-06  9480   0.763E-04    0.158E-02
DAV:  29    -0.294827177961E+03    0.24003E-06   -0.21567E-07  9060   0.366E-04    0.129E-02
DAV:  30    -0.294827177621E+03    0.34032E-06   -0.54733E-06 13212   0.130E-03    0.331E-03
DAV:  31    -0.294827177648E+03   -0.27700E-07   -0.50289E-08  9780   0.516E-04    0.319E-03
DAV:  32    -0.294827177607E+03    0.41072E-07   -0.17955E-07  8868   0.288E-04    0.451E-04
DAV:  33    -0.294827177632E+03   -0.25272E-07   -0.30161E-08  8844   0.193E-04    0.770E-04
DAV:  34    -0.294827177610E+03    0.22640E-07   -0.31214E-08  8832   0.124E-04    0.466E-04
DAV:  35    -0.294827177645E+03   -0.35526E-07   -0.15460E-09  8808   0.581E-05    0.262E-04
DAV:  36    -0.294827177635E+03    0.99790E-08   -0.16822E-08  8796   0.841E-05
   1 F= -.29984014E+03 E0= -.29984014E+03  d E =0.000000E+00
