<?xml version="1.0" encoding="ISO-8859-1"?>
<modeling>
 <generator>
  <i name="program" type="string">vasp </i>
  <i name="version" type="string">5.3.5  </i>
  <i name="subversion" type="string">31Mar14 (build Nov 02 2014 15:17:37) complex                          parallel </i>
  <i name="platform" type="string">ion-Intel-MKL </i>
  <i name="date" type="string">2016 10 20 </i>
  <i name="time" type="string">08:34:44 </i>
 </generator>
 <incar>
  <i type="string" name="SYSTEM">graphite</i>
  <i type="string" name="PREC">accurate</i>
  <i type="int" name="NELM">   200</i>
  <i type="int" name="IBRION">    -1</i>
  <i name="EDIFF">      0.00000001</i>
  <i name="EDIFFG">      0.00100000</i>
  <i type="int" name="NSW">     0</i>
  <i type="int" name="ISIF">     2</i>
  <i name="ENCUT">    800.00000000</i>
  <i type="int" name="ISMEAR">    -5</i>
  <i type="logical" name="LWAVE"> F  </i>
  <i type="logical" name="LCHARG"> F  </i>
  <i type="int" name="NELM">   200</i>
  <i type="string" name="GGA">PE</i>
 </incar>
 <kpoints>
  <generation param="Gamma">
   <v type="int" name="divisions">       6        6        4 </v>
   <v name="usershift">      0.00000000       0.00000000       0.00000000 </v>
   <v name="genvec1">      0.16666667       0.00000000       0.00000000 </v>
   <v name="genvec2">      0.00000000       0.16666667       0.00000000 </v>
   <v name="genvec3">      0.00000000       0.00000000       0.25000000 </v>
   <v name="shift">      0.00000000       0.00000000       0.00000000 </v>
  </generation>
  <varray name="kpointlist" >
   <v>       0.00000000       0.00000000       0.00000000 </v>
   <v>       0.16666667       0.00000000       0.00000000 </v>
   <v>       0.33333333       0.00000000       0.00000000 </v>
   <v>       0.50000000       0.00000000       0.00000000 </v>
   <v>      -0.00000000       0.16666667       0.00000000 </v>
   <v>       0.16666667       0.16666667       0.00000000 </v>
   <v>       0.33333333       0.16666667       0.00000000 </v>
   <v>       0.50000000       0.16666667       0.00000000 </v>
   <v>      -0.33333333       0.16666667       0.00000000 </v>
   <v>      -0.16666667       0.16666667       0.00000000 </v>
   <v>      -0.00000000       0.33333333       0.00000000 </v>
   <v>       0.16666667       0.33333333       0.00000000 </v>
   <v>       0.33333333       0.33333333       0.00000000 </v>
   <v>       0.50000000       0.33333333       0.00000000 </v>
   <v>      -0.33333333       0.33333333       0.00000000 </v>
   <v>      -0.16666667       0.33333333       0.00000000 </v>
   <v>       0.00000000       0.50000000       0.00000000 </v>
   <v>       0.16666667       0.50000000       0.00000000 </v>
   <v>       0.33333333       0.50000000       0.00000000 </v>
   <v>       0.50000000       0.50000000       0.00000000 </v>
   <v>       0.00000000       0.00000000       0.25000000 </v>
   <v>       0.16666667       0.00000000       0.25000000 </v>
   <v>       0.33333333       0.00000000       0.25000000 </v>
   <v>       0.50000000       0.00000000       0.25000000 </v>
   <v>      -0.33333333       0.00000000       0.25000000 </v>
   <v>      -0.16666667       0.00000000       0.25000000 </v>
   <v>      -0.00000000       0.16666667       0.25000000 </v>
   <v>       0.16666667       0.16666667       0.25000000 </v>
   <v>       0.33333333       0.16666667       0.25000000 </v>
   <v>       0.50000000       0.16666667       0.25000000 </v>
   <v>      -0.33333333       0.16666667       0.25000000 </v>
   <v>      -0.16666667       0.16666667       0.25000000 </v>
   <v>      -0.00000000       0.33333333       0.25000000 </v>
   <v>       0.16666667       0.33333333       0.25000000 </v>
   <v>       0.33333333       0.33333333       0.25000000 </v>
   <v>       0.50000000       0.33333333       0.25000000 </v>
   <v>      -0.33333333       0.33333333       0.25000000 </v>
   <v>      -0.16666667       0.33333333       0.25000000 </v>
   <v>       0.00000000       0.50000000       0.25000000 </v>
   <v>       0.16666667       0.50000000       0.25000000 </v>
   <v>       0.33333333       0.50000000       0.25000000 </v>
   <v>       0.50000000       0.50000000       0.25000000 </v>
   <v>      -0.33333333       0.50000000       0.25000000 </v>
   <v>      -0.16666667       0.50000000       0.25000000 </v>
   <v>       0.00000000      -0.33333333       0.25000000 </v>
   <v>       0.16666667      -0.33333333       0.25000000 </v>
   <v>       0.33333333      -0.33333333       0.25000000 </v>
   <v>       0.50000000      -0.33333333       0.25000000 </v>
   <v>      -0.33333333      -0.33333333       0.25000000 </v>
   <v>      -0.16666667      -0.33333333       0.25000000 </v>
   <v>       0.00000000      -0.16666667       0.25000000 </v>
   <v>       0.16666667      -0.16666667       0.25000000 </v>
   <v>       0.33333333      -0.16666667       0.25000000 </v>
   <v>       0.50000000      -0.16666667       0.25000000 </v>
   <v>      -0.33333333      -0.16666667       0.25000000 </v>
   <v>      -0.16666667      -0.16666667       0.25000000 </v>
   <v>       0.00000000       0.00000000       0.50000000 </v>
   <v>       0.16666667       0.00000000       0.50000000 </v>
   <v>       0.33333333       0.00000000       0.50000000 </v>
   <v>       0.50000000       0.00000000       0.50000000 </v>
   <v>      -0.00000000       0.16666667       0.50000000 </v>
   <v>       0.16666667       0.16666667       0.50000000 </v>
   <v>       0.33333333       0.16666667       0.50000000 </v>
   <v>       0.50000000       0.16666667       0.50000000 </v>
   <v>      -0.33333333       0.16666667       0.50000000 </v>
   <v>      -0.16666667       0.16666667       0.50000000 </v>
   <v>      -0.00000000       0.33333333       0.50000000 </v>
   <v>       0.16666667       0.33333333       0.50000000 </v>
   <v>       0.33333333       0.33333333       0.50000000 </v>
   <v>       0.50000000       0.33333333       0.50000000 </v>
   <v>      -0.33333333       0.33333333       0.50000000 </v>
   <v>      -0.16666667       0.33333333       0.50000000 </v>
   <v>       0.00000000       0.50000000       0.50000000 </v>
   <v>       0.16666667       0.50000000       0.50000000 </v>
   <v>       0.33333333       0.50000000       0.50000000 </v>
   <v>       0.50000000       0.50000000       0.50000000 </v>
  </varray>
  <varray name="weights" >
   <v>       0.00694444 </v>
   <v>       0.01388889 </v>
   <v>       0.01388889 </v>
   <v>       0.00694444 </v>
   <v>       0.01388889 </v>
   <v>       0.01388889 </v>
   <v>       0.01388889 </v>
   <v>       0.01388889 </v>
   <v>       0.01388889 </v>
   <v>       0.01388889 </v>
   <v>       0.01388889 </v>
   <v>       0.01388889 </v>
   <v>       0.01388889 </v>
   <v>       0.01388889 </v>
   <v>       0.01388889 </v>
   <v>       0.01388889 </v>
   <v>       0.00694444 </v>
   <v>       0.01388889 </v>
   <v>       0.01388889 </v>
   <v>       0.00694444 </v>
   <v>       0.01388889 </v>
   <v>       0.01388889 </v>
   <v>       0.01388889 </v>
   <v>       0.01388889 </v>
   <v>       0.01388889 </v>
   <v>       0.01388889 </v>
   <v>       0.01388889 </v>
   <v>       0.01388889 </v>
   <v>       0.01388889 </v>
   <v>       0.01388889 </v>
   <v>       0.01388889 </v>
   <v>       0.01388889 </v>
   <v>       0.01388889 </v>
   <v>       0.01388889 </v>
   <v>       0.01388889 </v>
   <v>       0.01388889 </v>
   <v>       0.01388889 </v>
   <v>       0.01388889 </v>
   <v>       0.01388889 </v>
   <v>       0.01388889 </v>
   <v>       0.01388889 </v>
   <v>       0.01388889 </v>
   <v>       0.01388889 </v>
   <v>       0.01388889 </v>
   <v>       0.01388889 </v>
   <v>       0.01388889 </v>
   <v>       0.01388889 </v>
   <v>       0.01388889 </v>
   <v>       0.01388889 </v>
   <v>       0.01388889 </v>
   <v>       0.01388889 </v>
   <v>       0.01388889 </v>
   <v>       0.01388889 </v>
   <v>       0.01388889 </v>
   <v>       0.01388889 </v>
   <v>       0.01388889 </v>
   <v>       0.00694444 </v>
   <v>       0.01388889 </v>
   <v>       0.01388889 </v>
   <v>       0.00694444 </v>
   <v>       0.01388889 </v>
   <v>       0.01388889 </v>
   <v>       0.01388889 </v>
   <v>       0.01388889 </v>
   <v>       0.01388889 </v>
   <v>       0.01388889 </v>
   <v>       0.01388889 </v>
   <v>       0.01388889 </v>
   <v>       0.01388889 </v>
   <v>       0.01388889 </v>
   <v>       0.01388889 </v>
   <v>       0.01388889 </v>
   <v>       0.00694444 </v>
   <v>       0.01388889 </v>
   <v>       0.01388889 </v>
   <v>       0.00694444 </v>
  </varray>
  <varray name="tetrahedronlist"  type="int" >
   <v type="int" >        2        2        5        6       27 </v>
   <v type="int" >        2        1        2        5       27 </v>
   <v type="int" >        2        1        2       21       27 </v>
   <v type="int" >        2        2        6       27       28 </v>
   <v type="int" >        2        2       22       27       28 </v>
   <v type="int" >        2        2       21       22       27 </v>
   <v type="int" >        2        3        6        7       28 </v>
   <v type="int" >        2        2        3        6       28 </v>
   <v type="int" >        2        2        3       22       28 </v>
   <v type="int" >        2        3        7       28       29 </v>
   <v type="int" >        2        3       23       28       29 </v>
   <v type="int" >        2        3       22       23       28 </v>
   <v type="int" >        2        4        7        8       29 </v>
   <v type="int" >        2        3        4        7       29 </v>
   <v type="int" >        2        3        4       23       29 </v>
   <v type="int" >        2        4        8       29       30 </v>
   <v type="int" >        2        4       24       29       30 </v>
   <v type="int" >        2        4       23       24       29 </v>
   <v type="int" >        2        3        8        9       30 </v>
   <v type="int" >        2        3        4        8       30 </v>
   <v type="int" >        2        3        4       24       30 </v>
   <v type="int" >        2        3        9       30       31 </v>
   <v type="int" >        2        3       25       30       31 </v>
   <v type="int" >        2        3       24       25       30 </v>
   <v type="int" >        2        2        9       10       31 </v>
   <v type="int" >        2        2        3        9       31 </v>
   <v type="int" >        2        2        3       25       31 </v>
   <v type="int" >        2        2       10       31       32 </v>
   <v type="int" >        2        2       26       31       32 </v>
   <v type="int" >        2        2       25       26       31 </v>
   <v type="int" >        2        1        5       10       32 </v>
   <v type="int" >        2        1        2       10       32 </v>
   <v type="int" >        2        1        2       26       32 </v>
   <v type="int" >        2        1        5       27       32 </v>
   <v type="int" >        2        1       21       27       32 </v>
   <v type="int" >        2        1       21       26       32 </v>
   <v type="int" >        2        6       11       12       33 </v>
   <v type="int" >        2        5        6       11       33 </v>
   <v type="int" >        2        5        6       27       33 </v>
   <v type="int" >        2        6       12       33       34 </v>
   <v type="int" >        2        6       28       33       34 </v>
   <v type="int" >        2        6       27       28       33 </v>
   <v type="int" >        2        7       12       13       34 </v>
   <v type="int" >        2        6        7       12       34 </v>
   <v type="int" >        2        6        7       28       34 </v>
   <v type="int" >        2        7       13       34       35 </v>
   <v type="int" >        2        7       29       34       35 </v>
   <v type="int" >        2        7       28       29       34 </v>
   <v type="int" >        2        8       13       14       35 </v>
   <v type="int" >        2        7        8       13       35 </v>
   <v type="int" >        2        7        8       29       35 </v>
   <v type="int" >        2        8       14       35       36 </v>
   <v type="int" >        2        8       30       35       36 </v>
   <v type="int" >        2        8       29       30       35 </v>
   <v type="int" >        2        9       14       15       36 </v>
   <v type="int" >        2        8        9       14       36 </v>
   <v type="int" >        2        8        9       30       36 </v>
   <v type="int" >        2        9       15       36       37 </v>
   <v type="int" >        2        9       31       36       37 </v>
   <v type="int" >        2        9       30       31       36 </v>
   <v type="int" >        2       10       15       16       37 </v>
   <v type="int" >        2        9       10       15       37 </v>
   <v type="int" >        2        9       10       31       37 </v>
   <v type="int" >        2       10       16       37       38 </v>
   <v type="int" >        2       10       32       37       38 </v>
   <v type="int" >        2       10       31       32       37 </v>
   <v type="int" >        2        5       11       16       38 </v>
   <v type="int" >        2        5       10       16       38 </v>
   <v type="int" >        2        5       10       32       38 </v>
   <v type="int" >        2        5       11       33       38 </v>
   <v type="int" >        2        5       27       33       38 </v>
   <v type="int" >        2        5       27       32       38 </v>
   <v type="int" >        2       12       17       18       39 </v>
   <v type="int" >        2       11       12       17       39 </v>
   <v type="int" >        2       11       12       33       39 </v>
   <v type="int" >        2       12       18       39       40 </v>
   <v type="int" >        2       12       34       39       40 </v>
   <v type="int" >        2       12       33       34       39 </v>
   <v type="int" >        2       13       18       19       40 </v>
   <v type="int" >        2       12       13       18       40 </v>
   <v type="int" >        2       12       13       34       40 </v>
   <v type="int" >        2       13       19       40       41 </v>
   <v type="int" >        2       13       35       40       41 </v>
   <v type="int" >        2       13       34       35       40 </v>
   <v type="int" >        2       14       19       20       41 </v>
   <v type="int" >        2       13       14       19       41 </v>
   <v type="int" >        2       13       14       35       41 </v>
   <v type="int" >        2       14       20       41       42 </v>
   <v type="int" >        2       14       36       41       42 </v>
   <v type="int" >        2       14       35       36       41 </v>
   <v type="int" >        2       15       19       20       42 </v>
   <v type="int" >        2       14       15       20       42 </v>
   <v type="int" >        2       14       15       36       42 </v>
   <v type="int" >        2       15       19       42       43 </v>
   <v type="int" >        2       15       37       42       43 </v>
   <v type="int" >        2       15       36       37       42 </v>
   <v type="int" >        2       16       18       19       43 </v>
   <v type="int" >        2       15       16       19       43 </v>
   <v type="int" >        2       15       16       37       43 </v>
   <v type="int" >        2       16       18       43       44 </v>
   <v type="int" >        2       16       38       43       44 </v>
   <v type="int" >        2       16       37       38       43 </v>
   <v type="int" >        2       11       17       18       44 </v>
   <v type="int" >        2       11       16       18       44 </v>
   <v type="int" >        2       11       16       38       44 </v>
   <v type="int" >        2       11       17       39       44 </v>
   <v type="int" >        2       11       33       39       44 </v>
   <v type="int" >        2       11       33       38       44 </v>
   <v type="int" >        2       11       16       18       45 </v>
   <v type="int" >        2       11       17       18       45 </v>
   <v type="int" >        2       17       18       39       45 </v>
   <v type="int" >        2       16       18       45       46 </v>
   <v type="int" >        2       18       40       45       46 </v>
   <v type="int" >        2       18       39       40       45 </v>
   <v type="int" >        2       15       16       19       46 </v>
   <v type="int" >        2       16       18       19       46 </v>
   <v type="int" >        2       18       19       40       46 </v>
   <v type="int" >        2       15       19       46       47 </v>
   <v type="int" >        2       19       41       46       47 </v>
   <v type="int" >        2       19       40       41       46 </v>
   <v type="int" >        2       14       15       20       47 </v>
   <v type="int" >        2       15       19       20       47 </v>
   <v type="int" >        2       19       20       41       47 </v>
   <v type="int" >        2       14       20       47       48 </v>
   <v type="int" >        2       20       42       47       48 </v>
   <v type="int" >        2       20       41       42       47 </v>
   <v type="int" >        2       13       14       19       48 </v>
   <v type="int" >        2       14       19       20       48 </v>
   <v type="int" >        2       19       20       42       48 </v>
   <v type="int" >        2       13       19       48       49 </v>
   <v type="int" >        2       19       43       48       49 </v>
   <v type="int" >        2       19       42       43       48 </v>
   <v type="int" >        2       12       13       18       49 </v>
   <v type="int" >        2       13       18       19       49 </v>
   <v type="int" >        2       18       19       43       49 </v>
   <v type="int" >        2       12       18       49       50 </v>
   <v type="int" >        2       18       44       49       50 </v>
   <v type="int" >        2       18       43       44       49 </v>
   <v type="int" >        2       11       12       17       50 </v>
   <v type="int" >        2       12       17       18       50 </v>
   <v type="int" >        2       17       18       44       50 </v>
   <v type="int" >        2       11       17       45       50 </v>
   <v type="int" >        2       17       39       45       50 </v>
   <v type="int" >        2       17       39       44       50 </v>
   <v type="int" >        2        5       10       16       51 </v>
   <v type="int" >        2        5       11       16       51 </v>
   <v type="int" >        2       11       16       45       51 </v>
   <v type="int" >        2       10       16       51       52 </v>
   <v type="int" >        2       16       46       51       52 </v>
   <v type="int" >        2       16       45       46       51 </v>
   <v type="int" >        2        9       10       15       52 </v>
   <v type="int" >        2       10       15       16       52 </v>
   <v type="int" >        2       15       16       46       52 </v>
   <v type="int" >        2        9       15       52       53 </v>
   <v type="int" >        2       15       47       52       53 </v>
   <v type="int" >        2       15       46       47       52 </v>
   <v type="int" >        2        8        9       14       53 </v>
   <v type="int" >        2        9       14       15       53 </v>
   <v type="int" >        2       14       15       47       53 </v>
   <v type="int" >        2        8       14       53       54 </v>
   <v type="int" >        2       14       48       53       54 </v>
   <v type="int" >        2       14       47       48       53 </v>
   <v type="int" >        2        7        8       13       54 </v>
   <v type="int" >        2        8       13       14       54 </v>
   <v type="int" >        2       13       14       48       54 </v>
   <v type="int" >        2        7       13       54       55 </v>
   <v type="int" >        2       13       49       54       55 </v>
   <v type="int" >        2       13       48       49       54 </v>
   <v type="int" >        2        6        7       12       55 </v>
   <v type="int" >        2        7       12       13       55 </v>
   <v type="int" >        2       12       13       49       55 </v>
   <v type="int" >        2        6       12       55       56 </v>
   <v type="int" >        2       12       50       55       56 </v>
   <v type="int" >        2       12       49       50       55 </v>
   <v type="int" >        2        5        6       11       56 </v>
   <v type="int" >        2        6       11       12       56 </v>
   <v type="int" >        2       11       12       50       56 </v>
   <v type="int" >        2        5       11       51       56 </v>
   <v type="int" >        2       11       45       51       56 </v>
   <v type="int" >        2       11       45       50       56 </v>
   <v type="int" >        2        1        2       10       21 </v>
   <v type="int" >        2        1        5       10       21 </v>
   <v type="int" >        2        5       10       21       51 </v>
   <v type="int" >        2        2       10       21       22 </v>
   <v type="int" >        2       10       21       22       52 </v>
   <v type="int" >        2       10       21       51       52 </v>
   <v type="int" >        2        2        3        9       22 </v>
   <v type="int" >        2        2        9       10       22 </v>
   <v type="int" >        2        9       10       22       52 </v>
   <v type="int" >        2        3        9       22       23 </v>
   <v type="int" >        2        9       22       23       53 </v>
   <v type="int" >        2        9       22       52       53 </v>
   <v type="int" >        2        3        4        8       23 </v>
   <v type="int" >        2        3        8        9       23 </v>
   <v type="int" >        2        8        9       23       53 </v>
   <v type="int" >        2        4        8       23       24 </v>
   <v type="int" >        2        8       23       24       54 </v>
   <v type="int" >        2        8       23       53       54 </v>
   <v type="int" >        2        3        4        7       24 </v>
   <v type="int" >        2        4        7        8       24 </v>
   <v type="int" >        2        7        8       24       54 </v>
   <v type="int" >        2        3        7       24       25 </v>
   <v type="int" >        2        7       24       25       55 </v>
   <v type="int" >        2        7       24       54       55 </v>
   <v type="int" >        2        2        3        6       25 </v>
   <v type="int" >        2        3        6        7       25 </v>
   <v type="int" >        2        6        7       25       55 </v>
   <v type="int" >        2        2        6       25       26 </v>
   <v type="int" >        2        6       25       26       56 </v>
   <v type="int" >        2        6       25       55       56 </v>
   <v type="int" >        2        1        2        5       26 </v>
   <v type="int" >        2        2        5        6       26 </v>
   <v type="int" >        2        5        6       26       56 </v>
   <v type="int" >        2        1        5       21       26 </v>
   <v type="int" >        2        5       21       26       51 </v>
   <v type="int" >        2        5       26       51       56 </v>
   <v type="int" >        2       22       27       28       61 </v>
   <v type="int" >        2       21       22       27       61 </v>
   <v type="int" >        2       21       22       57       61 </v>
   <v type="int" >        2       22       28       61       62 </v>
   <v type="int" >        2       22       58       61       62 </v>
   <v type="int" >        2       22       57       58       61 </v>
   <v type="int" >        2       23       28       29       62 </v>
   <v type="int" >        2       22       23       28       62 </v>
   <v type="int" >        2       22       23       58       62 </v>
   <v type="int" >        2       23       29       62       63 </v>
   <v type="int" >        2       23       59       62       63 </v>
   <v type="int" >        2       23       58       59       62 </v>
   <v type="int" >        2       24       29       30       63 </v>
   <v type="int" >        2       23       24       29       63 </v>
   <v type="int" >        2       23       24       59       63 </v>
   <v type="int" >        2       24       30       63       64 </v>
   <v type="int" >        2       24       60       63       64 </v>
   <v type="int" >        2       24       59       60       63 </v>
   <v type="int" >        2       25       30       31       64 </v>
   <v type="int" >        2       24       25       30       64 </v>
   <v type="int" >        2       24       25       60       64 </v>
   <v type="int" >        2       25       31       64       65 </v>
   <v type="int" >        2       25       59       64       65 </v>
   <v type="int" >        2       25       59       60       64 </v>
   <v type="int" >        2       26       31       32       65 </v>
   <v type="int" >        2       25       26       31       65 </v>
   <v type="int" >        2       25       26       59       65 </v>
   <v type="int" >        2       26       32       65       66 </v>
   <v type="int" >        2       26       58       65       66 </v>
   <v type="int" >        2       26       58       59       65 </v>
   <v type="int" >        2       21       27       32       66 </v>
   <v type="int" >        2       21       26       32       66 </v>
   <v type="int" >        2       21       26       58       66 </v>
   <v type="int" >        2       21       27       61       66 </v>
   <v type="int" >        2       21       57       61       66 </v>
   <v type="int" >        2       21       57       58       66 </v>
   <v type="int" >        2       28       33       34       67 </v>
   <v type="int" >        2       27       28       33       67 </v>
   <v type="int" >        2       27       28       61       67 </v>
   <v type="int" >        2       28       34       67       68 </v>
   <v type="int" >        2       28       62       67       68 </v>
   <v type="int" >        2       28       61       62       67 </v>
   <v type="int" >        2       29       34       35       68 </v>
   <v type="int" >        2       28       29       34       68 </v>
   <v type="int" >        2       28       29       62       68 </v>
   <v type="int" >        2       29       35       68       69 </v>
   <v type="int" >        2       29       63       68       69 </v>
   <v type="int" >        2       29       62       63       68 </v>
   <v type="int" >        2       30       35       36       69 </v>
   <v type="int" >        2       29       30       35       69 </v>
   <v type="int" >        2       29       30       63       69 </v>
   <v type="int" >        2       30       36       69       70 </v>
   <v type="int" >        2       30       64       69       70 </v>
   <v type="int" >        2       30       63       64       69 </v>
   <v type="int" >        2       31       36       37       70 </v>
   <v type="int" >        2       30       31       36       70 </v>
   <v type="int" >        2       30       31       64       70 </v>
   <v type="int" >        2       31       37       70       71 </v>
   <v type="int" >        2       31       65       70       71 </v>
   <v type="int" >        2       31       64       65       70 </v>
   <v type="int" >        2       32       37       38       71 </v>
   <v type="int" >        2       31       32       37       71 </v>
   <v type="int" >        2       31       32       65       71 </v>
   <v type="int" >        2       32       38       71       72 </v>
   <v type="int" >        2       32       66       71       72 </v>
   <v type="int" >        2       32       65       66       71 </v>
   <v type="int" >        2       27       33       38       72 </v>
   <v type="int" >        2       27       32       38       72 </v>
   <v type="int" >        2       27       32       66       72 </v>
   <v type="int" >        2       27       33       67       72 </v>
   <v type="int" >        2       27       61       67       72 </v>
   <v type="int" >        2       27       61       66       72 </v>
   <v type="int" >        2       34       39       40       73 </v>
   <v type="int" >        2       33       34       39       73 </v>
   <v type="int" >        2       33       34       67       73 </v>
   <v type="int" >        2       34       40       73       74 </v>
   <v type="int" >        2       34       68       73       74 </v>
   <v type="int" >        2       34       67       68       73 </v>
   <v type="int" >        2       35       40       41       74 </v>
   <v type="int" >        2       34       35       40       74 </v>
   <v type="int" >        2       34       35       68       74 </v>
   <v type="int" >        2       35       41       74       75 </v>
   <v type="int" >        2       35       69       74       75 </v>
   <v type="int" >        2       35       68       69       74 </v>
   <v type="int" >        2       36       41       42       75 </v>
   <v type="int" >        2       35       36       41       75 </v>
   <v type="int" >        2       35       36       69       75 </v>
   <v type="int" >        2       36       42       75       76 </v>
   <v type="int" >        2       36       70       75       76 </v>
   <v type="int" >        2       36       69       70       75 </v>
   <v type="int" >        2       37       42       43       76 </v>
   <v type="int" >        2       36       37       42       76 </v>
   <v type="int" >        2       36       37       70       76 </v>
   <v type="int" >        2       37       43       75       76 </v>
   <v type="int" >        2       37       71       75       76 </v>
   <v type="int" >        2       37       70       71       76 </v>
   <v type="int" >        2       38       43       44       75 </v>
   <v type="int" >        2       37       38       43       75 </v>
   <v type="int" >        2       37       38       71       75 </v>
   <v type="int" >        2       38       44       74       75 </v>
   <v type="int" >        2       38       72       74       75 </v>
   <v type="int" >        2       38       71       72       75 </v>
   <v type="int" >        2       33       39       44       74 </v>
   <v type="int" >        2       33       38       44       74 </v>
   <v type="int" >        2       33       38       72       74 </v>
   <v type="int" >        2       33       39       73       74 </v>
   <v type="int" >        2       33       67       73       74 </v>
   <v type="int" >        2       33       67       72       74 </v>
   <v type="int" >        2       40       45       46       67 </v>
   <v type="int" >        2       39       40       45       67 </v>
   <v type="int" >        2       39       40       67       73 </v>
   <v type="int" >        2       40       46       67       72 </v>
   <v type="int" >        2       40       67       72       74 </v>
   <v type="int" >        2       40       67       73       74 </v>
   <v type="int" >        2       41       46       47       72 </v>
   <v type="int" >        2       40       41       46       72 </v>
   <v type="int" >        2       40       41       72       74 </v>
   <v type="int" >        2       41       47       71       72 </v>
   <v type="int" >        2       41       71       72       75 </v>
   <v type="int" >        2       41       72       74       75 </v>
   <v type="int" >        2       42       47       48       71 </v>
   <v type="int" >        2       41       42       47       71 </v>
   <v type="int" >        2       41       42       71       75 </v>
   <v type="int" >        2       42       48       70       71 </v>
   <v type="int" >        2       42       70       71       76 </v>
   <v type="int" >        2       42       71       75       76 </v>
   <v type="int" >        2       43       48       49       70 </v>
   <v type="int" >        2       42       43       48       70 </v>
   <v type="int" >        2       42       43       70       76 </v>
   <v type="int" >        2       43       49       69       70 </v>
   <v type="int" >        2       43       69       70       75 </v>
   <v type="int" >        2       43       70       75       76 </v>
   <v type="int" >        2       44       49       50       69 </v>
   <v type="int" >        2       43       44       49       69 </v>
   <v type="int" >        2       43       44       69       75 </v>
   <v type="int" >        2       44       50       68       69 </v>
   <v type="int" >        2       44       68       69       74 </v>
   <v type="int" >        2       44       69       74       75 </v>
   <v type="int" >        2       39       45       50       68 </v>
   <v type="int" >        2       39       44       50       68 </v>
   <v type="int" >        2       39       44       68       74 </v>
   <v type="int" >        2       39       45       67       68 </v>
   <v type="int" >        2       39       67       68       73 </v>
   <v type="int" >        2       39       68       73       74 </v>
   <v type="int" >        2       46       51       52       61 </v>
   <v type="int" >        2       45       46       51       61 </v>
   <v type="int" >        2       45       46       61       67 </v>
   <v type="int" >        2       46       52       61       66 </v>
   <v type="int" >        2       46       61       66       72 </v>
   <v type="int" >        2       46       61       67       72 </v>
   <v type="int" >        2       47       52       53       66 </v>
   <v type="int" >        2       46       47       52       66 </v>
   <v type="int" >        2       46       47       66       72 </v>
   <v type="int" >        2       47       53       65       66 </v>
   <v type="int" >        2       47       65       66       71 </v>
   <v type="int" >        2       47       66       71       72 </v>
   <v type="int" >        2       48       53       54       65 </v>
   <v type="int" >        2       47       48       53       65 </v>
   <v type="int" >        2       47       48       65       71 </v>
   <v type="int" >        2       48       54       64       65 </v>
   <v type="int" >        2       48       64       65       70 </v>
   <v type="int" >        2       48       65       70       71 </v>
   <v type="int" >        2       49       54       55       64 </v>
   <v type="int" >        2       48       49       54       64 </v>
   <v type="int" >        2       48       49       64       70 </v>
   <v type="int" >        2       49       55       63       64 </v>
   <v type="int" >        2       49       63       64       69 </v>
   <v type="int" >        2       49       64       69       70 </v>
   <v type="int" >        2       50       55       56       63 </v>
   <v type="int" >        2       49       50       55       63 </v>
   <v type="int" >        2       49       50       63       69 </v>
   <v type="int" >        2       50       56       62       63 </v>
   <v type="int" >        2       50       62       63       68 </v>
   <v type="int" >        2       50       63       68       69 </v>
   <v type="int" >        2       45       51       56       62 </v>
   <v type="int" >        2       45       50       56       62 </v>
   <v type="int" >        2       45       50       62       68 </v>
   <v type="int" >        2       45       51       61       62 </v>
   <v type="int" >        2       45       61       62       67 </v>
   <v type="int" >        2       45       62       67       68 </v>
   <v type="int" >        2       21       22       52       57 </v>
   <v type="int" >        2       21       51       52       57 </v>
   <v type="int" >        2       51       52       57       61 </v>
   <v type="int" >        2       22       52       57       58 </v>
   <v type="int" >        2       52       57       58       66 </v>
   <v type="int" >        2       52       57       61       66 </v>
   <v type="int" >        2       22       23       53       58 </v>
   <v type="int" >        2       22       52       53       58 </v>
   <v type="int" >        2       52       53       58       66 </v>
   <v type="int" >        2       23       53       58       59 </v>
   <v type="int" >        2       53       58       59       65 </v>
   <v type="int" >        2       53       58       65       66 </v>
   <v type="int" >        2       23       24       54       59 </v>
   <v type="int" >        2       23       53       54       59 </v>
   <v type="int" >        2       53       54       59       65 </v>
   <v type="int" >        2       24       54       59       60 </v>
   <v type="int" >        2       54       59       60       64 </v>
   <v type="int" >        2       54       59       64       65 </v>
   <v type="int" >        2       24       25       55       60 </v>
   <v type="int" >        2       24       54       55       60 </v>
   <v type="int" >        2       54       55       60       64 </v>
   <v type="int" >        2       25       55       59       60 </v>
   <v type="int" >        2       55       59       60       63 </v>
   <v type="int" >        2       55       60       63       64 </v>
   <v type="int" >        2       25       26       56       59 </v>
   <v type="int" >        2       25       55       56       59 </v>
   <v type="int" >        2       55       56       59       63 </v>
   <v type="int" >        2       26       56       58       59 </v>
   <v type="int" >        2       56       58       59       62 </v>
   <v type="int" >        2       56       59       62       63 </v>
   <v type="int" >        2       21       26       51       58 </v>
   <v type="int" >        2       26       51       56       58 </v>
   <v type="int" >        2       51       56       58       62 </v>
   <v type="int" >        2       21       51       57       58 </v>
   <v type="int" >        2       51       57       58       61 </v>
   <v type="int" >        2       51       58       61       62 </v>
  </varray>
  <i name="volumeweight">      0.00115741 </i>
 </kpoints>
 <parameters>
  <separator name="general" >
   <i type="string" name="SYSTEM">graphite</i>
   <i type="logical" name="LCOMPAT"> F  </i>
  </separator>
  <separator name="electronic" >
   <i type="string" name="PREC">accura</i>
   <i name="ENMAX">    800.00000000</i>
   <i name="ENAUG">    644.87300000</i>
   <i name="EDIFF">      0.00000001</i>
   <i type="int" name="IALGO">    38</i>
   <i type="int" name="IWAVPR">    10</i>
   <i type="int" name="NBANDS">    84</i>
   <i name="NELECT">    128.00000000</i>
   <i type="int" name="TURBO">     0</i>
   <i type="int" name="IRESTART">     0</i>
   <i type="int" name="NREBOOT">     0</i>
   <i type="int" name="NMIN">     0</i>
   <i name="EREF">      0.00000000</i>
   <separator name="electronic smearing" >
    <i type="int" name="ISMEAR">    -5</i>
    <i name="SIGMA">      0.20000000</i>
    <i name="KSPACING">      0.50000000</i>
    <i type="logical" name="KGAMMA"> T  </i>
   </separator>
   <separator name="electronic projectors" >
    <i type="logical" name="LREAL"> F  </i>
    <v name="ROPT">      0.00000000</v>
    <i type="int" name="LMAXPAW">  -100</i>
    <i type="int" name="LMAXMIX">     2</i>
    <i type="logical" name="NLSPLINE"> F  </i>
   </separator>
   <separator name="electronic startup" >
    <i type="int" name="ISTART">     0</i>
    <i type="int" name="ICHARG">     2</i>
    <i type="int" name="INIWAV">     1</i>
   </separator>
   <separator name="electronic spin" >
    <i type="int" name="ISPIN">     1</i>
    <i type="logical" name="LNONCOLLINEAR"> F  </i>
    <v name="MAGMOM">      1.00000000      1.00000000      1.00000000      1.00000000      1.00000000      1.00000000      1.00000000      1.00000000      1.00000000      1.00000000      1.00000000      1.00000000      1.00000000      1.00000000      1.00000000      1.00000000      1.00000000      1.00000000      1.00000000      1.00000000
      1.00000000      1.00000000      1.00000000      1.00000000      1.00000000      1.00000000      1.00000000      1.00000000      1.00000000      1.00000000      1.00000000      1.00000000</v>
    <i name="NUPDOWN">     -1.00000000</i>
    <i type="logical" name="LSORBIT"> F  </i>
    <v name="SAXIS">      0.00000000      0.00000000      1.00000000</v>
    <i type="logical" name="LSPIRAL"> F  </i>
    <v name="QSPIRAL">      0.00000000      0.00000000      0.00000000</v>
    <i type="logical" name="LZEROZ"> F  </i>
   </separator>
   <separator name="electronic exchange-correlation" >
    <i type="logical" name="LASPH"> F  </i>
    <i type="logical" name="LMETAGGA"> F  </i>
   </separator>
   <separator name="electronic convergence" >
    <i type="int" name="NELM">   200</i>
    <i type="int" name="NELMDL">     0</i>
    <i type="int" name="NELMIN">     2</i>
    <i name="ENINI">    800.00000000</i>
    <separator name="electronic convergence detail" >
     <i type="logical" name="LDIAG"> T  </i>
     <i type="logical" name="LSUBROT"> F  </i>
     <i name="WEIMIN">      0.00000000</i>
     <i name="EBREAK">      0.00000000</i>
     <i name="DEPER">      0.30000000</i>
     <i type="int" name="NRMM">     4</i>
     <i name="TIME">      0.40000000</i>
    </separator>
   </separator>
   <separator name="electronic mixer" >
    <i name="AMIX">      0.40000000</i>
    <i name="BMIX">      1.00000000</i>
    <i name="AMIN">      0.10000000</i>
    <i name="AMIX_MAG">      1.60000000</i>
    <i name="BMIX_MAG">      1.00000000</i>
    <separator name="electronic mixer details" >
     <i type="int" name="IMIX">     4</i>
     <i type="int" name="MAXMIX">   -45</i>
     <i name="WC">    100.00000000</i>
     <i type="int" name="INIMIX">     1</i>
     <i type="int" name="MIXPRE">     1</i>
     <i type="int" name="MREMOVE">     5</i>
    </separator>
   </separator>
   <separator name="electronic dipolcorrection" >
    <i type="logical" name="LDIPOL"> F  </i>
    <i type="logical" name="LMONO"> F  </i>
    <i type="int" name="IDIPOL">     0</i>
    <i name="EPSILON">      1.00000000</i>
    <v name="DIPOL">   -100.00000000   -100.00000000   -100.00000000</v>
    <i name="EFIELD">      0.00000000</i>
   </separator>
  </separator>
  <separator name="grids" >
   <i type="int" name="NGX">    48</i>
   <i type="int" name="NGY">    48</i>
   <i type="int" name="NGZ">   126</i>
   <i type="int" name="NGXF">    96</i>
   <i type="int" name="NGYF">    96</i>
   <i type="int" name="NGZF">   252</i>
   <i type="logical" name="ADDGRID"> F  </i>
  </separator>
  <separator name="ionic" >
   <i type="int" name="NSW">     0</i>
   <i type="int" name="IBRION">    -1</i>
   <i type="int" name="ISIF">     2</i>
   <i name="PSTRESS">      0.00000000</i>
   <i name="EDIFFG">      0.00100000</i>
   <i type="int" name="NFREE">     0</i>
   <i name="POTIM">      0.50000000</i>
   <i name="SMASS">     -3.00000000</i>
   <i name="SCALEE">      1.00000000</i>
  </separator>
  <separator name="ionic md" >
   <i name="TEBEG">      0.00010000</i>
   <i name="TEEND">      0.00010000</i>
   <i type="int" name="NBLOCK">     1</i>
   <i type="int" name="KBLOCK">     1</i>
   <i type="int" name="NPACO">   256</i>
   <i name="APACO">     16.00000000</i>
  </separator>
  <separator name="symmetry" >
   <i type="int" name="ISYM">     2</i>
   <i name="SYMPREC">      0.00001000</i>
  </separator>
  <separator name="dos" >
   <i type="logical" name="LORBIT"> F  </i>
   <v name="RWIGS">     -1.00000000</v>
   <i type="int" name="NEDOS">   301</i>
   <i name="EMIN">     10.00000000</i>
   <i name="EMAX">    -10.00000000</i>
   <i name="EFERMI">      0.00000000</i>
  </separator>
  <separator name="writing" >
   <i type="int" name="NWRITE">     2</i>
   <i type="logical" name="LWAVE"> F  </i>
   <i type="logical" name="LCHARG"> F  </i>
   <i type="logical" name="LPARD"> F  </i>
   <i type="logical" name="LVTOT"> F  </i>
   <i type="logical" name="LVHAR"> F  </i>
   <i type="logical" name="LELF"> F  </i>
   <i type="logical" name="LOPTICS"> F  </i>
   <v name="STM">      0.00000000      0.00000000      0.00000000      0.00000000      0.00000000      0.00000000      0.00000000</v>
  </separator>
  <separator name="performance" >
   <i type="int" name="NPAR">     6</i>
   <i type="int" name="NSIM">     4</i>
   <i type="int" name="NBLK">    -1</i>
   <i type="logical" name="LPLANE"> T  </i>
   <i type="logical" name="LSCALAPACK"> T  </i>
   <i type="logical" name="LSCAAWARE"> F  </i>
   <i type="logical" name="LSCALU"> F  </i>
   <i type="logical" name="LASYNC"> F  </i>
   <i type="logical" name="LORBITALREAL"> F  </i>
  </separator>
  <separator name="miscellaneous" >
   <i type="int" name="IDIOT">     3</i>
   <i type="logical" name="LMUSIC"> F  </i>
   <v name="POMASS">     12.01100000</v>
   <v name="DARWINR">      0.00000000</v>
   <v name="DARWINV">      1.00000000</v>
   <i type="logical" name="LCORR"> T  </i>
  </separator>
  <i type="logical" name="GGA_COMPAT"> T  </i>
  <i type="logical" name="LBERRY"> F  </i>
  <i type="int" name="ICORELEVEL">     0</i>
  <i type="logical" name="LDAU"> F  </i>
  <i type="int" name="I_CONSTRAINED_M">     0</i>
  <separator name="electronic exchange-correlation" >
   <i type="string" name="GGA">PE</i>
   <i type="int" name="VOSKOWN">     0</i>
   <i type="logical" name="LHFCALC"> F  </i>
   <i type="string" name="PRECFOCK"></i>
   <i type="logical" name="LSYMGRAD"> F  </i>
   <i type="logical" name="LHFONE"> F  </i>
   <i type="logical" name="LRHFCALC"> F  </i>
   <i type="logical" name="LTHOMAS"> F  </i>
   <i type="logical" name="LMODELHF"> F  </i>
   <i name="ENCUT4O">     -1.00000000</i>
   <i type="int" name="EXXOEP">     0</i>
   <i type="int" name="FOURORBIT">     0</i>
   <i name="AEXX">      0.00000000</i>
   <i name="HFALPHA">      0.00000000</i>
   <i name="MCALPHA">      0.00000000</i>
   <i name="ALDAX">      1.00000000</i>
   <i name="AGGAX">      1.00000000</i>
   <i name="ALDAC">      1.00000000</i>
   <i name="AGGAC">      1.00000000</i>
   <i type="int" name="NKREDX">     1</i>
   <i type="int" name="NKREDY">     1</i>
   <i type="int" name="NKREDZ">     1</i>
   <i type="logical" name="SHIFTRED"> F  </i>
   <i type="logical" name="ODDONLY"> F  </i>
   <i type="logical" name="EVENONLY"> F  </i>
   <i type="int" name="LMAXFOCK">     0</i>
   <i type="int" name="NMAXFOCKAE">     0</i>
   <i type="logical" name="LFOCKAEDFT"> F  </i>
   <i name="HFSCREEN">      0.00000000</i>
   <i name="HFSCREENC">      0.00000000</i>
   <i type="int" name="NBANDSGWLOW">     0</i>
  </separator>
  <separator name="vdW DFT" >
   <i type="logical" name="LUSE_VDW"> F  </i>
   <i name="Zab_VDW">     -0.84910000</i>
   <i name="PARAM1">      0.12340000</i>
   <i name="PARAM2">      1.00000000</i>
   <i name="PARAM3">      0.00000000</i>
  </separator>
  <separator name="model GW" >
   <i type="int" name="MODEL_GW">     0</i>
   <i name="MODEL_EPS0">      5.29073944</i>
   <i name="MODEL_ALPHA">      1.00000000</i>
  </separator>
  <separator name="linear response parameters" >
   <i type="logical" name="LEPSILON"> F  </i>
   <i type="logical" name="LRPA"> F  </i>
   <i type="logical" name="LNABLA"> F  </i>
   <i type="logical" name="LVEL"> F  </i>
   <i type="int" name="KINTER">     0</i>
   <i name="CSHIFT">      0.10000000</i>
   <i name="OMEGAMAX">     -1.00000000</i>
   <i name="DEG_THRESHOLD">      0.00200000</i>
  </separator>
  <separator name="orbital magnetization" >
   <i type="logical" name="NUCIND"> F  </i>
   <v name="MAGPOS">      0.00000000      0.00000000      0.00000000</v>
   <i type="logical" name="LNICSALL"> T  </i>
   <i type="logical" name="ORBITALMAG"> F  </i>
   <i type="logical" name="LMAGBLOCH"> F  </i>
   <i type="logical" name="LCHIMAG"> F  </i>
   <i type="logical" name="LGAUGE"> T  </i>
   <i type="int" name="MAGATOM">     0</i>
   <v name="MAGDIPOL">      0.00000000      0.00000000      0.00000000</v>
   <v name="AVECCONST">      0.00000000      0.00000000      0.00000000</v>
  </separator>
  <separator name="response functions" >
   <i type="logical" name="LADDER"> F  </i>
   <i type="logical" name="LFXC"> F  </i>
   <i type="logical" name="LHARTREE"> T  </i>
   <i type="int" name="IBSE">     0</i>
   <i type="logical" name="LTCTE"> F  </i>
   <i type="logical" name="LTETE"> F  </i>
   <i type="logical" name="LTRIPLET"> F  </i>
   <i type="logical" name="LFXCEPS"> F  </i>
   <i type="logical" name="LFXHEG"> F  </i>
   <i type="logical" name="L2ORDER"> F  </i>
   <i type="logical" name="LUSEW"> F  </i>
   <i name="ENCUTGW">     -2.00000000</i>
   <i name="ENCUTGWSOFT">     -2.00000000</i>
   <i name="ENCUTLF">     -1.00000000</i>
   <i type="int" name="LMAXMP2">    -1</i>
   <i name="SCISSOR">      0.00000000</i>
   <i type="int" name="NOMEGA">     0</i>
   <i type="int" name="NOMEGAR">     0</i>
   <i type="int" name="NBANDSGW">    -1</i>
   <i type="int" name="NBANDSO">    -1</i>
   <i type="int" name="NBANDSV">    -1</i>
   <i type="int" name="NELM">   200</i>
   <i type="int" name="DIM">     3</i>
   <i type="int" name="ANTIRES">     0</i>
   <i name="OMEGAMAX">    -30.00000000</i>
   <i name="OMEGAMIN">    -30.00000000</i>
   <i name="OMEGATL">   -200.00000000</i>
   <i type="int" name="OMEGAGRID">     0</i>
   <i name="CSHIFT">     -0.10000000</i>
   <i type="logical" name="SELFENERGY"> F  </i>
   <i type="logical" name="LSPECTRAL"> F  </i>
   <i type="logical" name="ODDONLYGW"> F  </i>
   <i type="logical" name="EVENONLYGW"> F  </i>
   <i type="int" name="NKREDLFX">     1</i>
   <i type="int" name="NKREDLFY">     1</i>
   <i type="int" name="NKREDLFZ">     1</i>
   <i type="int" name="MAXMEM">  1800</i>
   <i type="int" name="TELESCOPE">     0</i>
   <i type="int" name="TAUPAR">     1</i>
  </separator>
  <separator name="External order field" >
   <i name="OFIELD_KAPPA">      0.00000000</i>
   <v name="OFIELD_K">      0.00000000      0.00000000      0.00000000</v>
   <i name="OFIELD_Q6_NEAR">      0.00000000</i>
   <i name="OFIELD_Q6_FAR">      0.00000000</i>
   <i name="OFIELD_A">      0.00000000</i>
  </separator>
 </parameters>
 <atominfo>
  <atoms>      32 </atoms>
  <types>       1 </types>
  <array name="atoms" >
   <dimension dim="1">ion</dimension>
   <field type="string">element</field>
   <field type="int">atomtype</field>
   <set>
    <rc><c>C </c><c>   1</c></rc>
    <rc><c>C </c><c>   1</c></rc>
    <rc><c>C </c><c>   1</c></rc>
    <rc><c>C </c><c>   1</c></rc>
    <rc><c>C </c><c>   1</c></rc>
    <rc><c>C </c><c>   1</c></rc>
    <rc><c>C </c><c>   1</c></rc>
    <rc><c>C </c><c>   1</c></rc>
    <rc><c>C </c><c>   1</c></rc>
    <rc><c>C </c><c>   1</c></rc>
    <rc><c>C </c><c>   1</c></rc>
    <rc><c>C </c><c>   1</c></rc>
    <rc><c>C </c><c>   1</c></rc>
    <rc><c>C </c><c>   1</c></rc>
    <rc><c>C </c><c>   1</c></rc>
    <rc><c>C </c><c>   1</c></rc>
    <rc><c>C </c><c>   1</c></rc>
    <rc><c>C </c><c>   1</c></rc>
    <rc><c>C </c><c>   1</c></rc>
    <rc><c>C </c><c>   1</c></rc>
    <rc><c>C </c><c>   1</c></rc>
    <rc><c>C </c><c>   1</c></rc>
    <rc><c>C </c><c>   1</c></rc>
    <rc><c>C </c><c>   1</c></rc>
    <rc><c>C </c><c>   1</c></rc>
    <rc><c>C </c><c>   1</c></rc>
    <rc><c>C </c><c>   1</c></rc>
    <rc><c>C </c><c>   1</c></rc>
    <rc><c>C </c><c>   1</c></rc>
    <rc><c>C </c><c>   1</c></rc>
    <rc><c>C </c><c>   1</c></rc>
    <rc><c>C </c><c>   1</c></rc>
   </set>
  </array>
  <array name="atomtypes" >
   <dimension dim="1">type</dimension>
   <field type="int">atomspertype</field>
   <field type="string">element</field>
   <field>mass</field>
   <field>valence</field>
   <field type="string">pseudopotential</field>
   <set>
    <rc><c>  32</c><c>C </c><c>     12.01100000</c><c>      4.00000000</c><c> PAW_PBE C 08Apr2002                    </c></rc>
   </set>
  </array>
 </atominfo>
 <structure name="initialpos" >
  <crystal>
   <varray name="basis" >
    <v>       4.93287450      -0.00191929       0.00000000 </v>
    <v>      -2.46809940       4.27103499       0.00000000 </v>
    <v>       0.00000000       0.00000000      13.39613647 </v>
   </varray>
   <i name="volume">    282.17277010 </i>
   <varray name="rec_basis" >
    <v>       0.20276715       0.11717288       0.00000000 </v>
    <v>       0.00009112       0.23418794       0.00000000 </v>
    <v>       0.00000000       0.00000000       0.07464839 </v>
   </varray>
  </crystal>
  <varray name="positions" >
   <v>       0.49967330       0.00032672       0.12500000 </v>
   <v>       0.99967330       0.00032672       0.12500000 </v>
   <v>       0.49967330       0.50032672       0.12500000 </v>
   <v>       0.99967330       0.50032672       0.12500000 </v>
   <v>       0.49967330       0.00032672       0.62500000 </v>
   <v>       0.99967330       0.00032672       0.62500000 </v>
   <v>       0.49967330       0.50032672       0.62500000 </v>
   <v>       0.99967330       0.50032672       0.62500000 </v>
   <v>       0.00032672       0.49967330       0.37500000 </v>
   <v>       0.50032672       0.49967330       0.37500000 </v>
   <v>       0.00032672       0.99967330       0.37500000 </v>
   <v>       0.50032672       0.99967330       0.37500000 </v>
   <v>       0.00032672       0.49967330       0.87500000 </v>
   <v>       0.50032672       0.49967330       0.87500000 </v>
   <v>       0.00032672       0.99967330       0.87500000 </v>
   <v>       0.50032672       0.99967330       0.87500000 </v>
   <v>       0.16699296       0.33370753       0.12570050 </v>
   <v>       0.66629246       0.33370753       0.12500000 </v>
   <v>       0.16629246       0.83370753       0.12500000 </v>
   <v>       0.66629246       0.83370753       0.12500000 </v>
   <v>       0.16629246       0.33370753       0.62500000 </v>
   <v>       0.66629246       0.33370753       0.62500000 </v>
   <v>       0.16629246       0.83370753       0.62500000 </v>
   <v>       0.66629246       0.83370753       0.62500000 </v>
   <v>       0.33370753       0.16629246       0.37500000 </v>
   <v>       0.83370753       0.16629246       0.37500000 </v>
   <v>       0.33370753       0.66629246       0.37500000 </v>
   <v>       0.83370753       0.66629246       0.37500000 </v>
   <v>       0.33370753       0.16629246       0.87500000 </v>
   <v>       0.83370753       0.16629246       0.87500000 </v>
   <v>       0.33370753       0.66629246       0.87500000 </v>
   <v>       0.83370753       0.66629246       0.87500000 </v>
  </varray>
 </structure>
 <calculation>
  <scstep>
   <time name="dav">  256.72  643.46</time>
   <time name="total">  257.85  646.25</time>
   <energy>
    <i name="alphaZ">    295.69007636 </i>
    <i name="ewald">  -3694.38448117 </i>
    <i name="hartreedc">  -1182.70021658 </i>
    <i name="XCdc">    443.12611628 </i>
    <i name="pawpsdc">   1210.60617908 </i>
    <i name="pawaedc">  -1247.42152856 </i>
    <i name="eentropy">      0.00000000 </i>
    <i name="bandstr">    172.07225949 </i>
    <i name="atom">   4708.94155045 </i>
    <i name="e_fr_energy">    705.92995535 </i>
    <i name="e_wo_entrp">    705.92995535 </i>
    <i name="e_0_energy">    705.92995535 </i>
   </energy>
  </scstep>
  <scstep>
   <time name="dav">  297.97  746.93</time>
   <time name="total">  298.07  747.15</time>
   <energy>
    <i name="e_fr_energy">   -254.65658164 </i>
    <i name="e_wo_entrp">   -254.65658164 </i>
    <i name="e_0_energy">   -254.65658164 </i>
   </energy>
  </scstep>
  <scstep>
   <time name="dav">  290.96  731.59</time>
   <time name="total">  291.05  731.82</time>
   <energy>
    <i name="e_fr_energy">   -312.59048044 </i>
    <i name="e_wo_entrp">   -312.59048044 </i>
    <i name="e_0_energy">   -312.59048044 </i>
   </energy>
  </scstep>
  <scstep>
   <time name="dav">  301.92  745.85</time>
   <time name="total">  301.96  745.97</time>
   <energy>
    <i name="e_fr_energy">   -313.71870863 </i>
    <i name="e_wo_entrp">   -313.71870863 </i>
    <i name="e_0_energy">   -313.71870863 </i>
   </energy>
  </scstep>
  <scstep>
   <time name="dav">  301.55  754.60</time>
   <time name="total">  308.01  770.31</time>
   <energy>
    <i name="e_fr_energy">   -313.75330244 </i>
    <i name="e_wo_entrp">   -313.75330244 </i>
    <i name="e_0_energy">   -313.75330244 </i>
   </energy>
  </scstep>
  <scstep>
   <time name="dav">  280.00  699.83</time>
   <time name="total">  287.25  718.00</time>
   <energy>
    <i name="e_fr_energy">   -299.33471957 </i>
    <i name="e_wo_entrp">   -299.33471957 </i>
    <i name="e_0_energy">   -299.33471957 </i>
   </energy>
  </scstep>
  <scstep>
   <time name="dav">  280.62  704.63</time>
   <time name="total">  287.62  722.78</time>
   <energy>
    <i name="e_fr_energy">   -294.76764102 </i>
    <i name="e_wo_entrp">   -294.76764102 </i>
    <i name="e_0_energy">   -294.76764102 </i>
   </energy>
  </scstep>
  <scstep>
   <time name="dav">  286.53  717.79</time>
   <time name="total">  293.94  735.95</time>
   <energy>
    <i name="e_fr_energy">   -294.83044379 </i>
    <i name="e_wo_entrp">   -294.83044379 </i>
    <i name="e_0_energy">   -294.83044379 </i>
   </energy>
  </scstep>
  <scstep>
   <time name="dav">  285.15  708.90</time>
   <time name="total">  292.45  726.75</time>
   <energy>
    <i name="e_fr_energy">   -294.83006874 </i>
    <i name="e_wo_entrp">   -294.83006874 </i>
    <i name="e_0_energy">   -294.83006874 </i>
   </energy>
  </scstep>
  <scstep>
   <time name="dav">  289.60  724.37</time>
   <time name="total">  296.48  741.97</time>
   <energy>
    <i name="e_fr_energy">   -294.82789436 </i>
    <i name="e_wo_entrp">   -294.82789436 </i>
    <i name="e_0_energy">   -294.82789436 </i>
   </energy>
  </scstep>
  <scstep>
   <time name="dav">  343.32  856.68</time>
   <time name="total">  350.93  875.50</time>
   <energy>
    <i name="e_fr_energy">   -294.82753331 </i>
    <i name="e_wo_entrp">   -294.82753331 </i>
    <i name="e_0_energy">   -294.82753331 </i>
   </energy>
  </scstep>
  <scstep>
   <time name="dav">  294.10  733.56</time>
   <time name="total">  301.14  751.37</time>
   <energy>
    <i name="e_fr_energy">   -294.82751185 </i>
    <i name="e_wo_entrp">   -294.82751185 </i>
    <i name="e_0_energy">   -294.82751185 </i>
   </energy>
  </scstep>
  <scstep>
   <time name="dav">  286.83  714.37</time>
   <time name="total">  293.76  732.33</time>
   <energy>
    <i name="e_fr_energy">   -294.82727742 </i>
    <i name="e_wo_entrp">   -294.82727742 </i>
    <i name="e_0_energy">   -294.82727742 </i>
   </energy>
  </scstep>
  <scstep>
   <time name="dav">  292.88  729.20</time>
   <time name="total">  300.09  747.00</time>
   <energy>
    <i name="e_fr_energy">   -294.82764898 </i>
    <i name="e_wo_entrp">   -294.82764898 </i>
    <i name="e_0_energy">   -294.82764898 </i>
   </energy>
  </scstep>
  <scstep>
   <time name="dav">  295.42  735.90</time>
   <time name="total">  302.61  753.69</time>
   <energy>
    <i name="e_fr_energy">   -294.82720782 </i>
    <i name="e_wo_entrp">   -294.82720782 </i>
    <i name="e_0_energy">   -294.82720782 </i>
   </energy>
  </scstep>
  <scstep>
   <time name="dav">  282.71  706.57</time>
   <time name="total">  290.09  724.40</time>
   <energy>
    <i name="e_fr_energy">   -294.82727339 </i>
    <i name="e_wo_entrp">   -294.82727339 </i>
    <i name="e_0_energy">   -294.82727339 </i>
   </energy>
  </scstep>
  <scstep>
   <time name="dav">  310.60  773.88</time>
   <time name="total">  317.41  790.79</time>
   <energy>
    <i name="e_fr_energy">   -294.82724429 </i>
    <i name="e_wo_entrp">   -294.82724429 </i>
    <i name="e_0_energy">   -294.82724429 </i>
   </energy>
  </scstep>
  <scstep>
   <time name="dav">  309.79  775.37</time>
   <time name="total">  317.58  793.52</time>
   <energy>
    <i name="e_fr_energy">   -294.82717968 </i>
    <i name="e_wo_entrp">   -294.82717968 </i>
    <i name="e_0_energy">   -294.82717968 </i>
   </energy>
  </scstep>
  <scstep>
   <time name="dav">  277.55  688.65</time>
   <time name="total">  284.75  706.36</time>
   <energy>
    <i name="e_fr_energy">   -294.82717917 </i>
    <i name="e_wo_entrp">   -294.82717917 </i>
    <i name="e_0_energy">   -294.82717917 </i>
   </energy>
  </scstep>
  <scstep>
   <time name="dav">  352.91  887.28</time>
   <time name="total">  360.41  905.56</time>
   <energy>
    <i name="e_fr_energy">   -294.82719674 </i>
    <i name="e_wo_entrp">   -294.82719674 </i>
    <i name="e_0_energy">   -294.82719674 </i>
   </energy>
  </scstep>
  <scstep>
   <time name="dav">  319.23  793.18</time>
   <time name="total">  326.28  811.01</time>
   <energy>
    <i name="e_fr_energy">   -294.82717914 </i>
    <i name="e_wo_entrp">   -294.82717914 </i>
    <i name="e_0_energy">   -294.82717914 </i>
   </energy>
  </scstep>
  <scstep>
   <time name="dav">  291.59  725.50</time>
   <time name="total">  299.25  744.58</time>
   <energy>
    <i name="e_fr_energy">   -294.82717965 </i>
    <i name="e_wo_entrp">   -294.82717965 </i>
    <i name="e_0_energy">   -294.82717965 </i>
   </energy>
  </scstep>
  <scstep>
   <time name="dav">  291.99  732.70</time>
   <time name="total">  299.10  750.96</time>
   <energy>
    <i name="e_fr_energy">   -294.82717779 </i>
    <i name="e_wo_entrp">   -294.82717779 </i>
    <i name="e_0_energy">   -294.82717779 </i>
   </energy>
  </scstep>
  <scstep>
   <time name="dav">  286.32  717.05</time>
   <time name="total">  293.21  734.44</time>
   <energy>
    <i name="e_fr_energy">   -294.82717794 </i>
    <i name="e_wo_entrp">   -294.82717794 </i>
    <i name="e_0_energy">   -294.82717794 </i>
   </energy>
  </scstep>
  <scstep>
   <time name="dav">  264.74  664.44</time>
   <time name="total">  271.77  681.55</time>
   <energy>
    <i name="e_fr_energy">   -294.82717845 </i>
    <i name="e_wo_entrp">   -294.82717845 </i>
    <i name="e_0_energy">   -294.82717845 </i>
   </energy>
  </scstep>
  <scstep>
   <time name="dav">  289.45  723.63</time>
   <time name="total">  296.83  742.16</time>
   <energy>
    <i name="e_fr_energy">   -294.82717774 </i>
    <i name="e_wo_entrp">   -294.82717774 </i>
    <i name="e_0_energy">   -294.82717774 </i>
   </energy>
  </scstep>
  <scstep>
   <time name="dav">  257.42  640.95</time>
   <time name="total">  264.47  659.13</time>
   <energy>
    <i name="e_fr_energy">   -294.82717779 </i>
    <i name="e_wo_entrp">   -294.82717779 </i>
    <i name="e_0_energy">   -294.82717779 </i>
   </energy>
  </scstep>
  <scstep>
   <time name="dav">  217.32  538.25</time>
   <time name="total">  224.50  556.12</time>
   <energy>
    <i name="e_fr_energy">   -294.82717820 </i>
    <i name="e_wo_entrp">   -294.82717820 </i>
    <i name="e_0_energy">   -294.82717820 </i>
   </energy>
  </scstep>
  <scstep>
   <time name="dav">  213.33  534.93</time>
   <time name="total">  220.35  553.27</time>
   <energy>
    <i name="e_fr_energy">   -294.82717796 </i>
    <i name="e_wo_entrp">   -294.82717796 </i>
    <i name="e_0_energy">   -294.82717796 </i>
   </energy>
  </scstep>
  <scstep>
   <time name="dav">  262.10  649.30</time>
   <time name="total">  269.57  666.66</time>
   <energy>
    <i name="e_fr_energy">   -294.82717762 </i>
    <i name="e_wo_entrp">   -294.82717762 </i>
    <i name="e_0_energy">   -294.82717762 </i>
   </energy>
  </scstep>
  <scstep>
   <time name="dav">  220.64  558.22</time>
   <time name="total">  227.73  575.44</time>
   <energy>
    <i name="e_fr_energy">   -294.82717765 </i>
    <i name="e_wo_entrp">   -294.82717765 </i>
    <i name="e_0_energy">   -294.82717765 </i>
   </energy>
  </scstep>
  <scstep>
   <time name="dav">  209.60  521.31</time>
   <time name="total">  216.66  539.19</time>
   <energy>
    <i name="e_fr_energy">   -294.82717761 </i>
    <i name="e_wo_entrp">   -294.82717761 </i>
    <i name="e_0_energy">   -294.82717761 </i>
   </energy>
  </scstep>
  <scstep>
   <time name="dav">  209.73  524.56</time>
   <time name="total">  216.74  542.18</time>
   <energy>
    <i name="e_fr_energy">   -294.82717763 </i>
    <i name="e_wo_entrp">   -294.82717763 </i>
    <i name="e_0_energy">   -294.82717763 </i>
   </energy>
  </scstep>
  <scstep>
   <time name="dav">  206.83  519.42</time>
   <time name="total">  213.96  537.29</time>
   <energy>
    <i name="e_fr_energy">   -294.82717761 </i>
    <i name="e_wo_entrp">   -294.82717761 </i>
    <i name="e_0_energy">   -294.82717761 </i>
   </energy>
  </scstep>
  <scstep>
   <time name="dav">  208.01  514.99</time>
   <time name="total">  215.25  533.15</time>
   <energy>
    <i name="e_fr_energy">   -294.82717765 </i>
    <i name="e_wo_entrp">   -294.82717765 </i>
    <i name="e_0_energy">   -294.82717765 </i>
   </energy>
  </scstep>
  <scstep>
   <time name="dav">  208.21  519.93</time>
   <time name="total">  209.26  522.73</time>
   <energy>
    <i name="alphaZ">    295.69007636 </i>
    <i name="ewald">  -3694.38448117 </i>
    <i name="hartreedc">  -1460.06383046 </i>
    <i name="XCdc">    461.16422562 </i>
    <i name="pawpsdc">   2222.81929721 </i>
    <i name="pawaedc">  -2264.03729775 </i>
    <i name="eentropy">      0.00000000 </i>
    <i name="bandstr">   -564.95671788 </i>
    <i name="atom">   4708.94155045 </i>
    <i name="e_fr_energy">   -294.82717764 </i>
    <i name="e_wo_entrp">   -294.82717764 </i>
    <i name="e_0_energy">   -294.82717764 </i>
   </energy>
  </scstep>
  <structure>
   <crystal>
    <varray name="basis" >
     <v>       4.93287450      -0.00191929       0.00000000 </v>
     <v>      -2.46809940       4.27103499       0.00000000 </v>
     <v>       0.00000000       0.00000000      13.39613647 </v>
    </varray>
    <i name="volume">    282.17277010 </i>
    <varray name="rec_basis" >
     <v>       0.20276715       0.11717288       0.00000000 </v>
     <v>       0.00009112       0.23418794       0.00000000 </v>
     <v>       0.00000000       0.00000000       0.07464839 </v>
    </varray>
   </crystal>
   <varray name="positions" >
    <v>       0.49967330       0.00032672       0.12500000 </v>
    <v>       0.99967330       0.00032672       0.12500000 </v>
    <v>       0.49967330       0.50032672       0.12500000 </v>
    <v>       0.99967330       0.50032672       0.12500000 </v>
    <v>       0.49967330       0.00032672       0.62500000 </v>
    <v>       0.99967330       0.00032672       0.62500000 </v>
    <v>       0.49967330       0.50032672       0.62500000 </v>
    <v>       0.99967330       0.50032672       0.62500000 </v>
    <v>       0.00032672       0.49967330       0.37500000 </v>
    <v>       0.50032672       0.49967330       0.37500000 </v>
    <v>       0.00032672       0.99967330       0.37500000 </v>
    <v>       0.50032672       0.99967330       0.37500000 </v>
    <v>       0.00032672       0.49967330       0.87500000 </v>
    <v>       0.50032672       0.49967330       0.87500000 </v>
    <v>       0.00032672       0.99967330       0.87500000 </v>
    <v>       0.50032672       0.99967330       0.87500000 </v>
    <v>       0.16699296       0.33370753       0.12570050 </v>
    <v>       0.66629246       0.33370753       0.12500000 </v>
    <v>       0.16629246       0.83370753       0.12500000 </v>
    <v>       0.66629246       0.83370753       0.12500000 </v>
    <v>       0.16629246       0.33370753       0.62500000 </v>
    <v>       0.66629246       0.33370753       0.62500000 </v>
    <v>       0.16629246       0.83370753       0.62500000 </v>
    <v>       0.66629246       0.83370753       0.62500000 </v>
    <v>       0.33370753       0.16629246       0.37500000 </v>
    <v>       0.83370753       0.16629246       0.37500000 </v>
    <v>       0.33370753       0.66629246       0.37500000 </v>
    <v>       0.83370753       0.66629246       0.37500000 </v>
    <v>       0.33370753       0.16629246       0.87500000 </v>
    <v>       0.83370753       0.16629246       0.87500000 </v>
    <v>       0.33370753       0.66629246       0.87500000 </v>
    <v>       0.83370753       0.66629246       0.87500000 </v>
   </varray>
  </structure>
  <varray name="forces" >
   <v>      -0.01853030       0.00749461       0.00801235 </v>
   <v>       0.00886855       0.00799949       0.04294500 </v>
   <v>       0.05478178       0.03395624       0.04252518 </v>
   <v>       0.05425873      -0.01866711       0.04328163 </v>
   <v>      -0.01154241       0.00780477      -0.00448575 </v>
   <v>      -0.01154181       0.00780557      -0.00446799 </v>
   <v>      -0.01154089       0.00780581      -0.00447190 </v>
   <v>      -0.01154014       0.00780369      -0.00446095 </v>
   <v>       0.01371007      -0.00927134       0.00488725 </v>
   <v>       0.01385745      -0.00920538       0.00506582 </v>
   <v>       0.01373219      -0.00930558       0.00497395 </v>
   <v>       0.01386039      -0.00925578       0.00423203 </v>
   <v>       0.01312780      -0.00652633       0.00506577 </v>
   <v>       0.01299779      -0.00636602       0.00483641 </v>
   <v>       0.01292941      -0.00639306       0.00493856 </v>
   <v>       0.01314405      -0.00643869       0.00421238 </v>
   <v>      -0.19744905      -0.00712480      -0.13546101 </v>
   <v>       0.05424892      -0.00617324      -0.00682223 </v>
   <v>       0.01807155      -0.02707397      -0.00688819 </v>
   <v>       0.01817941       0.01475733      -0.00685602 </v>
   <v>       0.00921750      -0.00647140       0.00077094 </v>
   <v>       0.00921262      -0.00647091       0.00058001 </v>
   <v>       0.00921538      -0.00647001       0.00058003 </v>
   <v>       0.00921538      -0.00647370       0.00058146 </v>
   <v>      -0.01230682       0.00809579      -0.00038433 </v>
   <v>      -0.01196158       0.00807907      -0.00031887 </v>
   <v>      -0.01211544       0.00780231      -0.00038524 </v>
   <v>      -0.01213562       0.00797673      -0.00068561 </v>
   <v>      -0.01030942       0.00498386      -0.00026079 </v>
   <v>      -0.01065746       0.00496184      -0.00044776 </v>
   <v>      -0.01045998       0.00526998      -0.00039219 </v>
   <v>      -0.01053806       0.00509025      -0.00069990 </v>
  </varray>
  <varray name="stress" >
   <v>      -3.27140718       2.80923619       0.11059666 </v>
   <v>       2.80923620      -0.14793046      -0.05209685 </v>
   <v>       0.11059666      -0.05209682      -0.63942757 </v>
  </varray>
  <energy>
   <i name="e_fr_energy">   -299.84014161 </i>
   <i name="e_wo_entrp">   -299.84014161 </i>
   <i name="e_0_energy">      0.00000000 </i>
  </energy>
  <time name="totalsc">10198.5425466.59</time>
  <eigenvalues>
   <array>
    <dimension dim="1">band</dimension>
    <dimension dim="2">kpoint</dimension>
    <dimension dim="3">spin</dimension>
    <field>eigene</field>
    <field>occ</field>
    <set>
     <set comment="spin 1">
      <set comment="kpoint 1">
       <r>  -14.9414    1.0000 </r>
       <r>  -14.7947    1.0000 </r>
       <r>  -14.7941    1.0000 </r>
       <r>  -14.6371    1.0000 </r>
       <r>   -9.6191    1.0000 </r>
       <r>   -9.6088    1.0000 </r>
       <r>   -9.6058    1.0000 </r>
       <r>   -9.5584    1.0000 </r>
       <r>   -9.5568    1.0000 </r>
       <r>   -9.5466    1.0000 </r>
       <r>   -9.5452    1.0000 </r>
       <r>   -9.5452    1.0000 </r>
       <r>   -9.5411    1.0000 </r>
       <r>   -9.5067    1.0000 </r>
       <r>   -9.4938    1.0000 </r>
       <r>   -9.4913    1.0000 </r>
       <r>   -8.5403    1.0000 </r>
       <r>   -8.5390    1.0000 </r>
       <r>   -8.5379    1.0000 </r>
       <r>   -8.5087    1.0000 </r>
       <r>   -8.5079    1.0000 </r>
       <r>   -8.5057    1.0000 </r>
       <r>   -8.5053    1.0000 </r>
       <r>   -8.5052    1.0000 </r>
       <r>   -8.5027    1.0000 </r>
       <r>   -8.4545    1.0000 </r>
       <r>   -8.4536    1.0000 </r>
       <r>   -8.4511    1.0000 </r>
       <r>   -3.8173    1.0000 </r>
       <r>   -2.9241    1.0000 </r>
       <r>   -2.9223    1.0000 </r>
       <r>   -1.8348    1.0000 </r>
       <r>   -1.7143    1.0000 </r>
       <r>   -1.7120    1.0000 </r>
       <r>   -1.6963    1.0000 </r>
       <r>   -1.6867    1.0000 </r>
       <r>   -1.6858    1.0000 </r>
       <r>   -1.6858    1.0000 </r>
       <r>   -1.6818    1.0000 </r>
       <r>   -1.6691    1.0000 </r>
       <r>   -1.6671    1.0000 </r>
       <r>   -1.6579    1.0000 </r>
       <r>   -1.6551    1.0000 </r>
       <r>   -1.6398    1.0000 </r>
       <r>    1.6826    1.0000 </r>
       <r>    1.6901    1.0000 </r>
       <r>    1.6909    1.0000 </r>
       <r>    1.6962    1.0000 </r>
       <r>    1.7021    1.0000 </r>
       <r>    1.7071    1.0000 </r>
       <r>    1.7082    1.0000 </r>
       <r>    1.7151    1.0000 </r>
       <r>    1.9237    1.0000 </r>
       <r>    1.9266    1.0000 </r>
       <r>    1.9286    1.0000 </r>
       <r>    2.3298    1.0000 </r>
       <r>    2.3323    1.0000 </r>
       <r>    2.3396    1.0000 </r>
       <r>    2.3399    1.0000 </r>
       <r>    2.3400    1.0000 </r>
       <r>    2.3440    1.0000 </r>
       <r>    2.6058    1.0000 </r>
       <r>    2.6238    1.0000 </r>
       <r>    2.6255    1.0000 </r>
       <r>    6.2042    0.0000 </r>
       <r>    6.2063    0.0000 </r>
       <r>    6.2125    0.0000 </r>
       <r>    6.3424    0.0000 </r>
       <r>    6.3454    0.0000 </r>
       <r>    6.3476    0.0000 </r>
       <r>    6.3498    0.0000 </r>
       <r>    6.3502    0.0000 </r>
       <r>    6.3538    0.0000 </r>
       <r>    6.8777    0.0000 </r>
       <r>    6.8842    0.0000 </r>
       <r>    6.8875    0.0000 </r>
       <r>    9.0110    0.0000 </r>
       <r>   11.6602    0.0000 </r>
       <r>   11.6633    0.0000 </r>
       <r>   11.8861    0.0000 </r>
       <r>   11.8900    0.0000 </r>
       <r>   11.9217    0.0000 </r>
       <r>   12.0811    0.0000 </r>
       <r>   12.0856    0.0000 </r>
      </set>
      <set comment="kpoint 2">
       <r>  -14.7757    1.0000 </r>
       <r>  -14.6304    1.0000 </r>
       <r>  -14.6299    1.0000 </r>
       <r>  -14.4745    1.0000 </r>
       <r>  -10.9205    1.0000 </r>
       <r>  -10.8090    1.0000 </r>
       <r>  -10.8085    1.0000 </r>
       <r>  -10.6916    1.0000 </r>
       <r>  -10.0482    1.0000 </r>
       <r>  -10.0409    1.0000 </r>
       <r>   -9.9502    1.0000 </r>
       <r>   -9.9496    1.0000 </r>
       <r>   -9.9426    1.0000 </r>
       <r>   -9.9416    1.0000 </r>
       <r>   -9.8483    1.0000 </r>
       <r>   -9.8403    1.0000 </r>
       <r>   -7.9238    1.0000 </r>
       <r>   -7.9179    1.0000 </r>
       <r>   -7.8464    1.0000 </r>
       <r>   -7.8443    1.0000 </r>
       <r>   -7.8394    1.0000 </r>
       <r>   -7.8385    1.0000 </r>
       <r>   -7.7610    1.0000 </r>
       <r>   -7.7547    1.0000 </r>
       <r>   -7.0801    1.0000 </r>
       <r>   -7.0000    1.0000 </r>
       <r>   -6.9986    1.0000 </r>
       <r>   -6.9150    1.0000 </r>
       <r>   -3.6162    1.0000 </r>
       <r>   -2.7285    1.0000 </r>
       <r>   -2.7267    1.0000 </r>
       <r>   -2.2060    1.0000 </r>
       <r>   -2.1893    1.0000 </r>
       <r>   -2.1715    1.0000 </r>
       <r>   -2.1712    1.0000 </r>
       <r>   -2.1554    1.0000 </r>
       <r>   -2.1535    1.0000 </r>
       <r>   -2.1359    1.0000 </r>
       <r>   -2.1192    1.0000 </r>
       <r>   -1.6469    1.0000 </r>
       <r>   -1.5498    1.0000 </r>
       <r>   -1.5235    1.0000 </r>
       <r>   -1.5205    1.0000 </r>
       <r>   -1.4939    1.0000 </r>
       <r>    0.8350    1.0000 </r>
       <r>    1.0310    1.0000 </r>
       <r>    1.0471    1.0000 </r>
       <r>    1.0512    1.0000 </r>
       <r>    1.0668    1.0000 </r>
       <r>    1.3437    1.0000 </r>
       <r>    1.3563    1.0000 </r>
       <r>    1.3610    1.0000 </r>
       <r>    1.3746    1.0000 </r>
       <r>    1.4924    1.0000 </r>
       <r>    1.4946    1.0000 </r>
       <r>    1.6964    1.0000 </r>
       <r>    1.7009    1.0000 </r>
       <r>    2.2050    1.0000 </r>
       <r>    2.2223    1.0000 </r>
       <r>    2.2248    1.0000 </r>
       <r>    2.2309    1.0000 </r>
       <r>    2.2319    1.0000 </r>
       <r>    2.6995    1.0000 </r>
       <r>    2.7130    1.0000 </r>
       <r>    6.3804    0.0000 </r>
       <r>    6.3831    0.0000 </r>
       <r>    6.6245    0.0000 </r>
       <r>    6.6280    0.0000 </r>
       <r>    6.6301    0.0000 </r>
       <r>    6.6340    0.0000 </r>
       <r>    7.0549    0.0000 </r>
       <r>    7.1567    0.0000 </r>
       <r>    7.1635    0.0000 </r>
       <r>    7.4483    0.0000 </r>
       <r>    7.4522    0.0000 </r>
       <r>    8.0520    0.0000 </r>
       <r>    9.2108    0.0000 </r>
       <r>   11.8314    0.0000 </r>
       <r>   11.8345    0.0000 </r>
       <r>   11.9792    0.0000 </r>
       <r>   12.1675    0.0000 </r>
       <r>   12.1690    0.0000 </r>
       <r>   12.3576    0.0000 </r>
       <r>   12.6193    0.0000 </r>
      </set>
      <set comment="kpoint 3">
       <r>  -14.2805    1.0000 </r>
       <r>  -14.1394    1.0000 </r>
       <r>  -14.1389    1.0000 </r>
       <r>  -13.9883    1.0000 </r>
       <r>  -12.3315    1.0000 </r>
       <r>  -12.2069    1.0000 </r>
       <r>  -12.2064    1.0000 </r>
       <r>  -12.0747    1.0000 </r>
       <r>  -10.4712    1.0000 </r>
       <r>  -10.4675    1.0000 </r>
       <r>  -10.3643    1.0000 </r>
       <r>  -10.3637    1.0000 </r>
       <r>  -10.3605    1.0000 </r>
       <r>  -10.3593    1.0000 </r>
       <r>  -10.2514    1.0000 </r>
       <r>  -10.2476    1.0000 </r>
       <r>   -6.7500    1.0000 </r>
       <r>   -6.7410    1.0000 </r>
       <r>   -6.6778    1.0000 </r>
       <r>   -6.6756    1.0000 </r>
       <r>   -6.6681    1.0000 </r>
       <r>   -6.6670    1.0000 </r>
       <r>   -6.6004    1.0000 </r>
       <r>   -6.5915    1.0000 </r>
       <r>   -4.9637    1.0000 </r>
       <r>   -4.8976    1.0000 </r>
       <r>   -4.8960    1.0000 </r>
       <r>   -4.8278    1.0000 </r>
       <r>   -3.3638    1.0000 </r>
       <r>   -3.3497    1.0000 </r>
       <r>   -3.3186    1.0000 </r>
       <r>   -3.3183    1.0000 </r>
       <r>   -3.3052    1.0000 </r>
       <r>   -3.3032    1.0000 </r>
       <r>   -3.2714    1.0000 </r>
       <r>   -3.2572    1.0000 </r>
       <r>   -3.0172    1.0000 </r>
       <r>   -2.1469    1.0000 </r>
       <r>   -2.1451    1.0000 </r>
       <r>   -1.0898    1.0000 </r>
       <r>   -1.0757    1.0000 </r>
       <r>   -1.0506    1.0000 </r>
       <r>   -1.0474    1.0000 </r>
       <r>   -1.0220    1.0000 </r>
       <r>   -0.7118    1.0000 </r>
       <r>   -0.6231    1.0000 </r>
       <r>   -0.5918    1.0000 </r>
       <r>   -0.5887    1.0000 </r>
       <r>   -0.5573    1.0000 </r>
       <r>    0.0692    1.0000 </r>
       <r>    0.0710    1.0000 </r>
       <r>    0.5443    1.0000 </r>
       <r>    0.5631    1.0000 </r>
       <r>    0.5674    1.0000 </r>
       <r>    0.5865    1.0000 </r>
       <r>    0.9910    1.0000 </r>
       <r>    1.3905    1.0000 </r>
       <r>    1.3939    1.0000 </r>
       <r>    2.0337    1.0000 </r>
       <r>    2.0363    1.0000 </r>
       <r>    2.0394    1.0000 </r>
       <r>    2.0404    1.0000 </r>
       <r>    2.7353    1.0000 </r>
       <r>    2.7421    1.0000 </r>
       <r>    6.8752    0.0000 </r>
       <r>    6.8782    0.0000 </r>
       <r>    7.2014    0.0000 </r>
       <r>    7.2038    0.0000 </r>
       <r>    7.2061    0.0000 </r>
       <r>    7.2096    0.0000 </r>
       <r>    7.6270    0.0000 </r>
       <r>    7.6304    0.0000 </r>
[...]
       <r>   -4.1998    1.0000 </r>
       <r>   -4.1998    1.0000 </r>
       <r>   -4.1983    1.0000 </r>
       <r>   -4.1950    1.0000 </r>
       <r>   -2.7383    1.0000 </r>
       <r>   -2.7380    1.0000 </r>
       <r>   -2.7380    1.0000 </r>
       <r>   -2.7326    1.0000 </r>
       <r>   -2.6668    1.0000 </r>
       <r>   -2.6665    1.0000 </r>
       <r>   -2.6665    1.0000 </r>
       <r>   -2.6600    1.0000 </r>
       <r>   -1.8075    1.0000 </r>
       <r>   -1.8049    1.0000 </r>
       <r>   -1.8048    1.0000 </r>
       <r>   -1.8025    1.0000 </r>
       <r>   -0.5136    1.0000 </r>
       <r>   -0.5106    1.0000 </r>
       <r>   -0.5104    1.0000 </r>
       <r>   -0.5080    1.0000 </r>
       <r>   -0.3277    1.0000 </r>
       <r>   -0.3180    1.0000 </r>
       <r>   -0.3179    1.0000 </r>
       <r>   -0.3164    1.0000 </r>
       <r>   -0.2898    1.0000 </r>
       <r>   -0.2835    1.0000 </r>
       <r>   -0.2835    1.0000 </r>
       <r>   -0.2817    1.0000 </r>
       <r>    1.4682    1.0000 </r>
       <r>    1.4692    1.0000 </r>
       <r>    1.4693    1.0000 </r>
       <r>    1.4725    1.0000 </r>
       <r>    2.4915    1.0000 </r>
       <r>    2.4925    1.0000 </r>
       <r>    2.4927    1.0000 </r>
       <r>    2.4964    1.0000 </r>
       <r>    7.2906    0.0000 </r>
       <r>    7.2957    0.0000 </r>
       <r>    7.2957    0.0000 </r>
       <r>    7.2960    0.0000 </r>
       <r>    7.7133    0.0000 </r>
       <r>    7.7179    0.0000 </r>
       <r>    7.7179    0.0000 </r>
       <r>    7.7185    0.0000 </r>
       <r>   11.3771    0.0000 </r>
       <r>   11.3870    0.0000 </r>
       <r>   11.3879    0.0000 </r>
       <r>   11.3971    0.0000 </r>
       <r>   11.7961    0.0000 </r>
       <r>   11.8035    0.0000 </r>
       <r>   11.8059    0.0000 </r>
       <r>   11.8145    0.0000 </r>
       <r>   12.1418    0.0000 </r>
       <r>   12.1432    0.0000 </r>
       <r>   12.1441    0.0000 </r>
       <r>   12.1500    0.0000 </r>
      </set>
     </set>
    </set>
   </array>
  </eigenvalues>
  <separator name="orbital magnetization" >
   <v name="MAGDIPOLOUT">      0.00000000      0.00000000      0.00000000</v>
  </separator>
  <dos>
   <i name="efermi">      4.68510919 </i>
   <total>
    <array>
     <dimension dim="1">gridpoints</dimension>
     <dimension dim="2">spin</dimension>
     <field>energy</field>
     <field>total</field>
     <field>integrated</field>
     <set>
      <set comment="spin 1">
       <r>   -16.9414     0.0000     0.0000 </r>
       <r>   -16.8326     0.0000     0.0000 </r>
       <r>   -16.7238     0.0000     0.0000 </r>
       <r>   -16.6151     0.0000     0.0000 </r>
       <r>   -16.5063     0.0000     0.0000 </r>
       <r>   -16.3975     0.0000     0.0000 </r>
       <r>   -16.2887     0.0000     0.0000 </r>
       <r>   -16.1800     0.0000     0.0000 </r>
       <r>   -16.0712     0.0000     0.0000 </r>
       <r>   -15.9624     0.0000     0.0000 </r>
       <r>   -15.8537     0.0000     0.0000 </r>
       <r>   -15.7449     0.0000     0.0000 </r>
       <r>   -15.6361     0.0000     0.0000 </r>
       <r>   -15.5273     0.0000     0.0000 </r>
       <r>   -15.4186     0.0000     0.0000 </r>
       <r>   -15.3098     0.0000     0.0000 </r>
       <r>   -15.2010     0.0000     0.0000 </r>
       <r>   -15.0922     0.0000     0.0000 </r>
       <r>   -14.9835     0.0000     0.0000 </r>
       <r>   -14.8747     0.6570     0.0170 </r>
       <r>   -14.7659     2.5223     0.2022 </r>
       <r>   -14.6571     3.4256     0.5154 </r>
       <r>   -14.5484     5.0030     0.9814 </r>
       <r>   -14.4396     4.8485     1.5257 </r>
       <r>   -14.3308     5.0127     2.0650 </r>
       <r>   -14.2220     4.9845     2.6086 </r>
       <r>   -14.1133     4.8856     3.1472 </r>
       <r>   -14.0045     4.8623     3.6750 </r>
       <r>   -13.8957     5.1114     4.2169 </r>
       <r>   -13.7869     5.4945     4.7872 </r>
       <r>   -13.6782     7.2787     5.5185 </r>
       <r>   -13.5694     7.3839     6.3190 </r>
       <r>   -13.4606     5.8529     7.1253 </r>
       <r>   -13.3518     2.3599     7.5280 </r>
       <r>   -13.2431     1.8493     7.7490 </r>
       <r>   -13.1343     2.0751     7.9568 </r>
       <r>   -13.0255     2.4770     8.2044 </r>
       <r>   -12.9167     3.2201     8.5010 </r>
       <r>   -12.8080    10.4405     9.2814 </r>
       <r>   -12.6992     8.1809    10.1585 </r>
       <r>   -12.5904     6.7846    11.0108 </r>
       <r>   -12.4816     4.0421    11.5168 </r>
       <r>   -12.3729     4.1526    11.9625 </r>
       <r>   -12.2641     4.2806    12.4207 </r>
       <r>   -12.1553     4.4360    12.8947 </r>
       <r>   -12.0466     4.5811    13.3854 </r>
       <r>   -11.9378     4.7115    13.8908 </r>
       <r>   -11.8290     5.0809    14.4150 </r>
       <r>   -11.7202     5.5228    14.9922 </r>
       <r>   -11.6115     6.4092    15.6220 </r>
       <r>   -11.5027     5.9857    16.2992 </r>
       <r>   -11.3939     5.6189    16.9291 </r>
       <r>   -11.2851     5.5145    17.5303 </r>
       <r>   -11.1764     5.6809    18.1392 </r>
       <r>   -11.0676     5.8476    18.7662 </r>
       <r>   -10.9588     6.0143    19.4114 </r>
       <r>   -10.8500     5.7441    20.0543 </r>
       <r>   -10.7413     5.5882    20.6707 </r>
       <r>   -10.6325     5.4847    21.2691 </r>
       <r>   -10.5237     4.7792    21.8414 </r>
       <r>   -10.4149     3.8326    22.2947 </r>
       <r>   -10.3062     4.6212    22.7503 </r>
       <r>   -10.1974     4.9953    23.2792 </r>
       <r>   -10.0886     5.1822    23.8327 </r>
       <r>    -9.9798     6.7314    24.4619 </r>
       <r>    -9.8711     9.4186    25.3212 </r>
       <r>    -9.7623    10.0454    26.4882 </r>
       <r>    -9.6535     7.7121    27.4539 </r>
       <r>    -9.5447     5.4997    28.1683 </r>
       <r>    -9.4360     4.5984    28.7031 </r>
       <r>    -9.3272     4.1156    29.1770 </r>
       <r>    -9.2184     3.6327    29.5984 </r>
       <r>    -9.1096     5.2932    30.2458 </r>
       <r>    -9.0009     3.8627    30.8289 </r>
       <r>    -8.8921     1.8926    31.0570 </r>
       <r>    -8.7833     1.6857    31.2516 </r>
       <r>    -8.6745     1.4789    31.4237 </r>
       <r>    -8.5658     1.2720    31.5733 </r>
       <r>    -8.4570     1.4429    31.7133 </r>
       <r>    -8.3482     1.9428    31.8974 </r>
       <r>    -8.2394     2.4429    32.1360 </r>
       <r>    -8.1307     2.9777    32.4290 </r>
       <r>    -8.0219     6.9142    32.9295 </r>
       <r>    -7.9131     9.7178    33.9567 </r>
       <r>    -7.8044     5.0612    34.6524 </r>
       <r>    -7.6956     5.4635    35.2054 </r>
       <r>    -7.5868     6.6391    35.8636 </r>
       <r>    -7.4780     7.8147    36.6497 </r>
       <r>    -7.3693     8.9902    37.5637 </r>
       <r>    -7.2605     8.7553    38.5868 </r>
       <r>    -7.1517     5.6285    39.3965 </r>
       <r>    -7.0429     5.5827    40.0048 </r>
       <r>    -6.9342     5.5808    40.6113 </r>
       <r>    -6.8254     5.4969    41.2168 </r>
       <r>    -6.7166     5.3385    41.8063 </r>
       <r>    -6.6078     5.1548    42.3767 </r>
       <r>    -6.4991     5.0343    42.9307 </r>
       <r>    -6.3903     4.9157    43.4719 </r>
       <r>    -6.2815     4.7970    44.0001 </r>
       <r>    -6.1727     4.6784    44.5155 </r>
       <r>    -6.0640     4.5598    45.0179 </r>
       <r>    -5.9552     4.4409    45.5075 </r>
       <r>    -5.8464     4.3480    45.9843 </r>
       <r>    -5.7376     4.9074    46.4831 </r>
       <r>    -5.6289     5.5015    47.0492 </r>
       <r>    -5.5201     6.0956    47.6800 </r>
       <r>    -5.4113     6.6898    48.3753 </r>
       <r>    -5.3025     7.2839    49.1353 </r>
       <r>    -5.1938     7.8781    49.9599 </r>
       <r>    -5.0850     8.4723    50.8492 </r>
       <r>    -4.9762     9.0079    51.8030 </r>
       <r>    -4.8674     3.8951    52.4675 </r>
       <r>    -4.7587     6.1889    52.9961 </r>
       <r>    -4.6499     6.7083    53.7475 </r>
       <r>    -4.5411     5.2298    54.3968 </r>
       <r>    -4.4323     3.7512    54.8853 </r>
       <r>    -4.3236     2.2724    55.2129 </r>
       <r>    -4.2148     1.0676    55.3829 </r>
       <r>    -4.1060     2.3761    55.5610 </r>
       <r>    -3.9973     3.8921    55.9019 </r>
       <r>    -3.8885     5.4079    56.4077 </r>
       <r>    -3.7797     8.8894    57.1440 </r>
       <r>    -3.6709    11.8596    58.3263 </r>
       <r>    -3.5622    13.1723    59.6518 </r>
       <r>    -3.4534    11.7406    61.0603 </r>
       <r>    -3.3446     5.2276    62.0216 </r>
       <r>    -3.2358     5.0667    62.5296 </r>
       <r>    -3.1271     6.2667    63.1563 </r>
       <r>    -3.0183     7.1869    63.8826 </r>
       <r>    -2.9095    12.3354    64.9264 </r>
       <r>    -2.8007    18.1562    66.5814 </r>
       <r>    -2.6920     7.7602    68.8203 </r>
       <r>    -2.5832     6.9624    69.5621 </r>
       <r>    -2.4744     7.1902    70.3322 </r>
       <r>    -2.3656     7.7514    71.1389 </r>
       <r>    -2.2569     8.4710    72.0167 </r>
       <r>    -2.1481    13.1768    73.0916 </r>
       <r>    -2.0393    14.3115    74.7881 </r>
       <r>    -1.9305    11.1857    76.1676 </r>
       <r>    -1.8218    10.8014    77.3049 </r>
       <r>    -1.7130    39.3798    79.4108 </r>
       <r>    -1.6042    17.4207    82.0957 </r>
       <r>    -1.4954    14.7629    84.1524 </r>
       <r>    -1.3867    14.2898    85.6802 </r>
       <r>    -1.2779    17.3862    87.3601 </r>
       <r>    -1.1691    10.8885    89.0975 </r>
       <r>    -1.0603     6.9647    90.0611 </r>
       <r>    -0.9516     6.7735    90.7628 </r>
       <r>    -0.8428     7.7727    91.5575 </r>
       <r>    -0.7340     8.7148    92.4503 </r>
       <r>    -0.6252    10.0137    93.4645 </r>
       <r>    -0.5165    11.1060    94.6340 </r>
       <r>    -0.4077    11.0658    95.8302 </r>
       <r>    -0.2989    30.0973    97.4391 </r>
       <r>    -0.1902    12.3964    98.8209 </r>
       <r>    -0.0814    11.6348   100.2054 </r>
       <r>     0.0274    11.2195   101.4496 </r>
       <r>     0.1362     9.5275   102.5193 </r>
       <r>     0.2449     9.6922   103.5827 </r>
       <r>     0.3537     9.6630   104.6204 </r>
       <r>     0.4625     9.7222   105.6790 </r>
       <r>     0.5713     9.6018   106.7312 </r>
       <r>     0.6800     9.6354   107.7784 </r>
       <r>     0.7888     9.3362   108.8052 </r>
       <r>     0.8976     9.2034   109.8129 </r>
       <r>     1.0064     9.2137   110.8132 </r>
       <r>     1.1151     9.7138   111.8571 </r>
       <r>     1.2239     9.5225   112.9028 </r>
       <r>     1.3327     9.7894   113.9564 </r>
       <r>     1.4415    10.3481   115.0855 </r>
       <r>     1.5502     9.9953   116.2170 </r>
       <r>     1.6590     7.7435   117.1860 </r>
       <r>     1.7678     6.5619   117.9340 </r>
       <r>     1.8766     5.9640   118.6306 </r>
       <r>     1.9853     4.0917   119.1771 </r>
       <r>     2.0941     2.9754   119.5503 </r>
       <r>     2.2029     3.0690   119.8635 </r>
       <r>     2.3117     3.9141   120.2308 </r>
       <r>     2.4204     5.4245   120.7318 </r>
       <r>     2.5292     7.7949   121.4711 </r>
       <r>     2.6380     8.9169   122.3765 </r>
       <r>     2.7468     8.8561   123.3757 </r>
       <r>     2.8555     6.9447   124.2498 </r>
       <r>     2.9643     5.2897   124.9121 </r>
       <r>     3.0731     4.2272   125.4264 </r>
       <r>     3.1819     3.4969   125.8428 </r>
       <r>     3.2906     3.1155   126.2016 </r>
       <r>     3.3994     2.7403   126.5203 </r>
       <r>     3.5082     2.3785   126.7984 </r>
       <r>     3.6170     2.0691   127.0398 </r>
       <r>     3.7257     1.7855   127.2492 </r>
       <r>     3.8345     1.4911   127.4279 </r>
       <r>     3.9433     1.2567   127.5774 </r>
       <r>     4.0520     1.0221   127.7013 </r>
       <r>     4.1608     0.8093   127.8006 </r>
       <r>     4.2696     0.6179   127.8781 </r>
       <r>     4.3784     0.4396   127.9355 </r>
       <r>     4.4871     0.2725   127.9742 </r>
       <r>     4.5959     0.1153   127.9952 </r>
       <r>     4.7047     0.0086   128.0000 </r>
       <r>     4.8135     0.1254   128.0072 </r>
       <r>     4.9222     0.2529   128.0277 </r>
       <r>     5.0310     0.3919   128.0627 </r>
       <r>     5.1398     0.5448   128.1135 </r>
       <r>     5.2486     0.7133   128.1817 </r>
       <r>     5.3573     0.9057   128.2696 </r>
       <r>     5.4661     1.1425   128.3806 </r>
       <r>     5.5749     1.3905   128.5183 </r>
       <r>     5.6837     1.6391   128.6831 </r>
       <r>     5.7924     2.3058   128.8814 </r>
       <r>     5.9012     3.1290   129.1818 </r>
       <r>     6.0100     3.6729   129.5532 </r>
       <r>     6.1188     4.0632   129.9690 </r>
       <r>     6.2275     6.5199   130.5114 </r>
       <r>     6.3363    12.4173   131.5392 </r>
       <r>     6.4451    10.1998   132.8373 </r>
       <r>     6.5539     8.0420   133.8145 </r>
       <r>     6.6626     6.4470   134.5898 </r>
       <r>     6.7714     5.7618   135.2528 </r>
       <r>     6.8802     5.3145   135.8517 </r>
       <r>     6.9890     5.1321   136.4198 </r>
       <r>     7.0977     4.5142   136.9443 </r>
       <r>     7.2065     3.7857   137.3904 </r>
       <r>     7.3153     3.6280   137.7896 </r>
       <r>     7.4241     3.7857   138.1906 </r>
       <r>     7.5328     4.1922   138.6226 </r>
       <r>     7.6416     4.5965   139.1011 </r>
       <r>     7.7504     4.8765   139.6183 </r>
       <r>     7.8591     4.8006   140.1486 </r>
       <r>     7.9679     4.6148   140.6608 </r>
       <r>     8.0767     4.4632   141.1543 </r>
       <r>     8.1855     4.3069   141.6308 </r>
       <r>     8.2942     4.1967   142.0930 </r>
       <r>     8.4030     4.1151   142.5448 </r>
       <r>     8.5118     4.0494   142.9888 </r>
       <r>     8.6206     3.9907   143.4260 </r>
       <r>     8.7293     3.9432   143.8574 </r>
       <r>     8.8381     3.7220   144.2815 </r>
       <r>     8.9469     3.4667   144.6703 </r>
       <r>     9.0557     3.3702   145.0402 </r>
       <r>     9.1644     3.5122   145.4127 </r>
       <r>     9.2732     3.6975   145.8076 </r>
       <r>     9.3820     3.6744   146.2101 </r>
       <r>     9.4908     3.6405   146.6061 </r>
       <r>     9.5995     3.6973   147.0050 </r>
       <r>     9.7083     3.7503   147.4103 </r>
       <r>     9.8171     3.7736   147.8199 </r>
       <r>     9.9259     3.7529   148.2296 </r>
       <r>    10.0346     3.7241   148.6361 </r>
       <r>    10.1434     3.7151   149.0402 </r>
       <r>    10.2522     3.7224   149.4448 </r>
       <r>    10.3610     4.8200   149.8971 </r>
       <r>    10.4697     6.0017   150.4695 </r>
       <r>    10.5785     5.3703   151.0965 </r>
       <r>    10.6873     5.8000   151.7193 </r>
       <r>    10.7961     5.5677   152.3374 </r>
       <r>    10.9048     4.9973   152.9244 </r>
       <r>    11.0136     6.3441   153.4876 </r>
       <r>    11.1224     4.0879   154.0380 </r>
       <r>    11.2312     2.5963   154.3891 </r>
       <r>    11.3399     2.5093   154.6585 </r>
       <r>    11.4487     2.7451   154.9440 </r>
       <r>    11.5575     3.0401   155.2580 </r>
       <r>    11.6663     3.4268   155.6097 </r>
       <r>    11.7750     3.1690   155.9791 </r>
       <r>    11.8838     3.0829   156.2785 </r>
       <r>    11.9926     6.5460   156.7853 </r>
       <r>    12.1013     6.8170   157.5181 </r>
       <r>    12.2101     8.4293   158.3514 </r>
       <r>    12.3189    10.8347   159.3736 </r>
       <r>    12.4277    13.0801   160.6848 </r>
       <r>    12.5364    13.3488   162.1358 </r>
       <r>    12.6452    13.5400   163.5944 </r>
       <r>    12.7540    12.0374   165.0347 </r>
       <r>    12.8628    10.0057   166.2165 </r>
       <r>    12.9715    11.6528   167.3824 </r>
       <r>    13.0803     0.4417   167.9401 </r>
       <r>    13.1891     0.1962   167.9672 </r>
       <r>    13.2979     0.1203   167.9842 </r>
       <r>    13.4066     0.0629   167.9940 </r>
       <r>    13.5154     0.0240   167.9986 </r>
       <r>    13.6242     0.0035   167.9999 </r>
       <r>    13.7330     0.0000   168.0000 </r>
       <r>    13.8417     0.0000   168.0000 </r>
       <r>    13.9505     0.0000   168.0000 </r>
       <r>    14.0593     0.0000   168.0000 </r>
       <r>    14.1681     0.0000   168.0000 </r>
       <r>    14.2768     0.0000   168.0000 </r>
       <r>    14.3856     0.0000   168.0000 </r>
       <r>    14.4944     0.0000   168.0000 </r>
       <r>    14.6032     0.0000   168.0000 </r>
       <r>    14.7119     0.0000   168.0000 </r>
       <r>    14.8207     0.0000   168.0000 </r>
       <r>    14.9295     0.0000   168.0000 </r>
       <r>    15.0383     0.0000   168.0000 </r>
       <r>    15.1470     0.0000   168.0000 </r>
       <r>    15.2558     0.0000   168.0000 </r>
       <r>    15.3646     0.0000   168.0000 </r>
       <r>    15.4734     0.0000   168.0000 </r>
       <r>    15.5821     0.0000   168.0000 </r>
       <r>    15.6909     0.0000   168.0000 </r>
      </set>
     </set>
    </array>
   </total>
  </dos>
 </calculation>
 <structure name="finalpos" >
  <crystal>
   <varray name="basis" >
    <v>       4.93287450      -0.00191929       0.00000000 </v>
    <v>      -2.46809940       4.27103499       0.00000000 </v>
    <v>       0.00000000       0.00000000      13.39613647 </v>
   </varray>
   <i name="volume">    282.17277010 </i>
   <varray name="rec_basis" >
    <v>       0.20276715       0.11717288       0.00000000 </v>
    <v>       0.00009112       0.23418794       0.00000000 </v>
    <v>       0.00000000       0.00000000       0.07464839 </v>
   </varray>
  </crystal>
  <varray name="positions" >
   <v>       0.49967330       0.00032672       0.12500000 </v>
   <v>       0.99967330       0.00032672       0.12500000 </v>
   <v>       0.49967330       0.50032672       0.12500000 </v>
   <v>       0.99967330       0.50032672       0.12500000 </v>
   <v>       0.49967330       0.00032672       0.62500000 </v>
   <v>       0.99967330       0.00032672       0.62500000 </v>
   <v>       0.49967330       0.50032672       0.62500000 </v>
   <v>       0.99967330       0.50032672       0.62500000 </v>
   <v>       0.00032672       0.49967330       0.37500000 </v>
   <v>       0.50032672       0.49967330       0.37500000 </v>
   <v>       0.00032672       0.99967330       0.37500000 </v>
   <v>       0.50032672       0.99967330       0.37500000 </v>
   <v>       0.00032672       0.49967330       0.87500000 </v>
   <v>       0.50032672       0.49967330       0.87500000 </v>
   <v>       0.00032672       0.99967330       0.87500000 </v>
   <v>       0.50032672       0.99967330       0.87500000 </v>
   <v>       0.16699296       0.33370753       0.12570050 </v>
   <v>       0.66629246       0.33370753       0.12500000 </v>
   <v>       0.16629246       0.83370753       0.12500000 </v>
   <v>       0.66629246       0.83370753       0.12500000 </v>
   <v>       0.16629246       0.33370753       0.62500000 </v>
   <v>       0.66629246       0.33370753       0.62500000 </v>
   <v>       0.16629246       0.83370753       0.62500000 </v>
   <v>       0.66629246       0.83370753       0.62500000 </v>
   <v>       0.33370753       0.16629246       0.37500000 </v>
   <v>       0.83370753       0.16629246       0.37500000 </v>
   <v>       0.33370753       0.66629246       0.37500000 </v>
   <v>       0.83370753       0.66629246       0.37500000 </v>
   <v>       0.33370753       0.16629246       0.87500000 </v>
   <v>       0.83370753       0.16629246       0.87500000 </v>
   <v>       0.33370753       0.66629246       0.87500000 </v>
   <v>       0.83370753       0.66629246       0.87500000 </v>
  </varray>
 </structure>
</modeling>
