  48  48   0   0
  0.8081304E+01  0.6939728E-09  0.8841902E-09  0.6321710E-09  0.5000000E-15
  1.000000000000000E-004
  CAR 
 benzene                                 
     11.85757728    -18.04228357  301     -0.37644912      1.00000000
    -18.042  0.0000E+00  0.0000E+00
    -17.943  0.0000E+00  0.0000E+00
    -17.843  0.0000E+00  0.0000E+00
    -17.743  0.0000E+00  0.0000E+00
    -17.644  0.0000E+00  0.0000E+00
    -17.544  0.0000E+00  0.0000E+00
    -17.444  0.0000E+00  0.0000E+00
    -17.345  0.0000E+00  0.0000E+00
    -17.245  0.0000E+00  0.0000E+00
    -17.145  0.0000E+00  0.0000E+00
    -17.046  0.0000E+00  0.0000E+00
    -16.946  0.0000E+00  0.0000E+00
    -16.846  0.0000E+00  0.0000E+00
    -16.747  0.0000E+00  0.0000E+00
    -16.647  0.0000E+00  0.0000E+00
    -16.547  0.0000E+00  0.0000E+00
    -16.448  0.0000E+00  0.0000E+00
    -16.348  0.0000E+00  0.0000E+00
    -16.248  0.0000E+00  0.0000E+00
    -16.149  0.0000E+00  0.0000E+00
    -16.049  0.0000E+00  0.0000E+00
    -15.949  0.4001E-01  0.1774E-02
    -15.850  0.1345E+00  0.8866E-02
    -15.750  0.2964E+00  0.2785E-01
    -15.650  0.8689E-04  0.4000E-01
    -15.551  0.0000E+00  0.4000E-01
    -15.451  0.0000E+00  0.4000E-01
    -15.351  0.0000E+00  0.4000E-01
    -15.252  0.0000E+00  0.4000E-01
    -15.152  0.0000E+00  0.4000E-01
    -15.052  0.0000E+00  0.4000E-01
    -14.953  0.0000E+00  0.4000E-01
    -14.853  0.0000E+00  0.4000E-01
    -14.753  0.0000E+00  0.4000E-01
    -14.654  0.0000E+00  0.4000E-01
    -14.554  0.0000E+00  0.4000E-01
    -14.454  0.0000E+00  0.4000E-01
    -14.355  0.0000E+00  0.4000E-01
    -14.255  0.0000E+00  0.4000E-01
    -14.155  0.0000E+00  0.4000E-01
    -14.056  0.0000E+00  0.4000E-01
    -13.956  0.0000E+00  0.4000E-01
    -13.856  0.0000E+00  0.4000E-01
    -13.757  0.0000E+00  0.4000E-01
    -13.657  0.0000E+00  0.4000E-01
    -13.557  0.0000E+00  0.4000E-01
    -13.458  0.0000E+00  0.4000E-01
    -13.358  0.1134E-02  0.4001E-01
    -13.258  0.2735E-01  0.4128E-01
    -13.159  0.7537E-01  0.4567E-01
    -13.059  0.1250E+00  0.6417E-01
    -12.959  0.5420E-01  0.7978E-01
    -12.860  0.2370E+00  0.9977E-01
    -12.760  0.0000E+00  0.1200E+00
    -12.660  0.0000E+00  0.1200E+00
    -12.561  0.0000E+00  0.1200E+00
    -12.461  0.0000E+00  0.1200E+00
    -12.361  0.0000E+00  0.1200E+00
    -12.262  0.0000E+00  0.1200E+00
    -12.162  0.0000E+00  0.1200E+00
    -12.062  0.0000E+00  0.1200E+00
    -11.963  0.0000E+00  0.1200E+00
    -11.863  0.0000E+00  0.1200E+00
    -11.763  0.0000E+00  0.1200E+00
    -11.664  0.0000E+00  0.1200E+00
    -11.564  0.0000E+00  0.1200E+00
    -11.464  0.0000E+00  0.1200E+00
    -11.365  0.0000E+00  0.1200E+00
    -11.265  0.0000E+00  0.1200E+00
    -11.165  0.0000E+00  0.1200E+00
    -11.066  0.0000E+00  0.1200E+00
    -10.966  0.0000E+00  0.1200E+00
    -10.866  0.0000E+00  0.1200E+00
    -10.767  0.0000E+00  0.1200E+00
    -10.667  0.0000E+00  0.1200E+00
    -10.567  0.0000E+00  0.1200E+00
    -10.468  0.0000E+00  0.1200E+00
    -10.368  0.0000E+00  0.1200E+00
    -10.268  0.0000E+00  0.1200E+00
    -10.169  0.0000E+00  0.1200E+00
    -10.069  0.0000E+00  0.1200E+00
     -9.969  0.0000E+00  0.1200E+00
     -9.870  0.0000E+00  0.1200E+00
     -9.770  0.0000E+00  0.1200E+00
     -9.670  0.0000E+00  0.1200E+00
     -9.571  0.1226E+00  0.1220E+00
     -9.471  0.2450E+00  0.1420E+00
     -9.371  0.5470E-01  0.1596E+00
     -9.272  0.2555E+00  0.1733E+00
     -9.172  0.1372E+00  0.1888E+00
     -9.072  0.3813E-01  0.1975E+00
     -8.973  0.8731E-02  0.1998E+00
     -8.873  0.0000E+00  0.2000E+00
     -8.773  0.0000E+00  0.2000E+00
     -8.674  0.0000E+00  0.2000E+00
     -8.574  0.0000E+00  0.2000E+00
     -8.474  0.0000E+00  0.2000E+00
     -8.375  0.0000E+00  0.2000E+00
     -8.275  0.0000E+00  0.2000E+00
     -8.175  0.0000E+00  0.2000E+00
     -8.076  0.0000E+00  0.2000E+00
     -7.976  0.3723E-02  0.2000E+00
     -7.876  0.2108E-01  0.2014E+00
     -7.777  0.2518E-01  0.2036E+00
     -7.677  0.3323E-01  0.2065E+00
     -7.577  0.4621E-01  0.2104E+00
     -7.478  0.6949E-01  0.2170E+00
     -7.378  0.1055E+00  0.2238E+00
     -7.278  0.5294E-01  0.2317E+00
     -7.179  0.3138E-01  0.2358E+00
     -7.079  0.1739E-01  0.2381E+00
     -6.979  0.8624E-02  0.2394E+00
     -6.880  0.2080E-02  0.2399E+00
     -6.780  0.0000E+00  0.2400E+00
     -6.680  0.0000E+00  0.2400E+00
     -6.581  0.0000E+00  0.2400E+00
     -6.481  0.0000E+00  0.2400E+00
     -6.381  0.0000E+00  0.2400E+00
     -6.282  0.2453E-03  0.2400E+00
     -6.182  0.7396E-02  0.2403E+00
     -6.082  0.1916E-01  0.2417E+00
     -5.983  0.3343E-01  0.2442E+00
     -5.883  0.8514E-01  0.2495E+00
     -5.783  0.5878E-01  0.2599E+00
     -5.684  0.8487E-01  0.2659E+00
     -5.584  0.6483E-01  0.2741E+00
     -5.484  0.6456E-01  0.2802E+00
     -5.385  0.5928E+00  0.3029E+00
     -5.285  0.3865E-02  0.3201E+00
     -5.185  0.2745E-01  0.3212E+00
     -5.086  0.1706E+00  0.3346E+00
     -4.986  0.1036E+00  0.3469E+00
     -4.886  0.4817E-01  0.3549E+00
     -4.787  0.2479E-01  0.3583E+00
     -4.687  0.2277E-01  0.3602E+00
     -4.587  0.1193E+00  0.3683E+00
     -4.488  0.9476E-01  0.3793E+00
     -4.388  0.1324E+00  0.3912E+00
     -4.288  0.1578E-01  0.3995E+00
     -4.189  0.6779E-04  0.4000E+00
     -4.089  0.0000E+00  0.4000E+00
     -3.989  0.0000E+00  0.4000E+00
     -3.890  0.6137E-03  0.4000E+00
     -3.790  0.2862E-01  0.4014E+00
     -3.690  0.5534E-01  0.4056E+00
     -3.591  0.1029E+00  0.4127E+00
     -3.491  0.7005E-01  0.4206E+00
     -3.391  0.1246E+00  0.4305E+00
     -3.292  0.3889E-01  0.4386E+00
     -3.192  0.1153E-02  0.4400E+00
     -3.092  0.1091E-02  0.4400E+00
     -2.993  0.1567E-01  0.4406E+00
     -2.893  0.7652E-01  0.4444E+00
     -2.793  0.1948E+00  0.4602E+00
     -2.694  0.1345E+00  0.4773E+00
     -2.594  0.1969E+00  0.4829E+00
     -2.494  0.1693E+00  0.5026E+00
     -2.395  0.5251E-01  0.5178E+00
     -2.295  0.3540E-02  0.5200E+00
     -2.195  0.0000E+00  0.5200E+00
     -2.096  0.0000E+00  0.5200E+00
     -1.996  0.0000E+00  0.5200E+00
     -1.896  0.0000E+00  0.5200E+00
     -1.797  0.0000E+00  0.5200E+00
     -1.697  0.0000E+00  0.5200E+00
     -1.597  0.0000E+00  0.5200E+00
     -1.498  0.0000E+00  0.5200E+00
     -1.398  0.0000E+00  0.5200E+00
     -1.298  0.1846E-01  0.5205E+00
     -1.199  0.5967E-01  0.5247E+00
     -1.099  0.8552E-01  0.5316E+00
     -0.999  0.1779E+00  0.5437E+00
     -0.900  0.3622E-01  0.5595E+00
     -0.800  0.1614E+00  0.5661E+00
     -0.700  0.1515E+00  0.5837E+00
     -0.601  0.7321E-01  0.5948E+00
     -0.501  0.2152E-01  0.5993E+00
     -0.401  0.0000E+00  0.6000E+00
     -0.302  0.0000E+00  0.6000E+00
     -0.202  0.0000E+00  0.6000E+00
     -0.102  0.0000E+00  0.6000E+00
     -0.003  0.0000E+00  0.6000E+00
      0.097  0.0000E+00  0.6000E+00
      0.197  0.0000E+00  0.6000E+00
      0.296  0.0000E+00  0.6000E+00
      0.396  0.0000E+00  0.6000E+00
      0.496  0.0000E+00  0.6000E+00
      0.595  0.0000E+00  0.6000E+00
      0.695  0.0000E+00  0.6000E+00
      0.795  0.0000E+00  0.6000E+00
      0.894  0.0000E+00  0.6000E+00
      0.994  0.0000E+00  0.6000E+00
      1.094  0.0000E+00  0.6000E+00
      1.193  0.0000E+00  0.6000E+00
      1.293  0.0000E+00  0.6000E+00
      1.393  0.0000E+00  0.6000E+00
      1.492  0.0000E+00  0.6000E+00
      1.592  0.0000E+00  0.6000E+00
      1.692  0.0000E+00  0.6000E+00
      1.791  0.0000E+00  0.6000E+00
      1.891  0.0000E+00  0.6000E+00
      1.991  0.0000E+00  0.6000E+00
      2.090  0.0000E+00  0.6000E+00
      2.190  0.0000E+00  0.6000E+00
      2.290  0.0000E+00  0.6000E+00
      2.389  0.0000E+00  0.6000E+00
      2.489  0.0000E+00  0.6000E+00
      2.589  0.0000E+00  0.6000E+00
      2.688  0.0000E+00  0.6000E+00
      2.788  0.0000E+00  0.6000E+00
      2.888  0.0000E+00  0.6000E+00
      2.987  0.0000E+00  0.6000E+00
      3.087  0.0000E+00  0.6000E+00
      3.187  0.0000E+00  0.6000E+00
      3.286  0.0000E+00  0.6000E+00
      3.386  0.0000E+00  0.6000E+00
      3.486  0.0000E+00  0.6000E+00
      3.585  0.0000E+00  0.6000E+00
      3.685  0.1166E-03  0.6000E+00
      3.785  0.3330E-01  0.6011E+00
      3.884  0.1709E+00  0.6116E+00
      3.984  0.9202E-01  0.6249E+00
      4.084  0.8322E-01  0.6341E+00
      4.183  0.7866E-02  0.6400E+00
      4.283  0.9969E-01  0.6442E+00
      4.383  0.8485E-01  0.6554E+00
      4.482  0.1170E+00  0.6657E+00
      4.582  0.6497E-01  0.6763E+00
      4.682  0.9844E-02  0.6797E+00
      4.781  0.1810E-03  0.6800E+00
      4.881  0.0000E+00  0.6800E+00
      4.981  0.0000E+00  0.6800E+00
      5.080  0.0000E+00  0.6800E+00
      5.180  0.0000E+00  0.6800E+00
      5.280  0.0000E+00  0.6800E+00
      5.379  0.0000E+00  0.6800E+00
      5.479  0.0000E+00  0.6800E+00
      5.579  0.0000E+00  0.6800E+00
      5.678  0.0000E+00  0.6800E+00
      5.778  0.0000E+00  0.6800E+00
      5.878  0.1921E-03  0.6800E+00
      5.977  0.1251E-02  0.6801E+00
      6.077  0.3109E-02  0.6803E+00
      6.177  0.5658E-02  0.6807E+00
      6.276  0.7149E-02  0.6814E+00
      6.376  0.7905E-02  0.6821E+00
      6.476  0.1005E-01  0.6830E+00
      6.575  0.1295E-01  0.6841E+00
      6.675  0.1662E-01  0.6856E+00
      6.775  0.3437E-01  0.6877E+00
      6.874  0.7416E-01  0.6932E+00
      6.974  0.7286E-01  0.7012E+00
      7.074  0.5002E-01  0.7071E+00
      7.173  0.4145E-01  0.7115E+00
      7.273  0.3448E-01  0.7153E+00
      7.373  0.2759E-01  0.7181E+00
      7.472  0.3626E-01  0.7206E+00
      7.572  0.8130E-01  0.7272E+00
      7.672  0.8264E-01  0.7360E+00
      7.771  0.9136E-01  0.7442E+00
      7.871  0.6901E-01  0.7519E+00
      7.971  0.8612E-01  0.7597E+00
      8.070  0.8863E-01  0.7682E+00
      8.170  0.8155E-01  0.7770E+00
      8.270  0.8314E-01  0.7842E+00
      8.369  0.6110E-01  0.7935E+00
      8.469  0.2748E-01  0.7975E+00
      8.569  0.5153E-01  0.8013E+00
      8.668  0.8935E-01  0.8084E+00
      8.768  0.6256E-01  0.8163E+00
      8.868  0.5759E-01  0.8230E+00
      8.967  0.7718E-01  0.8298E+00
      9.067  0.3748E-01  0.8354E+00
      9.167  0.2049E-01  0.8380E+00
      9.266  0.1203E-01  0.8397E+00
      9.366  0.3153E-01  0.8412E+00
      9.466  0.6733E-01  0.8466E+00
      9.565  0.7377E-01  0.8541E+00
      9.665  0.2169E-01  0.8589E+00
      9.765  0.3305E-02  0.8599E+00
      9.864  0.0000E+00  0.8600E+00
      9.964  0.0000E+00  0.8600E+00
     10.064  0.0000E+00  0.8600E+00
     10.163  0.0000E+00  0.8600E+00
     10.263  0.0000E+00  0.8600E+00
     10.363  0.0000E+00  0.8600E+00
     10.462  0.0000E+00  0.8600E+00
     10.562  0.0000E+00  0.8600E+00
     10.662  0.0000E+00  0.8600E+00
     10.761  0.0000E+00  0.8600E+00
     10.861  0.0000E+00  0.8600E+00
     10.961  0.0000E+00  0.8600E+00
     11.060  0.0000E+00  0.8600E+00
     11.160  0.0000E+00  0.8600E+00
     11.260  0.0000E+00  0.8600E+00
     11.359  0.0000E+00  0.8600E+00
     11.459  0.0000E+00  0.8600E+00
     11.559  0.0000E+00  0.8600E+00
     11.658  0.0000E+00  0.8600E+00
     11.758  0.0000E+00  0.8600E+00
     11.858  0.0000E+00  0.8600E+00
