   48   48  200    1
  0.8081304E+01  0.6939728E-09  0.8841902E-09  0.6321710E-09  0.5000000E-15
  1.000000000000000E-004
  CAR 
 benzene                                 
    120     27     86
 
  0.0000000E+00  0.0000000E+00  0.0000000E+00  0.1562500E-01
    1      -16.042284
    2      -15.805297
    3      -15.685829
    4      -15.649331
    5      -13.380766
    6      -13.107411
    7      -13.026319
    8      -12.951160
    9      -12.905139
   10      -12.830307
   11      -12.822495
   12      -12.766957
   13       -9.626936
   14       -9.575077
   15       -9.485431
   16       -9.392397
   17       -9.319619
   18       -9.273100
   19       -9.188647
   20       -8.889606
   21       -7.987906
   22       -7.385468
   23       -7.345363
   24       -6.789135
   25       -6.303443
   26       -5.958906
   27       -5.690423
   28       -5.610670
   29       -5.527713
   30       -5.524166
   31       -5.356325
   32       -5.342265
   33       -5.326163
   34       -5.271040
   35       -4.947233
   36       -4.601906
   37       -4.581487
   38       -4.519559
   39       -4.456026
   40       -4.180999
   41       -3.473111
   42       -3.301408
   43       -3.261731
   44       -3.164815
   45       -3.136415
   46       -3.121961
   47       -3.062455
   48       -2.850687
   49       -2.605588
   50       -2.550845
   51       -2.546447
   52       -2.258407
   53       -1.349913
   54       -1.270768
   55       -1.075598
   56       -1.052923
   57       -0.644563
   58       -0.599904
   59       -0.463765
   60       -0.405906
   61        3.873403
   62        3.912946
   63        4.016905
   64        4.160873
   65        4.264409
   66        4.331344
   67        4.585296
   68        4.798721
   69        5.813372
   70        6.771762
   71        6.797346
   72        7.355408
   73        7.721153
   74        7.916548
   75        8.048388
   76        8.179896
   77        8.191539
   78        8.277309
   79        8.390740
   80        8.531787
   81        8.581920
   82        8.799276
   83        9.126828
   84        9.195100
   85        9.464170
   86        9.684824
 
  0.2500000E+00  0.0000000E+00  0.0000000E+00  0.3125000E-01
    1      -15.995654
    2      -15.783069
    3      -15.744630
    4      -15.672758
    5      -13.324631
    6      -13.083977
    7      -13.009986
    8      -12.957962
    9      -12.953805
   10      -12.856925
   11      -12.822068
   12      -12.779817
   13       -9.523249
   14       -9.511065
   15       -9.485784
   16       -9.419985
   17       -9.309852
   18       -9.273615
   19       -9.250650
   20       -8.991949
   21       -7.970713
   22       -7.570809
   23       -7.280988
   24       -6.903377
   25       -6.233584
   26       -5.976737
   27       -5.497436
   28       -5.491466
   29       -5.488594
   30       -5.464709
   31       -5.325440
   32       -5.311639
   33       -5.180035
   34       -5.151741
   35       -4.982551
   36       -4.745697
   37       -4.561320
   38       -4.516043
   39       -4.483466
   40       -4.261058
   41       -3.798266
   42       -3.585353
   43       -3.354337
   44       -3.332119
   45       -2.994655
   46       -2.948645
   47       -2.853734
   48       -2.775929
   49       -2.558270
   50       -2.530300
   51       -2.514274
   52       -2.301011
   53       -1.235020
   54       -1.192722
   55       -1.090710
   56       -1.087095
   57       -0.689806
   58       -0.643400
   59       -0.567448
   60       -0.548364
   61        3.928902
   62        3.991483
   63        4.046410
   64        4.179276
   65        4.250589
   66        4.257930
   67        4.450128
   68        4.624639
   69        6.084310
   70        6.884819
   71        6.894996
   72        7.443110
   73        7.639519
   74        7.784399
   75        7.992972
   76        8.039914
   77        8.225983
   78        8.254659
   79        8.409844
   80        8.658293
   81        8.680863
   82        8.848603
   83        9.091288
   84        9.318861
   85        9.622461
   86        9.629721
 
  0.5000000E+00  0.0000000E+00  0.0000000E+00  0.1562500E-01
    1      -15.876119
    2      -15.876118
    3      -15.728507
    4      -15.728507
    5      -13.182976
    6      -13.182975
    7      -12.975417
    8      -12.975416
    9      -12.928572
   10      -12.928571
   11      -12.806829
   12      -12.806828
   13       -9.466902
   14       -9.466901
   15       -9.391786
   16       -9.391786
   17       -9.287340
   18       -9.287340
   19       -9.244922
   20       -9.244921
   21       -7.842913
   22       -7.842912
   23       -7.111652
   24       -7.111652
   25       -6.089431
   26       -6.089430
   27       -5.464302
   28       -5.464302
   29       -5.318884
   30       -5.318884
   31       -5.277907
   32       -5.277906
   33       -5.048233
   34       -5.048232
   35       -4.756421
   36       -4.756421
   37       -4.671004
   38       -4.671004
   39       -4.430139
   40       -4.430139
   41       -3.902041
   42       -3.902041
   43       -3.531780
   44       -3.531780
   45       -2.818326
   46       -2.818326
   47       -2.659738
   48       -2.659737
   49       -2.593533
   50       -2.593533
   51       -2.402689
   52       -2.402689
   53       -1.117239
   54       -1.117238
   55       -0.966144
   56       -0.966143
   57       -0.924118
   58       -0.924117
   59       -0.620687
   60       -0.620687
   61        4.066693
   62        4.066693
   63        4.135947
   64        4.135948
   65        4.237119
   66        4.237119
   67        4.327045
   68        4.327045
   69        6.781335
   70        6.781336
   71        6.978589
   72        6.978589
   73        7.633031
   74        7.633033
   75        8.187871
   76        8.187872
   77        8.215800
   78        8.215800
   79        8.556164
   80        8.556165
   81        9.089607
   82        9.089608
   83        9.138611
   84        9.138611
   85        9.382349
   86        9.382349
 
  0.0000000E+00  0.2500000E+00  0.0000000E+00  0.3125000E-01
    1      -16.011676
    2      -15.844900
    3      -15.680536
    4      -15.654698
    5      -13.294556
    6      -13.085318
    7      -13.008476
    8      -12.974716
    9      -12.893976
   10      -12.858466
   11      -12.850590
   12      -12.835836
   13       -9.580052
   14       -9.498590
   15       -9.475971
   16       -9.355578
   17       -9.326973
   18       -9.292897
   19       -9.239840
   20       -8.991905
   21       -7.868044
   22       -7.389267
   23       -7.355666
   24       -7.068795
   25       -6.182344
   26       -5.838487
   27       -5.669443
   28       -5.489317
   29       -5.479242
   30       -5.432103
   31       -5.360036
   32       -5.344516
   33       -5.321157
   34       -5.260333
   35       -4.997178
   36       -4.756576
   37       -4.629097
   38       -4.619733
   39       -4.580435
   40       -4.310405
   41       -3.448604
   42       -3.307005
   43       -3.283949
   44       -3.219307
   45       -3.003952
   46       -2.960148
   47       -2.937498
   48       -2.733634
   49       -2.601458
   50       -2.590281
   51       -2.586920
   52       -2.324689
   53       -1.357268
   54       -1.318187
   55       -1.000916
   56       -0.990784
   57       -0.706572
   58       -0.648233
   59       -0.477766
   60       -0.419991
   61        3.870219
   62        3.903283
   63        4.058944
   64        4.159265
   65        4.282456
   66        4.384987
   67        4.510145
   68        4.712904
   69        5.999437
   70        6.792173
   71        6.891482
   72        7.414762
   73        7.507813
   74        7.697517
   75        7.924854
   76        8.094515
   77        8.237059
   78        8.249363
   79        8.325067
   80        8.695811
   81        8.707877
   82        8.849746
   83        8.983608
   84        9.290834
   85        9.379432
   86        9.582384
 
  0.2500000E+00  0.2500000E+00  0.0000000E+00  0.6250000E-01
    1      -15.967776
    2      -15.818016
    3      -15.734380
    4      -15.683559
    5      -13.253151
    6      -13.073902
    7      -13.002687
    8      -12.990011
    9      -12.909901
   10      -12.907805
   11      -12.832679
   12      -12.821442
   13       -9.492722
   14       -9.471975
   15       -9.470319
   16       -9.386411
   17       -9.324667
   18       -9.292608
   19       -9.285640
   20       -9.076273
   21       -7.846911
   22       -7.514983
   23       -7.309111
   24       -7.110076
   25       -6.132314
   26       -5.864203
   27       -5.589498
   28       -5.533340
   29       -5.429912
   30       -5.379574
   31       -5.352632
   32       -5.347406
   33       -5.164525
   34       -5.069615
   35       -4.976574
   36       -4.910770
   37       -4.646419
   38       -4.523841
   39       -4.494018
   40       -4.321803
   41       -3.715988
   42       -3.563533
   43       -3.411428
   44       -3.381573
   45       -2.892631
   46       -2.840114
   47       -2.802060
   48       -2.705743
   49       -2.587190
   50       -2.553419
   51       -2.529081
   52       -2.367332
   53       -1.258077
   54       -1.207131
   55       -1.023871
   56       -1.013967
   57       -0.709960
   58       -0.696421
   59       -0.608791
   60       -0.569181
   61        3.911212
   62        3.993942
   63        4.056161
   64        4.168043
   65        4.274194
   66        4.320750
   67        4.418495
   68        4.574061
   69        6.254184
   70        6.913628
   71        6.984922
   72        7.518381
   73        7.606488
   74        7.761380
   75        7.777613
   76        7.913401
   77        8.012232
   78        8.407765
   79        8.423881
   80        8.547207
   81        8.711810
   82        8.808511
   83        8.897437
   84        9.219642
   85        9.541888
   86        9.661338
 
  0.5000000E+00  0.2500000E+00  0.0000000E+00  0.3125000E-01
    1      -15.855961
    2      -15.855960
    3      -15.751746
    4      -15.751746
    5      -13.150690
    6      -13.150689
    7      -12.976060
    8      -12.976060
    9      -12.944070
   10      -12.944069
   11      -12.819724
   12      -12.819724
   13       -9.440385
   14       -9.440385
   15       -9.395208
   16       -9.395208
   17       -9.304032
   18       -9.304032
   19       -9.280293
   20       -9.280292
   21       -7.728669
   22       -7.728668
   23       -7.205739
   24       -7.205738
   25       -5.997023
   26       -5.997023
   27       -5.539325
   28       -5.539325
   29       -5.342287
   30       -5.342287
   31       -5.338233
   32       -5.338232
   33       -5.055249
   34       -5.055249
   35       -4.803148
   36       -4.803147
   37       -4.620095
   38       -4.620095
   39       -4.367766
   40       -4.367766
   41       -3.837602
   42       -3.837602
   43       -3.600865
   44       -3.600865
   45       -2.763074
   46       -2.763073
   47       -2.634697
   48       -2.634697
   49       -2.608278
   50       -2.608277
   51       -2.446156
   52       -2.446156
   53       -1.073209
   54       -1.073208
   55       -0.945063
   56       -0.945062
   57       -0.919364
   58       -0.919362
   59       -0.693951
   60       -0.693951
   61        4.025006
   62        4.025006
   63        4.154920
   64        4.154920
   65        4.242403
   66        4.242404
   67        4.359545
   68        4.359546
   69        6.886029
   70        6.886030
   71        7.097829
   72        7.097830
   73        7.727143
   74        7.727144
   75        7.818339
   76        7.818340
   77        8.157617
   78        8.157617
   79        8.547084
   80        8.547085
   81        8.884330
   82        8.884331
   83        8.947961
   84        8.947961
   85        9.650488
   86        9.650489
 
  0.0000000E+00  0.5000000E+00  0.0000000E+00  0.1562500E-01
    1      -15.932709
    2      -15.932707
    3      -15.667681
    4      -15.667680
    5      -13.093154
    6      -13.093153
    7      -13.030790
    8      -13.030788
    9      -12.916770
   10      -12.916768
   11      -12.865977
   12      -12.865976
   13       -9.490955
   14       -9.490953
   15       -9.363467
   16       -9.363465
   17       -9.321570
   18       -9.321569
   19       -9.210800
   20       -9.210798
   21       -7.527364
   22       -7.527359
   23       -7.378707
   24       -7.378706
   25       -5.898063
   26       -5.898062
   27       -5.561668
   28       -5.561667
   29       -5.414292
   30       -5.414290
   31       -5.405940
   32       -5.405939
   33       -5.114633
   34       -5.114630
   35       -4.977830
   36       -4.977828
   37       -4.663550
   38       -4.663545
   39       -4.643373
   40       -4.643373
   41       -3.374683
   42       -3.374681
   43       -3.283886
   44       -3.283884
   45       -2.750410
   46       -2.750409
   47       -2.749394
   48       -2.749394
   49       -2.675385
   50       -2.675385
   51       -2.506744
   52       -2.506741
   53       -1.370657
   54       -1.370656
   55       -0.846601
   56       -0.846599
   57       -0.819641
   58       -0.819641
   59       -0.454735
   60       -0.454734
   61        3.877858
   62        3.877859
   63        4.129369
   64        4.129371
   65        4.371425
   66        4.371426
   67        4.533315
   68        4.533316
   69        6.475253
   70        6.475258
   71        7.164566
   72        7.164571
   73        7.435653
   74        7.435656
   75        8.059291
   76        8.059291
   77        8.158414
   78        8.158416
   79        8.506562
   80        8.506567
   81        8.877192
   82        8.877193
   83        9.048109
   84        9.048114
   85        9.532646
   86        9.532649
 
  0.2500000E+00  0.5000000E+00  0.0000000E+00  0.3125000E-01
    1      -15.896367
    2      -15.896365
    3      -15.709230
    4      -15.709229
    5      -13.087110
    6      -13.087109
    7      -13.044735
    8      -13.044734
    9      -12.901763
   10      -12.901762
   11      -12.863413
   12      -12.863412
   13       -9.458755
   14       -9.458753
   15       -9.371186
   16       -9.371184
   17       -9.335667
   18       -9.335666
   19       -9.252005
   20       -9.252003
   21       -7.513608
   22       -7.513604
   23       -7.398676
   24       -7.398675
   25       -5.866289
   26       -5.866287
   27       -5.614617
   28       -5.614617
   29       -5.398888
   30       -5.398886
   31       -5.392885
   32       -5.392884
   33       -5.085515
   34       -5.085514
   35       -4.945337
   36       -4.945335
   37       -4.597340
   38       -4.597336
   39       -4.506461
   40       -4.506461
   41       -3.555231
   42       -3.555229
   43       -3.476792
   44       -3.476791
   45       -2.729043
   46       -2.729042
   47       -2.670930
   48       -2.670929
   49       -2.611027
   50       -2.611026
   51       -2.532950
   52       -2.532947
   53       -1.250420
   54       -1.250419
   55       -0.859883
   56       -0.859882
   57       -0.851151
   58       -0.851150
   59       -0.598461
   60       -0.598460
   61        3.938617
   62        3.938617
   63        4.111005
   64        4.111006
   65        4.345602
   66        4.345604
   67        4.457651
   68        4.457652
   69        6.680459
   70        6.680465
   71        7.223304
   72        7.223307
   73        7.539580
   74        7.539583
   75        8.011760
   76        8.011763
   77        8.161008
   78        8.161010
   79        8.336890
   80        8.336892
   81        8.718955
   82        8.718956
   83        8.894628
   84        8.894633
   85        9.684780
   86        9.684784
 
  0.5000000E+00  0.5000000E+00  0.0000000E+00  0.1562500E-01
    1      -15.805411
    2      -15.805410
    3      -15.805409
    4      -15.805408
    5      -13.069367
    6      -13.069367
    7      -13.069367
    8      -13.069366
    9      -12.874370
   10      -12.874370
   11      -12.874369
   12      -12.874369
   13       -9.388987
   14       -9.388987
   15       -9.388986
   16       -9.388986
   17       -9.335413
   18       -9.335412
   19       -9.335412
   20       -9.335412
   21       -7.459056
   22       -7.459056
   23       -7.459054
   24       -7.459053
   25       -5.762390
   26       -5.762390
   27       -5.762390
   28       -5.762389
   29       -5.374127
   30       -5.374127
   31       -5.374126
   32       -5.374126
   33       -4.975015
   34       -4.975015
   35       -4.975014
   36       -4.975014
   37       -4.423068
   38       -4.423067
   39       -4.423066
   40       -4.423065
   41       -3.717140
   42       -3.717140
   43       -3.717139
   44       -3.717139
   45       -2.666811
   46       -2.666811
   47       -2.666810
   48       -2.666809
   49       -2.552645
   50       -2.552645
   51       -2.552644
   52       -2.552644
   53       -0.975042
   54       -0.975041
   55       -0.975040
   56       -0.975040
   57       -0.841403
   58       -0.841402
   59       -0.841402
   60       -0.841402
   61        4.054903
   62        4.054903
   63        4.054903
   64        4.054903
   65        4.344150
   66        4.344150
   67        4.344151
   68        4.344151
   69        7.116635
   70        7.116635
   71        7.116638
   72        7.116639
   73        7.710180
   74        7.710181
   75        7.710181
   76        7.710182
   77        8.225662
   78        8.225663
   79        8.225664
   80        8.225666
   81        8.730259
   82        8.730259
   83        8.730261
   84        8.730261
   85        9.836939
   86        9.836941
 
  0.0000000E+00  0.0000000E+00  0.2500000E+00  0.3125000E-01
    1      -15.989175
    2      -15.786475
    3      -15.711889
    4      -15.701862
    5      -13.309313
    6      -13.080089
    7      -13.022711
    8      -12.951977
    9      -12.900549
   10      -12.897248
   11      -12.851413
   12      -12.799256
   13       -9.599640
   14       -9.561299
   15       -9.427496
   16       -9.406499
   17       -9.356392
   18       -9.275684
   19       -9.168350
   20       -8.952725
   21       -7.985724
   22       -7.553036
   23       -7.294993
   24       -6.888457
   25       -6.130838
   26       -5.867476
   27       -5.638474
   28       -5.599749
   29       -5.505128
   30       -5.470837
   31       -5.369293
   32       -5.337831
   33       -5.178787
   34       -5.125441
   35       -5.025673
   36       -4.736806
   37       -4.527531
   38       -4.497614
   39       -4.472529
   40       -4.261259
   41       -3.725424
   42       -3.530060
   43       -3.419062
   44       -3.365743
   45       -3.033006
   46       -2.911440
   47       -2.869853
   48       -2.707075
   49       -2.549965
   50       -2.532024
   51       -2.447108
   52       -2.378572
   53       -1.216981
   54       -1.164594
   55       -1.061846
   56       -0.977352
   57       -0.740817
   58       -0.672037
   59       -0.582796
   60       -0.522671
   61        3.973462
   62        3.974784
   63        4.050991
   64        4.180097
   65        4.250285
   66        4.282381
   67        4.460196
   68        4.667777
   69        6.128884
   70        6.949276
   71        7.029972
   72        7.305196
   73        7.647053
   74        7.731212
   75        7.738827
   76        8.037714
   77        8.057268
   78        8.161561
   79        8.340721
   80        8.362714
   81        8.467321
   82        8.932916
   83        9.066486
   84        9.328570
   85        9.441055
   86        9.510643
 
  0.2500000E+00  0.0000000E+00  0.2500000E+00  0.6250000E-01
    1      -15.950164
    2      -15.774634
    3      -15.747339
    4      -15.721793
    5      -13.262914
    6      -13.057208
    7      -13.025280
    8      -12.958034
    9      -12.955733
   10      -12.894368
   11      -12.868722
   12      -12.807482
   13       -9.522355
   14       -9.506494
   15       -9.432436
   16       -9.401095
   17       -9.339695
   18       -9.274087
   19       -9.227138
   20       -9.043937
   21       -7.923272
   22       -7.451661
   23       -7.450707
   24       -6.976956
   25       -6.089361
   26       -5.901663
   27       -5.555864
   28       -5.482114
   29       -5.475923
   30       -5.455801
   31       -5.356726
   32       -5.350304
   33       -5.116373
   34       -5.084992
   35       -5.045465
   36       -4.669627
   37       -4.661092
   38       -4.585207
   39       -4.502722
   40       -4.339712
   41       -3.867648
   42       -3.594734
   43       -3.382127
   44       -3.222223
   45       -2.984808
   46       -2.816412
   47       -2.815276
   48       -2.715073
   49       -2.555079
   50       -2.548461
   51       -2.469729
   52       -2.399046
   53       -1.145903
   54       -1.107280
   55       -1.051715
   56       -0.986074
   57       -0.766399
   58       -0.703314
   59       -0.634838
   60       -0.617799
   61        3.921793
   62        3.932771
   63        4.069150
   64        4.110745
   65        4.257581
   66        4.303791
   67        4.361569
   68        4.598950
   69        6.268945
   70        6.932565
   71        6.975567
   72        7.387471
   73        7.474729
   74        7.733535
   75        7.812637
   76        7.962582
   77        8.017693
   78        8.161338
   79        8.284682
   80        8.555359
   81        8.569305
   82        8.782802
   83        9.002747
   84        9.207659
   85        9.461024
   86        9.556270
 
  0.5000000E+00  0.0000000E+00  0.2500000E+00  0.3125000E-01
    1      -15.851962
    2      -15.851962
    3      -15.747233
    4      -15.747232
    5      -13.142163
    6      -13.142162
    7      -13.001555
    8      -13.001554
    9      -12.935571
   10      -12.935571
   11      -12.844056
   12      -12.844055
   13       -9.454572
   14       -9.454572
   15       -9.346506
   16       -9.346505
   17       -9.330110
   18       -9.330110
   19       -9.241766
   20       -9.241765
   21       -7.730057
   22       -7.730056
   23       -7.209674
   24       -7.209674
   25       -5.981249
   26       -5.981248
   27       -5.449146
   28       -5.449146
   29       -5.432094
   30       -5.432093
   31       -5.336231
   32       -5.336231
   33       -4.992391
   34       -4.992390
   35       -4.929745
   36       -4.929744
   37       -4.752851
   38       -4.752850
   39       -4.481500
   40       -4.481499
   41       -3.645542
   42       -3.645542
   43       -3.402019
   44       -3.402018
   45       -2.774652
   46       -2.774651
   47       -2.667404
   48       -2.667403
   49       -2.634115
   50       -2.634114
   51       -2.463496
   52       -2.463495
   53       -1.042306
   54       -1.042306
   55       -0.946611
   56       -0.946610
   57       -0.883664
   58       -0.883664
   59       -0.667002
   60       -0.667001
   61        3.929514
   62        3.929515
   63        3.989843
   64        3.989844
   65        4.338828
   66        4.338828
   67        4.382976
   68        4.382977
   69        6.741236
   70        6.741237
   71        6.901522
   72        6.901523
   73        7.614725
   74        7.614726
   75        8.030811
   76        8.030811
   77        8.221623
   78        8.221624
   79        8.238785
   80        8.238786
   81        8.818436
   82        8.818436
   83        8.908686
   84        8.908686
   85        9.729955
   86        9.729955
 
  0.0000000E+00  0.2500000E+00  0.2500000E+00  0.6250000E-01
    1      -15.962438
    2      -15.819570
    3      -15.710226
    4      -15.703143
    5      -13.244575
    6      -13.083018
    7      -13.010772
    8      -12.979311
    9      -12.928364
   10      -12.896989
   11      -12.840619
   12      -12.829455
   13       -9.610049
   14       -9.514011
   15       -9.457114
   16       -9.369865
   17       -9.360873
   18       -9.277111
   19       -9.166139
   20       -9.011700
   21       -7.863769
   22       -7.508256
   23       -7.336474
   24       -7.118909
   25       -6.042619
   26       -5.814160
   27       -5.660938
   28       -5.474176
   29       -5.457897
   30       -5.454523
   31       -5.393974
   32       -5.353527
   33       -5.161169
   34       -5.066730
   35       -5.045731
   36       -4.894630
   37       -4.597940
   38       -4.535615
   39       -4.421221
   40       -4.380256
   41       -3.665849
   42       -3.550375
   43       -3.448284
   44       -3.384751
   45       -2.896948
   46       -2.881329
   47       -2.818671
   48       -2.636234
   49       -2.622137
   50       -2.550411
   51       -2.438953
   52       -2.371172
   53       -1.229266
   54       -1.227477
   55       -0.968115
   56       -0.966660
   57       -0.797341
   58       -0.696081
   59       -0.586959
   60       -0.522743
   61        3.880761
   62        3.895305
   63        4.151013
   64        4.189474
   65        4.211640
   66        4.255356
   67        4.535502
   68        4.659997
   69        6.301477
   70        6.976987
   71        7.138165
   72        7.385209
   73        7.438245
   74        7.755163
   75        7.798868
   76        7.906616
   77        7.967020
   78        8.102525
   79        8.228496
   80        8.368280
   81        8.726414
   82        8.982918
   83        8.983305
   84        9.129188
   85        9.253011
   86        9.416182
 
  0.2500000E+00  0.2500000E+00  0.2500000E+00  0.1250000E+00
    1      -15.926579
    2      -15.802744
    3      -15.743372
    4      -15.725295
    5      -13.219134
    6      -13.084431
    7      -13.046355
    8      -12.985590
    9      -12.943974
   10      -12.886909
   11      -12.846936
   12      -12.807506
   13       -9.565062
   14       -9.503674
   15       -9.466312
   16       -9.384331
   17       -9.331878
   18       -9.267263
   19       -9.190447
   20       -9.080126
   21       -7.801380
   22       -7.434926
   23       -7.411820
   24       -7.137374
   25       -6.023926
   26       -5.856765
   27       -5.673218
   28       -5.537376
   29       -5.438792
   30       -5.406046
   31       -5.375294
   32       -5.368716
   33       -5.153202
   34       -5.084089
   35       -5.075146
   36       -4.747180
   37       -4.632793
   38       -4.556229
   39       -4.430611
   40       -4.311450
   41       -3.867271
   42       -3.598210
   43       -3.357313
   44       -3.242295
   45       -2.926983
   46       -2.864853
   47       -2.765212
   48       -2.694211
   49       -2.587083
   50       -2.553106
   51       -2.460049
   52       -2.397345
   53       -1.177169
   54       -1.154308
   55       -0.977631
   56       -0.946833
   57       -0.807302
   58       -0.716945
   59       -0.663961
   60       -0.603725
   61        3.836169
   62        3.873616
   63        4.025597
   64        4.105350
   65        4.243401
   66        4.330960
   67        4.498483
   68        4.625541
   69        6.421937
   70        6.988067
   71        7.047891
   72        7.434632
   73        7.503800
   74        7.623510
   75        7.755785
   76        7.849988
   77        7.980694
   78        8.207839
   79        8.287089
   80        8.435911
   81        8.645894
   82        8.784750
   83        8.907250
   84        9.071486
   85        9.310640
   86        9.558620
 
  0.5000000E+00  0.2500000E+00  0.2500000E+00  0.6250000E-01
    1      -15.837153
    2      -15.837152
    3      -15.763134
    4      -15.763134
    5      -13.148240
    6      -13.148240
    7      -13.039054
    8      -13.039052
    9      -12.909912
   10      -12.909911
   11      -12.817091
   12      -12.817090
   13       -9.492418
   14       -9.492417
   15       -9.453573
   16       -9.453572
   17       -9.247069
   18       -9.247068
   19       -9.212062
   20       -9.212062
   21       -7.628440
   22       -7.628440
   23       -7.247478
   24       -7.247477
   25       -5.943484
   26       -5.943483
   27       -5.617267
   28       -5.617267
   29       -5.403852
   30       -5.403852
   31       -5.359366
   32       -5.359366
   33       -5.128600
   34       -5.128599
   35       -4.966211
   36       -4.966210
   37       -4.573858
   38       -4.573858
   39       -4.361576
   40       -4.361576
   41       -3.616226
   42       -3.616226
   43       -3.424022
   44       -3.424022
   45       -2.800322
   46       -2.800321
   47       -2.729342
   48       -2.729342
   49       -2.585876
   50       -2.585876
   51       -2.465426
   52       -2.465426
   53       -1.061705
   54       -1.061704
   55       -0.954407
   56       -0.954405
   57       -0.833000
   58       -0.832999
   59       -0.696966
   60       -0.696966
   61        3.846928
   62        3.846928
   63        3.940578
   64        3.940579
   65        4.392605
   66        4.392605
   67        4.471998
   68        4.471998
   69        6.833983
   70        6.833984
   71        6.989691
   72        6.989691
   73        7.620384
   74        7.620385
   75        7.915067
   76        7.915068
   77        8.086705
   78        8.086706
   79        8.323949
   80        8.323949
   81        8.618652
   82        8.618652
   83        9.013564
   84        9.013565
   85        9.490044
   86        9.490045
 
  0.0000000E+00  0.5000000E+00  0.2500000E+00  0.3125000E-01
    1      -15.894143
    2      -15.894141
    3      -15.706494
    4      -15.706493
    5      -13.114683
    6      -13.114683
    7      -13.006669
    8      -13.006669
    9      -12.954542
   10      -12.954541
   11      -12.830956
   12      -12.830955
   13       -9.550574
   14       -9.550573
   15       -9.448597
   16       -9.448596
   17       -9.256932
   18       -9.256931
   19       -9.136659