benzene                                 
           1
     6.939728    0.000000    0.000000
     0.000000    8.841902    0.000000
     0.000000    0.000000    6.321710
   C    H 
  24  24
Direct configuration=     1
   0.94599998  0.13760001  0.99980003
   0.05400000  0.86239999  0.00020000
   0.55400002  0.86239999  0.49980000
   0.44600001  0.13760001  0.50019997
   0.05400000  0.63760001  0.50019997
   0.94599998  0.36239999  0.49980000
   0.44600001  0.36239999  0.00020000
   0.55400002  0.63760001  0.99980003
   0.07680000  0.09030000  0.13240001
   0.92320001  0.90969998  0.86759996
   0.42320001  0.90969998  0.63240004
   0.57679999  0.09030000  0.36759999
   0.92320001  0.59030002  0.36759999
   0.07680000  0.40970001  0.63240004
   0.57679999  0.40970001  0.86759996
   0.42320001  0.59030002  0.13240001
   0.87000001  0.04540000  0.87180000
   0.12999999  0.95459998  0.12820000
   0.62999999  0.95459998  0.37180000
   0.37000001  0.04540000  0.62820000
   0.12999999  0.54540002  0.62820000
   0.87000001  0.45460001  0.37180000
   0.37000001  0.45460001  0.12820000
   0.62999999  0.54540002  0.87180000
   0.91119999  0.23160000  0.99910003
   0.08880000  0.76840001  0.00090000
   0.58880001  0.76840001  0.49910000
   0.41119999  0.23160000  0.50089997
   0.08880000  0.73159999  0.50089997
   0.91119999  0.26840001  0.49910000
   0.41119999  0.26840001  0.00090000
   0.58880001  0.73159999  0.99910003
   0.12650000  0.15199999  0.22240000
   0.87349999  0.84799999  0.77759999
   0.37349999  0.84799999  0.72240001
   0.62650001  0.15199999  0.27759999
   0.87349999  0.65200001  0.27759999
   0.12650000  0.34799999  0.72240001
   0.62650001  0.34799999  0.77759999
   0.37349999  0.65200001  0.22240000
   0.78079999  0.07640000  0.78670001
   0.21920000  0.92360002  0.21330001
   0.71920001  0.92360002  0.28670001
   0.28079999  0.07640000  0.71329999
   0.21920000  0.57639998  0.71329999
   0.78079999  0.42360002  0.28670001
   0.28079999  0.42360002  0.21330001
   0.71920001  0.57639998  0.78670001
Direct configuration=     2
   0.97072959  0.10420039  0.01609713
   0.02927039  0.89579961 -0.01609711
   0.52927041  0.89579961  0.51609710
   0.47072962  0.10420039  0.48390287
   0.02927039  0.60420039  0.48390287
   0.97072959  0.39579961  0.51609710
   0.47072962  0.39579961 -0.01609711
   0.52927041  0.60420039  0.01609713
   0.04467162  0.07925415  0.08676722
   0.95532839  0.92074583  0.91323275
   0.45532839  0.92074583  0.58676725
   0.54467161  0.07925415  0.41323278
   0.95532839  0.57925417  0.41323278
   0.04467162  0.42074586  0.58676725
   0.54467161  0.42074586  0.91323275
   0.45532839  0.57925417  0.08676722
   0.89732329  0.03955732  0.89800721
   0.10267671  0.96044266  0.10199279
   0.60267671  0.96044266  0.39800721
   0.39732329  0.03955732  0.60199279
   0.10267671  0.53955734  0.60199279
   0.89732329  0.46044269  0.39800721
   0.39732329  0.46044269  0.10199279
   0.60267671  0.53955734  0.89800721
   0.88218115  0.30997452  0.99984546
   0.11781884  0.69002550  0.00015457
   0.61781885  0.69002550  0.49984543
   0.38218115  0.30997452  0.50015454
   0.11781884  0.80997450  0.50015454
   0.88218115  0.19002550  0.49984543
   0.38218115  0.19002550  0.00015457
   0.61781885  0.80997450  0.99984546
   0.16992060  0.20621241  0.30003567
   0.83007939  0.79378757  0.69996432
   0.33007939  0.79378757  0.80003568
   0.66992061  0.20621241  0.19996432
   0.83007939  0.70621243  0.19996432
   0.16992060  0.29378757  0.80003568
   0.66992061  0.29378757  0.69996432
   0.33007939  0.70621243  0.30003567
   0.70618434  0.10237835  0.71438983
   0.29381565  0.89762166  0.28561019
   0.79381566  0.89762166  0.21438983
   0.20618434  0.10237835  0.78561017
   0.29381565  0.60237834  0.78561017
   0.70618434  0.39762166  0.21438983
   0.20618434  0.39762166  0.28561019
   0.79381566  0.60237834  0.71438983
Direct configuration=     3
   0.95185787  0.12968839  0.00366044
   0.04814211  0.87031161 -0.00366042
   0.54814213  0.87031161  0.50366041
   0.45185790  0.12968839  0.49633956
   0.04814211  0.62968839  0.49633956
   0.95185787  0.37031161  0.50366041
   0.45185790  0.37031161 -0.00366042
   0.54814213  0.62968839  0.00366044
   0.06918951  0.08768349  0.12159063
   0.93081050  0.91231649  0.87840934
   0.43081050  0.91231649  0.62159066
   0.56918950  0.08768349  0.37840937
   0.93081050  0.58768351  0.37840937
   0.06918951  0.41231652  0.62159066
   0.56918950  0.41231652  0.87840934
   0.43081050  0.58768351  0.12159063
   0.87647228  0.04401600  0.87800790
   0.12352772  0.95598398  0.12199210
   0.62352772  0.95598398  0.37800790
   0.37647228  0.04401600  0.62199210
   0.12352772  0.54401602  0.62199210
   0.87647228  0.45598401  0.37800790
   0.37647228  0.45598401  0.12199210
   0.62352772  0.54401602  0.87800790
   0.90432608  0.25016516  0.99927660
   0.09567391  0.74983486  0.00072342
   0.59567392  0.74983486  0.49927658
   0.40432608  0.25016516  0.50072340
   0.09567391  0.75016514  0.50072340
   0.90432608  0.24983486  0.49927658
   0.40432608  0.24983486  0.00072342
   0.59567392  0.75016514  0.99927660
   0.13678536  0.16484170  0.24079014
   0.86321463  0.83515829  0.75920985
   0.36321463  0.83515829  0.74079015
   0.63678537  0.16484170  0.25920985
   0.86321463  0.66484171  0.25920985
   0.13678536  0.33515829  0.74079015
   0.63678537  0.33515829  0.75920985
   0.36321463  0.66484171  0.24079014
   0.76312522  0.08255368  0.76957136
   0.23687477  0.91744633  0.23042866
   0.73687478  0.91744633  0.26957136
   0.26312522  0.08255368  0.73042864
   0.23687477  0.58255367  0.73042864
   0.76312522  0.41744633  0.26957136
   0.26312522  0.41744633  0.23042866
   0.73687478  0.58255367  0.76957136
Direct configuration=     4
   0.95003393  0.13215178  0.00245845
   0.04996605  0.86784822 -0.00245842
   0.54996607  0.86784822  0.50245842
   0.45003396  0.13215178  0.49754155
   0.04996605  0.63215178  0.49754155
   0.95003393  0.36784822  0.50245842
   0.45003396  0.36784822 -0.00245842
   0.54996607  0.63215178  0.00245845
   0.07155915  0.08849818  0.12495628
   0.92844087  0.91150180  0.87504369
   0.42844087  0.91150180  0.62495631
   0.57155913  0.08849818  0.37504372
   0.92844087  0.58849820  0.37504372
   0.07155915  0.41150183  0.62495631
   0.57155913  0.41150183  0.87504369
   0.42844087  0.58849820  0.12495628
   0.87445704  0.04444693  0.87607499
   0.12554296  0.95555305  0.12392501
   0.62554296  0.95555305  0.37607499
   0.37445704  0.04444693  0.62392501
   0.12554296  0.54444695  0.62392501
   0.87445704  0.45555308  0.37607499
   0.37445704  0.45555308  0.12392501
   0.62554296  0.54444695  0.87607499
   0.90646636  0.24438464  0.99922163
   0.09353362  0.75561538  0.00077840
   0.59353364  0.75561538  0.49922160
   0.40646636  0.24438464  0.50077837
   0.09353362  0.74438462  0.50077837
   0.90646636  0.25561538  0.49922160
   0.40646636  0.25561538  0.00077840
   0.59353364  0.74438462  0.99922163
   0.13358287  0.16084325  0.23506411
   0.86641712  0.83915673  0.76493588
   0.36641712  0.83915673  0.73506412
   0.63358288  0.16084325  0.26493588
   0.86641712  0.66084327  0.26493588
   0.13358287  0.33915673  0.73506412
   0.63358288  0.33915673  0.76493588
   0.36641712  0.66084327  0.23506411
   0.76862850  0.08063765  0.77490460
   0.23137148  0.91936237  0.22509541
   0.73137150  0.91936237  0.27490460
   0.26862850  0.08063765  0.72509540
   0.23137148  0.58063763  0.72509540
   0.76862850  0.41936237  0.27490460
   0.26862850  0.41936237  0.22509541
   0.73137150  0.58063763  0.77490460
Direct configuration=     5
   0.94926500  0.13319029  0.00195172
   0.05073498  0.86680971 -0.00195169
   0.55073500  0.86680971  0.50195169
   0.44926503  0.13319029  0.49804828
   0.05073498  0.63319029  0.49804828
   0.94926500  0.36680971  0.50195169
   0.44926503  0.36680971 -0.00195169
   0.55073500  0.63319029  0.00195172
   0.07255813  0.08884163  0.12637516
   0.92744189  0.91115835  0.87362481
   0.42744189  0.91115835  0.62637519
   0.57255811  0.08884163  0.37362484
   0.92744189  0.58884165  0.37362484
   0.07255813  0.41115838  0.62637519
   0.57255811  0.41115838  0.87362481
   0.42744189  0.58884165  0.12637516
   0.87360747  0.04462860  0.87526011
   0.12639253  0.95537138  0.12473989
   0.62639253  0.95537138  0.37526011
   0.37360747  0.04462860  0.62473989
   0.12639253  0.54462862  0.62473989
   0.87360747  0.45537141  0.37526011
   0.37360747  0.45537141  0.12473989
   0.62639253  0.54462862  0.87526011
   0.90736866  0.24194770  0.99919845
   0.09263132  0.75805231  0.00080158
   0.59263134  0.75805231  0.49919842
   0.40736866  0.24194770  0.50080155
   0.09263132  0.74194769  0.50080155
   0.90736866  0.25805231  0.49919842
   0.40736866  0.25805231  0.00080158
   0.59263134  0.74194769  0.99919845
   0.13223277  0.15915760  0.23265015
   0.86776722  0.84084238  0.76734984
   0.36776722  0.84084238  0.73265016
   0.63223278  0.15915760  0.26734984
   0.86776722  0.65915762  0.26734984
   0.13223277  0.34084238  0.73265016
   0.63223278  0.34084238  0.76734984
   0.36776722  0.65915762  0.23265015
   0.77094856  0.07982989  0.77715298
   0.22905142  0.92017012  0.22284704
   0.72905144  0.92017012  0.27715298
   0.27094856  0.07982989  0.72284702
   0.22905142  0.57982988  0.72284702
   0.77094856  0.42017012  0.27715298
   0.27094856  0.42017012  0.22284704
   0.72905144  0.57982988  0.77715298
Direct configuration=     6
   0.93738750  0.16310401  0.00295740
   0.06261249  0.83689599 -0.00295738
   0.56261250  0.83689599  0.50295737
   0.43738753  0.16310401  0.49704260
   0.06261249  0.66310401  0.49704260
   0.93738750  0.33689599  0.50295737
   0.43738753  0.33689599 -0.00295738
   0.56261250  0.66310401  0.00295740
   0.08890292  0.10917054  0.15374373
   0.91109710  0.89082943  0.84625624
   0.41109710  0.89082943  0.65374376
   0.58890290  0.10917054  0.34625627
   0.91109710  0.60917057  0.34625627
   0.08890292  0.39082946  0.65374376
   0.58890290  0.39082946  0.84625624
   0.41109710  0.60917057  0.15374373
   0.84967093  0.05392431  0.85096541
   0.15032907  0.94607567  0.14903459
   0.65032907  0.94607567  0.35096541
   0.34967093  0.05392431  0.64903459
   0.15032907  0.55392433  0.64903459
   0.84967093  0.44607570  0.35096541
   0.34967093  0.44607570  0.14903459
   0.65032907  0.55392433  0.85096541
   0.89362701  0.27946274  0.00041309
   0.10637297  0.72053727 -0.00041306
   0.60637299  0.72053727  0.50041306
   0.39362701  0.27946274  0.49958691
   0.10637297  0.77946273  0.49958691
   0.89362701  0.22053727  0.50041306
   0.39362701  0.22053727 -0.00041306
   0.60637299  0.77946273  0.00041309
   0.15252755  0.18491122  0.26858513
   0.84747244  0.81508877  0.73141485
   0.34747244  0.81508877  0.76858515
   0.65252756  0.18491122  0.23141485
   0.84747244  0.68491123  0.23141485
   0.15252755  0.31508877  0.76858515
   0.65252756  0.31508877  0.73141485
   0.34747244  0.68491123  0.26858513
   0.73362066  0.09284293  0.74052787
   0.26637933  0.90715708  0.25947215
   0.76637934  0.90715708  0.24052787
   0.23362066  0.09284293  0.75947213
   0.26637933  0.59284292  0.75947213
   0.73362066  0.40715708  0.24052787
   0.23362066  0.40715708  0.25947215
   0.76637934  0.59284292  0.74052787
Direct configuration=     7
   0.94179944  0.15199246  0.00258384
   0.05820055  0.84800754 -0.00258381
   0.55820056  0.84800754  0.50258381
   0.44179947  0.15199246  0.49741616
   0.05820055  0.65199246  0.49741616
   0.94179944  0.34800754  0.50258381
   0.44179947  0.34800754 -0.00258381
   0.55820056  0.65199246  0.00258384
   0.08283159  0.10161930  0.14357758
   0.91716842  0.89838068  0.85642239
   0.41716842  0.89838068  0.64357761
   0.58283158  0.10161930  0.35642242
   0.91716842  0.60161932  0.35642242
   0.08283159  0.39838071  0.64357761
   0.58283158  0.39838071  0.85642239
   0.41716842  0.60161932  0.14357758
   0.85856224  0.05047138  0.85998976
   0.14143776  0.94952859  0.14001024
   0.64143776  0.94952859  0.35998976
   0.35856224  0.05047138  0.64001024
   0.14143776  0.55047141  0.64001024
   0.85856224  0.44952862  0.35998976
   0.35856224  0.44952862  0.14001024
   0.64143776  0.55047141  0.85998976
   0.89873139  0.26552765 -0.00003809
   0.10126859  0.73447236  0.00003812
   0.60126861  0.73447236  0.49996188
   0.39873139  0.26552765  0.50003809
   0.10126859  0.76552764  0.50003809
   0.89873139  0.23447236  0.49996188
   0.39873139  0.23447236  0.00003812
   0.60126861  0.76552764 -0.00003809
   0.14498899  0.17534495  0.25523696
   0.85501100  0.82465504  0.74476302
   0.35501100  0.82465504  0.75523698
   0.64498900  0.17534495  0.24476302
   0.85501100  0.67534496  0.24476302
   0.14498899  0.32465504  0.75523698
   0.64498900  0.32465504  0.74476302
   0.35501100  0.67534496  0.25523696
   0.74748623  0.08800920  0.75413239
   0.25251375  0.91199082  0.24586763
   0.75251377  0.91199082  0.25413239
   0.24748623  0.08800920  0.74586761
   0.25251375  0.58800918  0.74586761
   0.74748623  0.41199082  0.25413239
   0.24748623  0.41199082  0.24586763
   0.75251377  0.58800918  0.75413239
Direct configuration=     8
   0.94166682  0.15232646  0.00259506
   0.05833316  0.84767354 -0.00259504
   0.55833318  0.84767354  0.50259504
   0.44166685  0.15232646  0.49740494
   0.05833316  0.65232646  0.49740494
   0.94166682  0.34767354  0.50259504
   0.44166685  0.34767354 -0.00259504
   0.55833318  0.65232646  0.00259506
   0.08301409  0.10184628  0.14388317
   0.91698593  0.89815369  0.85611680
   0.41698593  0.89815369  0.64388320
   0.58301407  0.10184628  0.35611683
   0.91698593  0.60184631  0.35611683
   0.08301409  0.39815372  0.64388320
   0.58301407  0.39815372  0.85611680
   0.41698593  0.60184631  0.14388317
   0.85829498  0.05057518  0.85971850
   0.14170502  0.94942480  0.14028150
   0.64170502  0.94942480  0.35971850
   0.35829498  0.05057518  0.64028150
   0.14170502  0.55057520  0.64028150
   0.85829498  0.44942483  0.35971850
   0.35829498  0.44942483  0.14028150
   0.64170502  0.55057520  0.85971850
   0.89857796  0.26594653 -0.00002453
   0.10142202  0.73405348  0.00002456
   0.60142204  0.73405348  0.49997544
   0.39857796  0.26594653  0.50002453
   0.10142202  0.76594652  0.50002453
   0.89857796  0.23405348  0.49997544
   0.39857796  0.23405348  0.00002456
   0.60142204  0.76594652 -0.00002453
   0.14521559  0.17563250  0.25563820
   0.85478440  0.82436748  0.74436179
   0.35478440  0.82436748  0.75563821
   0.64521560  0.17563250  0.24436179
   0.85478440  0.67563252  0.24436179
   0.14521559  0.32436748  0.75563821
   0.64521560  0.32436748  0.74436179
   0.35478440  0.67563252  0.25563820
   0.74706945  0.08815449  0.75372345
   0.25293054  0.91184552  0.24627657
   0.75293055  0.91184552  0.25372345
   0.24706945  0.08815449  0.74627655
   0.25293054  0.58815448  0.74627655
   0.74706945  0.41184552  0.25372345
   0.24706945  0.41184552  0.24627657
   0.75293055  0.58815448  0.75372345
Direct configuration=     9
   0.94290405  0.14872776  0.00258975
   0.05709593  0.85127224 -0.00258972
   0.55709595  0.85127224  0.50258972
   0.44290408  0.14872776  0.49741025
   0.05709593  0.64872776  0.49741025
   0.94290405  0.35127224  0.50258972
   0.44290408  0.35127224 -0.00258972
   0.55709595  0.64872776  0.00258975
   0.08232790  0.09890880  0.14152983
   0.91767211  0.90109118  0.85847014
   0.41767211  0.90109118  0.64152986
   0.58232789  0.09890880  0.35847017
   0.91767211  0.59890882  0.35847017
   0.08232790  0.40109121  0.64152986
   0.58232789  0.40109121  0.85847014
   0.41767211  0.59890882  0.14152983
   0.85829286  0.04955452  0.85930791
   0.14170714  0.95044545  0.14069209
   0.64170714  0.95044545  0.35930791
   0.35829286  0.04955452  0.64069209
   0.14170714  0.54955455  0.64069209
   0.85829286  0.45044548  0.35930791
   0.35829286  0.45044548  0.14069209
   0.64170714  0.54955455  0.85930791
   0.89470611  0.27647508  0.00072726
   0.10529387  0.72352494 -0.00072723
   0.60529389  0.72352494  0.50072723
   0.39470611  0.27647508  0.49927274
   0.10529387  0.77647506  0.49927274
   0.89470611  0.22352494  0.50072723
   0.39470611  0.22352494 -0.00072723
   0.60529389  0.77647506  0.00072726
   0.15024823  0.18194738  0.26421284
   0.84975176  0.81805260  0.73578714
   0.34975176  0.81805260  0.76421286
   0.65024824  0.18194738  0.23578714
   0.84975176  0.68194740  0.23578714
   0.15024823  0.31805260  0.76421286
   0.65024824  0.31805260  0.73578714
   0.34975176  0.68194740  0.26421284
   0.74092441  0.09010009  0.74740421
   0.25907557  0.90989993  0.25259580
   0.75907559  0.90989993  0.24740421
   0.24092441  0.09010009  0.75259579
   0.25907557  0.59010007  0.75259579
   0.74092441  0.40989993  0.24740421
   0.24092441  0.40989993  0.25259580
   0.75907559  0.59010007  0.74740421
Direct configuration=    10
   0.94203509  0.15125526  0.00259348
   0.05796489  0.84874474 -0.00259346
   0.55796491  0.84874474  0.50259345
   0.44203512  0.15125526  0.49740652
   0.05796489  0.65125526  0.49740652
   0.94203509  0.34874474  0.50259345
   0.44203512  0.34874474 -0.00259346
   0.55796491  0.65125526  0.00259348
   0.08280984  0.10097190  0.14318267
   0.91719018  0.89902807  0.85681730
   0.41719018  0.89902807  0.64318270
   0.58280982  0.10097190  0.35681733
   0.91719018  0.60097193  0.35681733
   0.08280984  0.39902810  0.64318270
   0.58280982  0.39902810  0.85681730
   0.41719018  0.60097193  0.14318267
   0.85829435  0.05027137  0.85959628
   0.14170565  0.94972861  0.14040372
   0.64170565  0.94972861  0.35959628
   0.35829435  0.05027137  0.64040372
   0.14170565  0.55027139  0.64040372
   0.85829435  0.44972864  0.35959628
   0.35829435  0.44972864  0.14040372
   0.64170565  0.55027139  0.85959628
   0.89742546  0.26908048  0.00019925
   0.10257453  0.73091953 -0.00019922
   0.60257454  0.73091953  0.50019922
   0.39742546  0.26908048  0.49980075
   0.10257453  0.76908047  0.49980075
   0.89742546  0.23091953  0.50019922
   0.39742546  0.23091953 -0.00019922
   0.60257454  0.76908047  0.00019925
   0.14671362  0.17751221  0.25819055
   0.85328637  0.82248778  0.74180944
   0.35328637  0.82248778  0.75819056
   0.64671363  0.17751221  0.24180944
   0.85328637  0.67751222  0.24180944
   0.14671362  0.32248778  0.75819056
   0.64671363  0.32248778  0.74180944
   0.35328637  0.67751222  0.25819055
   0.74524030  0.08873362  0.75184245
   0.25475968  0.91126639  0.24815757
   0.75475970  0.91126639  0.25184245
   0.24524030  0.08873362  0.74815755
   0.25475968  0.58873361  0.74815755
   0.74524030  0.41126639  0.25184245
   0.24524030  0.41126639  0.24815757
   0.75475970  0.58873361  0.75184245
Direct configuration=    11
   0.94170186  0.15092639  0.00196014
   0.05829812  0.84907361 -0.00196012
   0.55829814  0.84907361  0.50196011
   0.44170189  0.15092639  0.49803986
   0.05829812  0.65092639  0.49803986
   0.94170186  0.34907361  0.50196011
   0.44170189  0.34907361 -0.00196012
   0.55829814  0.65092639  0.00196014
   0.08329096  0.10034008  0.14358098
   0.91670906  0.89965989  0.85641899
   0.41670906  0.89965989  0.64358101
   0.58329094  0.10034008  0.35641902
   0.91670906  0.60034011  0.35641902
   0.08329096  0.39965992  0.64358101
   0.58329094  0.39965992  0.85641899
   0.41670906  0.60034011  0.14358098
   0.85817623  0.05011556  0.85964955
   0.14182377  0.94988442  0.14035045
   0.64182377  0.94988442  0.35964955
   0.35817623  0.05011556  0.64035045
   0.14182377  0.55011558  0.64035045
   0.85817623  0.44988445  0.35964955
   0.35817623  0.44988445  0.14035045
   0.64182377  0.55011558  0.85964955
   0.89745393  0.26924760  0.00081655
   0.10254606  0.73075242 -0.00081652
   0.60254607  0.73075242  0.50081652
   0.39745393  0.26924760  0.49918345
   0.10254606  0.76924758  0.49918345
   0.89745393  0.23075242  0.50081652
   0.39745393  0.23075242 -0.00081652
   0.60254607  0.76924758  0.00081655
   0.14659780  0.17751080  0.25770104
   0.85340218  0.82248919  0.74229895
   0.35340218  0.82248919  0.75770105
   0.64659782  0.17751080  0.24229895
   0.85340218  0.67751081  0.24229895
   0.14659780  0.32248919  0.75770105
   0.64659782  0.32248919  0.74229895
   0.35340218  0.67751081  0.25770104
   0.74588493  0.08834401  0.75222387
   0.25411506  0.91165600  0.24777614
   0.75411507  0.91165600  0.25222387
   0.24588493  0.08834401  0.74777613
   0.25411506  0.58834400  0.74777613
   0.74588493  0.41165600  0.25222387
   0.24588493  0.41165600  0.24777614
   0.75411507  0.58834400  0.75222387
Direct configuration=    12
   0.94185493  0.15107746  0.00225106
   0.05814506  0.84892254 -0.00225103
   0.55814507  0.84892254  0.50225103
   0.44185496  0.15107746  0.49774894
   0.05814506  0.65107746  0.49774894
   0.94185493  0.34892254  0.50225103
   0.44185496  0.34892254 -0.00225103
   0.55814507  0.65107746  0.00225106
   0.08306996  0.10063030  0.14339802
   0.91693005  0.89936967  0.85660195
   0.41693005  0.89936967  0.64339805
   0.58306995  0.10063030  0.35660198
   0.91693005  0.60063033  0.35660198
   0.08306996  0.39936970  0.64339805
   0.58306995  0.39936970  0.85660195
   0.41693005  0.60063033  0.14339802
   0.85823049  0.05018713  0.85962508
   0.14176951  0.94981285  0.14037492
   0.64176951  0.94981285  0.35962508
   0.35823049  0.05018713  0.64037492
   0.14176951  0.55018715  0.64037492
   0.85823049  0.44981288  0.35962508
   0.35823049  0.44981288  0.14037492
   0.64176951  0.55018715  0.85962508
   0.89744085  0.26917083  0.00053300
   0.10255913  0.73082918 -0.00053297
   0.60255915  0.73082918  0.50053297
   0.39744085  0.26917083  0.49946700
   0.10255913  0.76917082  0.49946700
   0.89744085  0.23082918  0.50053297
   0.39744085  0.23082918 -0.00053297
   0.60255915  0.76917082  0.00053300
   0.14665100  0.17751144  0.25792589
   0.85334898  0.82248854  0.74207410
   0.35334898  0.82248854  0.75792590
   0.64665102  0.17751144  0.24207410
   0.85334898  0.67751146  0.24207410
   0.14665100  0.32248854  0.75792590
   0.64665102  0.32248854  0.74207410
   0.35334898  0.67751146  0.25792589
   0.74558883  0.08852297  0.75204867
   0.25441116  0.91147704  0.24795134
   0.75441117  0.91147704  0.25204867
   0.24558883  0.08852297  0.74795133
   0.25441116  0.58852296  0.74795133
   0.74558883  0.41147704  0.25204867
   0.24558883  0.41147704  0.24795134
   0.75441117  0.58852296  0.75204867
Direct configuration=    13
   0.94208679  0.15084899  0.00237158
   0.05791319  0.84915101 -0.00237156
   0.55791321  0.84915101  0.50237155
   0.44208682  0.15084899  0.49762842
   0.05791319  0.65084899  0.49762842
   0.94208679  0.34915101  0.50237155
   0.44208682  0.34915101 -0.00237156
   0.55791321  0.65084899  0.00237158
   0.08283800  0.10047402  0.14314206
   0.91716202  0.89952596  0.85685791
   0.41716202  0.89952596  0.64314209
   0.58283798  0.10047402  0.35685794
   0.91716202  0.60047404  0.35685794
   0.08283800  0.39952599  0.64314209
   0.58283798  0.39952599  0.85685791
   0.41716202  0.60047404  0.14314206
   0.85801694  0.05019763  0.85962782
   0.14198306  0.94980235  0.14037218
   0.64198306  0.94980235  0.35962782
   0.35801694  0.05019763  0.64037218
   0.14198306  0.55019765  0.64037218
   0.85801694  0.44980238  0.35962782
   0.35801694  0.44980238  0.14037218
   0.64198306  0.55019765  0.85962782
   0.89749923  0.26922984  0.00125470
   0.10250075  0.73077017 -0.00125467
   0.60250077  0.73077017  0.50125467
   0.39749923  0.26922984  0.49874530
   0.10250075  0.76922983  0.49874530
   0.89749923  0.23077017  0.50125467
   0.39749923  0.23077017 -0.00125467
   0.60250077  0.76922983  0.00125470
   0.14660971  0.17757564  0.25748426
   0.85339027  0.82242435  0.74251572
   0.35339027  0.82242435  0.75748428
   0.64660973  0.17757564  0.24251572
   0.85339027  0.67757565  0.24251572
   0.14660971  0.32242435  0.75748428
   0.64660973  0.32242435  0.74251572
   0.35339027  0.67757565  0.25748426
   0.74604542  0.08816565  0.75220843
   0.25395456  0.91183436  0.24779159
   0.75395458  0.91183436  0.25220843
   0.24604542  0.08816565  0.74779157
   0.25395456  0.58816564  0.74779157
   0.74604542  0.41183436  0.25220843
   0.24604542  0.41183436  0.24779159
   0.75395458  0.58816564  0.75220843
Direct configuration=    14
   0.94204363  0.15089152  0.00234914
   0.05795635  0.84910848 -0.00234912
   0.55795637  0.84910848  0.50234912
   0.44204366  0.15089152  0.49765086
   0.05795635  0.65089152  0.49765086
   0.94204363  0.34910848  0.50234912
   0.44204366  0.34910848 -0.00234912
   0.55795637  0.65089152  0.00234914
   0.08288118  0.10050311  0.14318971
   0.91711884  0.89949686  0.85681026
   0.41711884  0.89949686  0.64318974
   0.58288116  0.10050311  0.35681029
   0.91711884  0.60050314  0.35681029
   0.08288118  0.39949689  0.64318974
   0.58288116  0.39949689  0.85681026
   0.41711884  0.60050314  0.14318971
   0.85805669  0.05019568  0.85962731
   0.14194331  0.94980430  0.14037269
   0.64194331  0.94980430  0.35962731
   0.35805669  0.05019568  0.64037269
   0.14194331  0.55019570  0.64037269
   0.85805669  0.44980433  0.35962731
   0.35805669  0.44980433  0.14037269
   0.64194331  0.55019570  0.85962731
   0.89748837  0.26921886  0.00112035
   0.10251162  0.73078116 -0.00112032
   0.60251163  0.73078116  0.50112032
   0.39748837  0.26921886  0.49887965
   0.10251162  0.76921884  0.49887965
   0.89748837  0.23078116  0.50112032
   0.39748837  0.23078116 -0.00112032
   0.60251163  0.76921884  0.00112035
   0.14661740  0.17756369  0.25756648
   0.85338259  0.82243630  0.74243351
   0.35338259  0.82243630  0.75756649
   0.64661741  0.17756369  0.24243351
   0.85338259  0.67756370  0.24243351
   0.14661740  0.32243630  0.75756649
   0.64661741  0.32243630  0.74243351
   0.35338259  0.67756370  0.25756648
   0.74596042  0.08823217  0.75217869
   0.25403956  0.91176784  0.24782133
   0.75403958  0.91176784  0.25217869
   0.24596042  0.08823217  0.74782131
   0.25403956  0.58823216  0.74782131
   0.74596042  0.41176784  0.25217869
   0.24596042  0.41176784  0.24782133
   0.75403958  0.58823216  0.75217869
Direct configuration=    15
   0.94205207  0.15093782  0.00241002
   0.05794792  0.84906218 -0.00241000
   0.55794793  0.84906218  0.50240999
   0.44205210  0.15093782  0.49758998
   0.05794792  0.65093782  0.49758998
   0.94205207  0.34906218  0.50240999
   0.44205210  0.34906218 -0.00241000
   0.55794793  0.65093782  0.00241002
   0.08278763  0.10047237  0.14308255
   0.91721238  0.89952760  0.85691742
   0.41721238  0.89952760  0.64308258
   0.58278762  0.10047237  0.35691745
   0.91721238  0.60047240  0.35691745
   0.08278763  0.39952763  0.64308258
   0.58278762  0.39952763  0.85691742
   0.41721238  0.60047240  0.14308255
   0.85813982  0.05018031  0.85987785
   0.14186018  0.94981967  0.14012215
   0.64186018  0.94981967  0.35987785
   0.35813982  0.05018031  0.64012215
   0.14186018  0.55018033  0.64012215
   0.85813982  0.44981970  0.35987785
   0.35813982  0.44981970  0.14012215
   0.64186018  0.55018033  0.85987785
   0.89760577  0.26911676  0.00181795
   0.10239421  0.73088326 -0.00181792
   0.60239423  0.73088326  0.50181792
   0.39760577  0.26911676  0.49818205
   0.10239421  0.76911674  0.49818205
   0.89760577  0.23088326  0.50181792
   0.39760577  0.23088326 -0.00181792
   0.60239423  0.76911674  0.00181795
   0.14656145  0.17760788  0.25711850
   0.85343854  0.82239210  0.74288148
   0.35343854  0.82239210  0.75711852
   0.64656146  0.17760788  0.24288148
   0.85343854  0.67760790  0.24288148
   0.14656145  0.32239210  0.75711852
   0.64656146  0.32239210  0.74288148
   0.35343854  0.67760790  0.25711850
   0.74611276  0.08799248  0.75207733
   0.25388722  0.91200754  0.24792268
   0.75388724  0.91200754  0.25207733
   0.24611276  0.08799248  0.74792267
   0.25388722  0.58799246  0.74792267
   0.74611276  0.41200754  0.25207733
   0.24611276  0.41200754  0.24792268
   0.75388724  0.58799246  0.75207733
Direct configuration=    16
   0.94206525  0.15101015  0.00250512
   0.05793473  0.84898985 -0.00250510
   0.55793475  0.84898985  0.50250509
   0.44206528  0.15101015  0.49749488
   0.05793473  0.65101015  0.49749488
   0.94206525  0.34898985  0.50250509
   0.44206528  0.34898985 -0.00250510
   0.55793475  0.65101015  0.00250512
   0.08264149  0.10042435  0.14291514
   0.91735852  0.89957562  0.85708483
   0.41735852  0.89957562  0.64291517
   0.58264148  0.10042435  0.35708486
   0.91735852  0.60042438  0.35708486
   0.08264149  0.39957565  0.64291517
   0.58264148  0.39957565  0.85708483
   0.41735852  0.60042438  0.14291514
   0.85826968  0.05015630  0.86026924
   0.14173032  0.94984368  0.13973076
   0.64173032  0.94984368  0.36026924
   0.35826968  0.05015630  0.63973076
   0.14173032  0.55015632  0.63973076
   0.85826968  0.44984370  0.36026924
   0.35826968  0.44984370  0.13973076
   0.64173032  0.55015632  0.86026924
   0.89778918  0.26895725  0.00290777
   0.10221080  0.73104276 -0.00290774
   0.60221082  0.73104276  0.50290774
   0.39778918  0.26895725  0.49709223
   0.10221080  0.76895724  0.49709223
   0.89778918  0.23104276  0.50290774
   0.39778918  0.23104276 -0.00290774
   0.60221082  0.76895724  0.00290777
   0.14647404  0.17767693  0.25641867
   0.85352595  0.82232306  0.74358132
   0.35352595  0.82232306  0.75641868
   0.64647405  0.17767693  0.24358132
   0.85352595  0.67767694  0.24358132
   0.14647404  0.32232306  0.75641868
   0.64647405  0.32232306  0.74358132
   0.35352595  0.67767694  0.25641867
   0.74635074  0.08761802  0.75191900
   0.25364924  0.91238199  0.24808102
   0.75364926  0.91238199  0.25191900
   0.24635074  0.08761802  0.74808100
   0.25364924  0.58761801  0.74808100
   0.74635074  0.41238199  0.25191900
   0.24635074  0.41238199  0.24808102
   0.75364926  0.58761801  0.75191900
Direct configuration=    17
   0.94189266  0.15105632  0.00255851
   0.05810733  0.84894368 -0.00255848
   0.55810734  0.84894368  0.50255848
   0.44189269  0.15105632  0.49744149