  32  32   0   0
  0.9306161E+01  0.4934311E-09  0.4934311E-09  0.1412406E-08  0.5000000E-15
  1.000000000000000E-004
  CAR 
 graphite                                
     15.04318528    -17.34618737  301      4.23400562      1.00000000
    -17.346  0.0000E+00  0.0000E+00
    -17.238  0.0000E+00  0.0000E+00
    -17.130  0.0000E+00  0.0000E+00
    -17.022  0.0000E+00  0.0000E+00
    -16.914  0.0000E+00  0.0000E+00
    -16.806  0.0000E+00  0.0000E+00
    -16.698  0.0000E+00  0.0000E+00
    -16.590  0.0000E+00  0.0000E+00
    -16.482  0.0000E+00  0.0000E+00
    -16.375  0.0000E+00  0.0000E+00
    -16.267  0.0000E+00  0.0000E+00
    -16.159  0.0000E+00  0.0000E+00
    -16.051  0.0000E+00  0.0000E+00
    -15.943  0.0000E+00  0.0000E+00
    -15.835  0.0000E+00  0.0000E+00
    -15.727  0.0000E+00  0.0000E+00
    -15.619  0.0000E+00  0.0000E+00
    -15.511  0.0000E+00  0.0000E+00
    -15.403  0.0000E+00  0.0000E+00
    -15.295  0.1234E+01  0.2456E-01
    -15.187  0.3087E+01  0.2705E+00
    -15.079  0.5057E+01  0.7432E+00
    -14.971  0.4947E+01  0.1267E+01
    -14.863  0.4896E+01  0.1799E+01
    -14.755  0.4981E+01  0.2335E+01
    -14.647  0.4904E+01  0.2870E+01
    -14.539  0.4915E+01  0.3397E+01
    -14.431  0.5034E+01  0.3935E+01
    -14.323  0.4997E+01  0.4476E+01
    -14.215  0.4962E+01  0.5013E+01
    -14.107  0.5744E+01  0.5589E+01
    -13.999  0.6213E+01  0.6229E+01
    -13.891  0.6501E+01  0.6924E+01
    -13.783  0.5428E+01  0.7522E+01
    -13.675  0.1817E+01  0.7775E+01
    -13.567  0.4024E+01  0.8077E+01
    -13.459  0.4560E+01  0.8566E+01
    -13.351  0.4273E+01  0.9051E+01
    -13.244  0.7044E+01  0.9838E+01
    -13.136  0.4285E+01  0.1057E+02
    -13.028  0.4369E+01  0.1103E+02
    -12.920  0.4503E+01  0.1151E+02
    -12.812  0.4611E+01  0.1200E+02
    -12.704  0.4720E+01  0.1251E+02
    -12.596  0.5403E+01  0.1305E+02
    -12.488  0.6107E+01  0.1367E+02
    -12.380  0.5359E+01  0.1429E+02
    -12.272  0.5638E+01  0.1488E+02
    -12.164  0.5122E+01  0.1546E+02
    -12.056  0.4809E+01  0.1599E+02
    -11.948  0.4908E+01  0.1651E+02
    -11.840  0.4987E+01  0.1705E+02
    -11.732  0.5045E+01  0.1759E+02
    -11.624  0.5173E+01  0.1814E+02
    -11.516  0.5586E+01  0.1872E+02
    -11.408  0.5823E+01  0.1934E+02
    -11.300  0.5696E+01  0.1997E+02
    -11.192  0.5645E+01  0.2058E+02
    -11.084  0.5761E+01  0.2119E+02
    -10.976  0.5159E+01  0.2180E+02
    -10.868  0.5108E+01  0.2233E+02
    -10.760  0.5406E+01  0.2290E+02
    -10.652  0.5380E+01  0.2348E+02
    -10.544  0.5503E+01  0.2406E+02
    -10.436  0.5722E+01  0.2467E+02
    -10.328  0.5958E+01  0.2530E+02
    -10.221  0.8032E+01  0.2603E+02
    -10.113  0.9373E+01  0.2709E+02
    -10.005  0.6111E+01  0.2792E+02
     -9.897  0.7401E+01  0.2852E+02
     -9.789  0.3918E+01  0.2931E+02
     -9.681  0.3541E+01  0.2971E+02
     -9.573  0.3172E+01  0.3008E+02
     -9.465  0.2803E+01  0.3040E+02
     -9.357  0.2434E+01  0.3068E+02
     -9.249  0.2464E+01  0.3093E+02
     -9.141  0.3117E+01  0.3127E+02
     -9.033  0.1415E+01  0.3151E+02
     -8.925  0.1676E+01  0.3167E+02
     -8.817  0.2602E+01  0.3190E+02
     -8.709  0.7271E+01  0.3237E+02
     -8.601  0.4330E+01  0.3310E+02
     -8.493  0.3952E+01  0.3352E+02
     -8.385  0.4281E+01  0.3397E+02
     -8.277  0.8363E+01  0.3465E+02
     -8.169  0.6428E+01  0.3541E+02
     -8.061  0.7525E+01  0.3616E+02
     -7.953  0.8579E+01  0.3703E+02
     -7.845  0.7880E+01  0.3798E+02
     -7.737  0.6270E+01  0.3869E+02
     -7.629  0.6013E+01  0.3936E+02
     -7.521  0.5758E+01  0.3999E+02
     -7.413  0.5526E+01  0.4060E+02
     -7.305  0.5339E+01  0.4119E+02
     -7.198  0.5157E+01  0.4175E+02
     -7.090  0.4961E+01  0.4230E+02
     -6.982  0.4854E+01  0.4283E+02
     -6.874  0.4825E+01  0.4335E+02
     -6.766  0.4793E+01  0.4387E+02
     -6.658  0.4619E+01  0.4438E+02
     -6.550  0.4411E+01  0.4487E+02
     -6.442  0.4328E+01  0.4534E+02
     -6.334  0.4025E+01  0.4575E+02
     -6.226  0.4311E+01  0.4619E+02
     -6.118  0.4941E+01  0.4669E+02
     -6.010  0.5833E+01  0.4727E+02
     -5.902  0.6543E+01  0.4794E+02
     -5.794  0.1062E+02  0.4890E+02
     -5.686  0.8392E+01  0.4993E+02
     -5.578  0.6161E+01  0.5071E+02
     -5.470  0.3931E+01  0.5126E+02
     -5.362  0.2713E+01  0.5159E+02
     -5.254  0.3142E+01  0.5189E+02
     -5.146  0.4404E+01  0.5230E+02
     -5.038  0.5694E+01  0.5284E+02
     -4.930  0.7311E+01  0.5354E+02
     -4.822  0.7922E+01  0.5440E+02
     -4.714  0.6720E+01  0.5519E+02
     -4.606  0.5599E+01  0.5585E+02
     -4.498  0.7713E+01  0.5652E+02
     -4.390  0.7204E+01  0.5733E+02
     -4.282  0.6695E+01  0.5808E+02
     -4.175  0.6186E+01  0.5877E+02
     -4.067  0.5677E+01  0.5941E+02
     -3.959  0.6415E+01  0.6003E+02
     -3.851  0.9206E+01  0.6115E+02
     -3.743  0.1009E+02  0.6223E+02
     -3.635  0.7942E+01  0.6319E+02
     -3.527  0.6656E+01  0.6397E+02
     -3.419  0.6658E+01  0.6467E+02
     -3.311  0.7590E+01  0.6545E+02
     -3.203  0.8615E+01  0.6632E+02
     -3.095  0.1052E+02  0.6733E+02
     -2.987  0.1372E+02  0.6870E+02
     -2.879  0.1244E+02  0.7024E+02
     -2.771  0.1294E+02  0.7158E+02
     -2.663  0.1336E+02  0.7304E+02
     -2.555  0.1647E+02  0.7451E+02
     -2.447  0.1211E+02  0.7607E+02
     -2.339  0.1994E+02  0.7753E+02
     -2.231  0.1192E+02  0.7926E+02
     -2.123  0.1679E+02  0.8061E+02
     -2.015  0.1704E+02  0.8276E+02
     -1.907  0.1745E+02  0.8467E+02
     -1.799  0.1491E+02  0.8651E+02
     -1.691  0.1107E+02  0.8791E+02
     -1.583  0.8877E+01  0.8898E+02
     -1.475  0.1221E+02  0.8997E+02
     -1.367  0.8461E+01  0.9099E+02
     -1.259  0.1075E+02  0.9202E+02
     -1.152  0.1274E+02  0.9337E+02
     -1.044  0.1578E+02  0.9483E+02
     -0.936  0.9194E+01  0.9617E+02
     -0.828  0.1064E+02  0.9725E+02
     -0.720  0.1097E+02  0.9843E+02
     -0.612  0.1038E+02  0.9956E+02
     -0.504  0.1077E+02  0.1007E+03
     -0.396  0.9761E+01  0.1018E+03
     -0.288  0.9722E+01  0.1029E+03
     -0.180  0.9437E+01  0.1039E+03
     -0.072  0.9325E+01  0.1049E+03
      0.036  0.9218E+01  0.1059E+03
      0.144  0.9076E+01  0.1069E+03
      0.252  0.9581E+01  0.1079E+03
      0.360  0.9462E+01  0.1090E+03
      0.468  0.9396E+01  0.1100E+03
      0.576  0.9241E+01  0.1110E+03
      0.684  0.9214E+01  0.1120E+03
      0.792  0.9458E+01  0.1130E+03
      0.900  0.9347E+01  0.1140E+03
      1.008  0.9848E+01  0.1151E+03
      1.116  0.1003E+02  0.1161E+03
      1.224  0.7293E+01  0.1171E+03
      1.332  0.6310E+01  0.1178E+03
      1.440  0.5734E+01  0.1185E+03
      1.548  0.4767E+01  0.1190E+03
      1.656  0.4193E+01  0.1195E+03
      1.764  0.3635E+01  0.1199E+03
      1.872  0.6351E+01  0.1204E+03
      1.979  0.9955E+01  0.1213E+03
      2.087  0.8354E+01  0.1223E+03
      2.195  0.7752E+01  0.1233E+03
      2.303  0.5742E+01  0.1240E+03
      2.411  0.4837E+01  0.1246E+03
      2.519  0.4164E+01  0.1251E+03
      2.627  0.3558E+01  0.1255E+03
      2.735  0.3208E+01  0.1258E+03
      2.843  0.3029E+01  0.1262E+03
      2.951  0.2790E+01  0.1265E+03
      3.059  0.2366E+01  0.1268E+03
      3.167  0.2057E+01  0.1270E+03
      3.275  0.1826E+01  0.1272E+03
      3.383  0.1587E+01  0.1274E+03
      3.491  0.1345E+01  0.1276E+03
      3.599  0.1104E+01  0.1277E+03
      3.707  0.8647E+00  0.1278E+03
      3.815  0.6390E+00  0.1279E+03
      3.923  0.4486E+00  0.1279E+03
      4.031  0.2777E+00  0.1280E+03
      4.139  0.1220E+00  0.1280E+03
      4.247  0.8131E-02  0.1280E+03
      4.355  0.1256E+00  0.1280E+03
      4.463  0.2574E+00  0.1280E+03
      4.571  0.4075E+00  0.1281E+03
      4.679  0.5817E+00  0.1281E+03
      4.787  0.8045E+00  0.1282E+03
      4.895  0.1052E+01  0.1283E+03
      5.002  0.1421E+01  0.1284E+03
      5.110  0.1813E+01  0.1286E+03
      5.218  0.2195E+01  0.1288E+03
      5.326  0.2644E+01  0.1291E+03
      5.434  0.2716E+01  0.1294E+03
      5.542  0.3383E+01  0.1297E+03
      5.650  0.4246E+01  0.1301E+03
      5.758  0.6759E+01  0.1307E+03
      5.866  0.7955E+01  0.1318E+03
      5.974  0.8685E+01  0.1327E+03
      6.082  0.8925E+01  0.1336E+03
      6.190  0.6869E+01  0.1345E+03
      6.298  0.6434E+01  0.1352E+03
      6.406  0.6055E+01  0.1358E+03
      6.514  0.5581E+01  0.1365E+03
      6.622  0.5147E+01  0.1371E+03
      6.730  0.4543E+01  0.1376E+03
      6.838  0.3851E+01  0.1380E+03
      6.946  0.3638E+01  0.1384E+03
      7.054  0.3939E+01  0.1388E+03
      7.162  0.4482E+01  0.1393E+03
      7.270  0.4764E+01  0.1398E+03
      7.378  0.4559E+01  0.1403E+03
      7.486  0.4415E+01  0.1408E+03
      7.594  0.4267E+01  0.1412E+03
      7.702  0.4119E+01  0.1417E+03
      7.810  0.3982E+01  0.1421E+03
      7.918  0.3824E+01  0.1426E+03
      8.025  0.3668E+01  0.1430E+03
      8.133  0.3566E+01  0.1434E+03
      8.241  0.3675E+01  0.1437E+03
      8.349  0.3915E+01  0.1442E+03
      8.457  0.3991E+01  0.1446E+03
      8.565  0.4068E+01  0.1450E+03
      8.673  0.4138E+01  0.1455E+03
      8.781  0.4274E+01  0.1459E+03
      8.889  0.4289E+01  0.1464E+03
      8.997  0.4351E+01  0.1468E+03
      9.105  0.4446E+01  0.1473E+03
      9.213  0.4229E+01  0.1478E+03
      9.321  0.4216E+01  0.1482E+03
      9.429  0.4198E+01  0.1487E+03
      9.537  0.4170E+01  0.1491E+03
      9.645  0.4285E+01  0.1496E+03
      9.753  0.4473E+01  0.1501E+03
      9.861  0.4531E+01  0.1506E+03
      9.969  0.4791E+01  0.1511E+03
     10.077  0.4841E+01  0.1516E+03
     10.185  0.5081E+01  0.1521E+03
     10.293  0.4967E+01  0.1527E+03
     10.401  0.5037E+01  0.1532E+03
     10.509  0.5275E+01  0.1538E+03
     10.617  0.7581E+01  0.1543E+03
     10.725  0.4255E+01  0.1549E+03
     10.833  0.3770E+01  0.1553E+03
     10.941  0.3589E+01  0.1557E+03
     11.048  0.3250E+01  0.1561E+03
     11.156  0.3482E+01  0.1564E+03
     11.264  0.4025E+01  0.1568E+03
     11.372  0.4249E+01  0.1573E+03
     11.480  0.4654E+01  0.1578E+03
     11.588  0.7906E+01  0.1585E+03
     11.696  0.1041E+02  0.1595E+03
     11.804  0.1232E+02  0.1607E+03
     11.912  0.1419E+02  0.1622E+03
     12.020  0.1249E+02  0.1636E+03
     12.128  0.1082E+02  0.1649E+03
     12.236  0.8489E+01  0.1659E+03
     12.344  0.4969E+01  0.1666E+03
     12.452  0.4368E+01  0.1671E+03
     12.560  0.2980E+01  0.1675E+03
     12.668  0.1696E+01  0.1678E+03
     12.776  0.9099E+00  0.1679E+03
     12.884  0.2336E+00  0.1680E+03
     12.992  0.8696E-02  0.1680E+03
     13.100  0.0000E+00  0.1680E+03
     13.208  0.0000E+00  0.1680E+03
     13.316  0.0000E+00  0.1680E+03
     13.424  0.0000E+00  0.1680E+03
     13.532  0.0000E+00  0.1680E+03
     13.640  0.0000E+00  0.1680E+03
     13.748  0.0000E+00  0.1680E+03
     13.856  0.0000E+00  0.1680E+03
     13.964  0.0000E+00  0.1680E+03
     14.072  0.0000E+00  0.1680E+03
     14.179  0.0000E+00  0.1680E+03
     14.287  0.0000E+00  0.1680E+03
     14.395  0.0000E+00  0.1680E+03
     14.503  0.0000E+00  0.1680E+03
     14.611  0.0000E+00  0.1680E+03
     14.719  0.0000E+00  0.1680E+03
     14.827  0.0000E+00  0.1680E+03
     14.935  0.0000E+00  0.1680E+03
     15.043  0.0000E+00  0.1680E+03
