   32   32    1    1
  0.9306161E+01  0.4934311E-09  0.4934311E-09  0.1412406E-08  0.5000000E-15
  1.000000000000000E-004
  CAR 
 graphite                                
    128    163     84
 
  0.0000000E+00  0.0000000E+00  0.0000000E+00  0.3086420E-02
    1      -15.346187
    2      -15.248763
    3      -15.248248
    4      -15.146229
    5      -10.051642
    6      -10.049373
    7      -10.047530
    8      -10.015086
    9      -10.011109
   10      -10.011003
   11      -10.010275
   12      -10.010253
   13      -10.006969
   14       -9.978376
   15       -9.976430
   16       -9.973854
   17       -8.988188
   18       -8.986396
   19       -8.984920
   20       -8.965874
   21       -8.963514
   22       -8.962790
   23       -8.962005
   24       -8.961984
   25       -8.959781
   26       -8.931606
   27       -8.930613
   28       -8.929219
   29       -4.061638
   30       -3.375262
   31       -3.373900
   32       -2.557983
   33       -2.162003
   34       -2.159465
   35       -2.158469
   36       -2.146356
   37       -2.143903
   38       -2.143895
   39       -2.142893
   40       -2.140748
   41       -2.140473
   42       -2.127965
   43       -2.125592
   44       -2.124482
   45        1.218650
   46        1.224499
   47        1.228561
   48        1.230033
   49        1.231731
   50        1.233359
   51        1.237369
   52        1.241473
   53        1.588048
   54        1.589573
   55        1.590946
   56        1.877299
   57        1.881091
   58        1.881545
   59        1.881599
   60        1.881837
   61        1.885231
   62        2.103796
   63        2.105815
   64        2.107837
   65        5.738765
   66        5.740739
   67        5.742643
   68        5.891078
   69        5.894363
   70        5.895775
   71        5.896556
   72        5.896710
   73        5.899786
   74        6.289257
   75        6.290652
   76        6.292114
   77        8.160031
   78       10.418007
   79       10.421033
   80       11.480495
   81       11.484199
   82       11.487335
   83       11.612291
   84       11.615361
 
  0.1111111E+00  0.0000000E+00  0.0000000E+00  0.6172840E-02
    1      -15.272752
    2      -15.175792
    3      -15.175274
    4      -15.073763
    5      -10.830696
    6      -10.762923
    7      -10.762586
    8      -10.693016
    9      -10.290954
   10      -10.288582
   11      -10.234222
   12      -10.231554
   13      -10.230819
   14      -10.229685
   15      -10.174181
   16      -10.171737
   17       -8.670017
   18       -8.668578
   19       -8.623238
   20       -8.623067
   21       -8.621620
   22       -8.620225
   23       -8.572244
   24       -8.570764
   25       -8.155536
   26       -8.103775
   27       -8.101556
   28       -8.047707
   29       -3.972669
   30       -3.288273
   31       -3.286916
   32       -2.473492
   33       -2.387040
   34       -2.384164
   35       -2.369234
   36       -2.367312
   37       -2.365412
   38       -2.364228
   39       -2.348842
   40       -2.346206
   41       -2.087288
   42       -2.071664
   43       -2.069681
   44       -2.053761
   45        0.920381
   46        0.930356
   47        0.934263
   48        0.940457
   49        1.026515
   50        1.067908
   51        1.073690
   52        1.076885
   53        1.085287
   54        1.455721
   55        1.457679
   56        1.482621
   57        1.484556
   58        1.825886
   59        1.829910
   60        1.830159
   61        1.830856
   62        1.889813
   63        2.130438
   64        2.132881
   65        5.835992
   66        5.837976
   67        6.024579
   68        6.025475
   69        6.026887
   70        6.029942
   71        6.164639
   72        6.422676
   73        6.424317
   74        6.432033
   75        6.435965
   76        6.872524
   77        8.250595
   78       10.500679
   79       10.503673
   80       11.522753
   81       11.652074
   82       11.652663
   83       11.786945
   84       11.820600
 
  0.2222222E+00 -0.1387779E-16  0.0000000E+00  0.6172840E-02
    1      -15.052878
    2      -14.957303
    3      -14.956777
    4      -14.856758
    5      -11.836810
    6      -11.760822
    7      -11.760281
    8      -11.681728
    9      -10.634350
   10      -10.632395
   11      -10.569003
   12      -10.566863
   13      -10.566305
   14      -10.565219
   15      -10.499373
   16      -10.497397
   17       -7.987109
   18       -7.985499
   19       -7.936372
   20       -7.936225
   21       -7.934590
   22       -7.933387
   23       -7.882941
   24       -7.881248
   25       -6.833577
   26       -6.785488
   27       -6.783351
   28       -6.734271
   29       -3.706784
   30       -3.028335
   31       -3.026994
   32       -2.991018
   33       -2.988398
   34       -2.968579
   35       -2.966631
   36       -2.965025
   37       -2.963743
   38       -2.943102
   39       -2.940635
   40       -2.221707
   41       -1.872850
   42       -1.857419
   43       -1.855359
   44       -1.839854
   45        0.028868
   46        0.099532
   47        0.111890
   48        0.116014
   49        0.127631
   50        0.567791
   51        0.569296
   52        0.650371
   53        0.658861
   54        0.662271
   55        0.671831
   56        1.171997
   57        1.278648
   58        1.280626
   59        1.704954
   60        1.708867
   61        1.709056
   62        1.709893
   63        2.139536
   64        2.141886
   65        6.116689
   66        6.118738
   67        6.356799
   68        6.357523
   69        6.358928
   70        6.362137
   71        6.733234
   72        6.735369
   73        7.331087
   74        7.652056
   75        7.655480
   76        8.083804
   77        8.522871
   78       10.748168
   79       10.751064
   80       11.633824
   81       11.759590
   82       11.760413
   83       11.863033
   84       12.611737
 
  0.3333333E+00  0.5551115E-16  0.0000000E+00  0.6172840E-02
    1      -14.687703
    2      -14.594357
    3      -14.593817
    4      -14.496237
    5      -12.746225
    6      -12.664614
    7      -12.664046
    8      -12.579504
    9      -10.889751
   10      -10.887994
   11      -10.820941
   12      -10.818943
   13      -10.818600
   14      -10.817463
   15      -10.748040
   16      -10.746274
   17       -7.181890
   18       -7.180069
   19       -7.135555
   20       -7.135400
   21       -7.133737
   22       -7.132223
   23       -7.087378
   24       -7.085442
   25       -5.404868
   26       -5.363655
   27       -5.361288
   28       -5.319442
   29       -3.803837
   30       -3.801533
   31       -3.777085
   32       -3.774899
   33       -3.773921
   34       -3.772380
   35       -3.746754
   36       -3.744580
   37       -3.266415
   38       -2.598515
   39       -2.597207
   40       -1.806394
   41       -1.524741
   42       -1.509957
   43       -1.507743
   44       -1.492763
   45       -1.081350
   46       -1.062699
   47       -1.058664
   48       -1.040303
   49       -0.979024
   50       -0.384690
   51       -0.383388
   52        0.089728
   53        0.100388
   54        0.103597
   55        0.114935
   56        0.303339
   57        1.098684
   58        1.100635
   59        1.581097
   60        1.584910
   61        1.585060
   62        1.585985
   63        2.108600
   64        2.110902
   65        6.495382
   66        6.497569
   67        6.745235
   68        6.745956
   69        6.747075
   70        6.750622
   71        7.055949
   72        7.058374
   73        8.837407
   74        8.976535
   75        9.127146
   76        9.129973
   77        9.504313
   78       11.152253
   79       11.154956
   80       11.361297
   81       11.854712
   82       11.919899
   83       11.921092
   84       12.131441
 
  0.4444444E+00 -0.2775558E-16  0.0000000E+00  0.6172840E-02
    1      -14.179101
    2      -14.088862
    3      -14.088293
    4      -13.994174
    5      -13.530175
    6      -13.443819
    7      -13.443273
    8      -13.353388
    9      -11.021622
   10      -11.019947
   11      -10.951718
   12      -10.949702
   13      -10.949585
   14      -10.948357
   15      -10.877565
   16      -10.875885
   17       -6.440610
   18       -6.438785
   19       -6.407787
   20       -6.407467
   21       -6.406590
   22       -6.403774
   23       -6.374109
   24       -6.371884
   25       -4.555702
   26       -4.553817
   27       -4.533494
   28       -4.530882
   29       -4.530279
   30       -4.528841
   31       -4.505799
   32       -4.504346
   33       -3.929113
   34       -3.895708
   35       -3.892982
   36       -3.858955
   37       -2.657128
   38       -2.462291
   39       -2.436602
   40       -2.433341
   41       -2.407069
   42       -2.004823
   43       -2.003475
   44       -1.888434
   45       -1.259460
   46       -1.258200
   47       -1.234973
   48       -1.059417
   49       -1.045560
   50       -1.043128
   51       -1.029205
   52       -0.522137
   53       -0.505516
   54       -0.493042
   55       -0.490138
   56       -0.477171
   57        0.998034
   58        0.999962
   59        1.506536
   60        1.510289
   61        1.510426
   62        1.511394
   63        2.078076
   64        2.080357
   65        6.785685
   66        6.787966
   67        7.010029
   68        7.011018
   69        7.011474
   70        7.015492
   71        7.244694
   72        7.247299
   73        9.610437
   74       10.416503
   75       10.448477
   76       10.657986
   77       10.661716
   78       10.977810
   79       11.625794
   80       11.631637
   81       12.022081
   82       12.062626
   83       12.065462
   84       12.077017
 
  0.8470329E-21  0.1111111E+00  0.0000000E+00  0.6172840E-02
    1      -15.272750
    2      -15.175788
    3      -15.175273
    4      -15.073761
    5      -10.830801
    6      -10.763143
    7      -10.762600
    8      -10.693146
    9      -10.290920
   10      -10.288294
   11      -10.233996
   12      -10.231557
   13      -10.230821
   14      -10.229191
   15      -10.174039
   16      -10.171498
   17       -8.671182
   18       -8.668788
   19       -8.625559
   20       -8.623189
   21       -8.621622
   22       -8.620104
   23       -8.573218
   24       -8.570779
   25       -8.154542
   26       -8.101939
   27       -8.101542
   28       -8.046838
   29       -3.972673
   30       -3.288279
   31       -3.286920
   32       -2.473498
   33       -2.385489
   34       -2.384401
   35       -2.367353
   36       -2.367293
   37       -2.365095
   38       -2.364227
   39       -2.347539
   40       -2.346376
   41       -2.088322
   42       -2.072019
   43       -2.071662
   44       -2.055126
   45        0.925972
   46        0.933211
   47        0.934265
   48        0.941384
   49        1.025772
   50        1.066679
   51        1.073466
   52        1.073688
   53        1.080391
   54        1.455090
   55        1.456403
   56        1.482962
   57        1.485280
   58        1.826840
   59        1.829861
   60        1.830042
   61        1.832472
   62        1.888682
   63        2.130991
   64        2.133698
   65        5.834833
   66        5.837016
   67        6.022165
   68        6.024854
   69        6.026970
   70        6.028873
   71        6.166567
   72        6.421311
   73        6.423627
   74        6.435032
   75        6.436457
   76        6.874110
   77        8.250591
   78       10.500665
   79       10.503660
   80       11.522140
   81       11.651286
   82       11.652117
   83       11.784244
   84       11.819694
 
  0.1111111E+00  0.1111111E+00  0.0000000E+00  0.6172840E-02
    1      -15.126103
    2      -15.030066
    3      -15.029543
    4      -14.929020
    5      -11.292672
    6      -11.289766
    7      -11.221928
    8      -11.218654
    9      -11.218628
   10      -11.216170
   11      -11.145546
   12      -11.142658
   13       -9.862241
   14       -9.825317
   15       -9.823496
   16       -9.790615
   17       -8.802972
   18       -8.781338
   19       -8.778746
   20       -8.749381
   21       -7.475182
   22       -7.471909
   23       -7.425811
   24       -7.421527
   25       -7.421505
   26       -7.419648
   27       -7.370518
   28       -7.367541
   29       -3.795234
   30       -3.114785
   31       -3.113438
   32       -3.063938
   33       -3.041506
   34       -3.038894
   35       -3.015831
   36       -2.305482
   37       -2.241781
   38       -2.239446
   39       -2.224168
   40       -2.222342
   41       -2.222335
   42       -2.219174
   43       -2.204573
   44       -2.201677
   45        0.390376
   46        0.400088
   47        0.403964
   48        0.410100
   49        0.604311
   50        0.606082
   51        0.755174
   52        0.759988
   53        0.763077
   54        0.771312
   55        1.096475
   56        1.098447
   57        1.098594
   58        1.101445
   59        1.630928
   60        1.633299
   61        1.855314
   62        2.144349
   63        2.147478
   64        2.366810
   65        5.711405
   66        5.819364
   67        5.823156
   68        6.140076
   69        6.670071
   70        6.672782
   71        6.971844
   72        6.976341
   73        6.976432
   74        6.977535
   75        7.401147
   76        7.403624
   77        8.432155
   78       10.666307
   79       10.669240
   80       11.891974
   81       11.895783
   82       12.020952
   83       12.024585
   84       12.027445
 
  0.2222222E+00  0.1111111E+00  0.0000000E+00  0.6172840E-02
    1      -14.833565
    2      -14.739318
    3      -14.738782
    4      -14.640257
    5      -12.254107
    6      -12.175555
    7      -12.174994
    8      -12.093578
    9      -11.631249
   10      -11.556541
   11      -11.556115
   12      -11.478768
   13       -9.906376
   14       -9.850979
   15       -9.849792
   16       -9.794266
   17       -8.325149
   18       -8.282477
   19       -8.280426
   20       -8.234624
   21       -6.692998
   22       -6.646302
   23       -6.646073
   24       -6.598326
   25       -6.096648
   26       -6.052466
   27       -6.050326
   28       -6.005391
   29       -3.967469
   30       -3.939331
   31       -3.936769
   32       -3.907851
   33       -3.442028
   34       -2.769833
   35       -2.768534
   36       -2.765611
   37       -2.743462
   38       -2.742678
   39       -2.719957
   40       -1.971735
   41       -1.954113
   42       -1.937198
   43       -1.935198
   44       -1.918001
   45       -0.558141
   46       -0.544966
   47       -0.540251
   48       -0.528621
   49       -0.420214
   50        0.148473
   51        0.149766
   52        0.212230
   53        0.220165
   54        0.223842
   55        0.233567
   56        0.278994
   57        0.798810
   58        0.811250
   59        0.812557
   60        1.408780
   61        2.002260
   62        2.346385
   63        2.349413
   64        2.649635
   65        5.706035
   66        5.825302
   67        5.828861
   68        6.093587
   69        7.252773
   70        7.543737
   71        7.545082
   72        7.908015
   73        8.037248
   74        8.341173
   75        8.344179
   76        8.730190
   77        8.796372
   78       10.996208
   79       10.998999
   80       11.909198
   81       12.109698
   82       12.158941
   83       12.159773
   84       12.417004
 
  0.3333333E+00  0.1111111E+00  0.0000000E+00  0.6172840E-02
    1      -14.396656
    2      -14.305077
    3      -14.304520
    4      -14.208948
    5      -13.101392
    6      -13.017634
    7      -13.017083
    8      -12.930030
    9      -11.838441
   10      -11.762355
   11      -11.761936
   12      -11.683175
   13      -10.048006
   14       -9.985562
   15       -9.984825
   16       -9.920962
   17       -7.560766
   18       -7.518479
   19       -7.516589
   20       -7.473185
   21       -5.898517
   22       -5.860459
   23       -5.859930
   24       -5.821165
   25       -4.901676
   26       -4.871989
   27       -4.869257
   28       -4.838662
   29       -4.652031
   30       -4.615458
   31       -4.613095
   32       -4.575815
   33       -3.463927
   34       -3.439787
   35       -3.438229
   36       -3.413404
   37       -2.916933
   38       -2.257950
   39       -2.256700
   40       -1.797595
   41       -1.777139
   42       -1.773002
   43       -1.753052
   44       -1.538780
   45       -1.522740
   46       -1.520635
   47       -1.504471
   48       -1.477982
   49       -1.386034
   50       -0.774183
   51       -0.772914
   52       -0.410218
   53       -0.398635
   54       -0.395108
   55       -0.382776
   56       -0.061106
   57        0.073939
   58        0.628109
   59        0.629585
   60        1.260179
   61        2.015448
   62        2.436378
   63        2.438985
   64        2.868928
   65        5.749045
   66        5.941626
   67        5.944521
   68        6.190170
   69        7.755557
   70        7.997534
   71        7.998980
   72        8.263890
   73        9.340831
   74        9.594271
   75        9.844091
   76        9.846911
   77       10.168459
   78       10.956489
   79       11.471798
   80       11.474560
   81       12.277174
   82       12.307653
   83       12.309187
   84       12.523313
 
  0.4444444E+00  0.1111111E+00  0.0000000E+00  0.6172840E-02
    1      -13.819342
    2      -13.816621
    3      -13.732565
    4      -13.729438
    5      -13.729314
    6      -13.727164
    7      -13.638875
    8      -13.636170
    9      -11.908117
   10      -11.831481
   11      -11.831071
   12      -11.751765
   13      -10.103232
   14      -10.039585
   15      -10.039019
   16       -9.973488
   17       -7.063056
   18       -7.036926
   19       -7.035219
   20       -7.009950
   21       -5.429368
   22       -5.424616
   23       -5.409098
   24       -5.408080
   25       -5.406167
   26       -5.405513
   27       -5.387246
   28       -5.385129
   29       -3.889330
   30       -3.874954
   31       -3.871715
   32       -3.855607
   33       -3.197962
   34       -3.194301
   35       -3.169955
   36       -3.164418
   37       -3.164294
   38       -3.164244
   39       -3.136310
   40       -3.134016
   41       -2.228297
   42       -2.226128
   43       -1.589186
   44       -1.586750
   45       -1.586575
   46       -1.583985
   47       -1.015161
   48       -1.011915
   49       -1.000568
   50       -0.998722
   51       -0.998654
   52       -0.992698
   53       -0.983988
   54       -0.976678
   55       -0.835719
   56       -0.833234
   57        0.004337
   58        0.565248
   59        0.566849
   60        1.208277
   61        2.009165
   62        2.458883
   63        2.460987
   64        2.944379
   65        5.782090
   66        6.007383
   67        6.009456
   68        6.245168
   69        7.970579
   70        8.175530
   71        8.177319
   72        8.382372
   73       10.063823
   74       10.064631
   75       11.169341
   76       11.172805
   77       11.313949
   78       11.320055
   79       11.321289
   80       11.325248
   81       11.601687
   82       11.604840
   83       12.132895
   84       12.137867
 
 -0.4444444E+00  0.1111111E+00  0.0000000E+00  0.6172840E-02
    1      -14.396742
    2      -14.305162
    3      -14.304622
    4      -14.209034
    5      -13.101254
    6      -13.017506
    7      -13.016935
    8      -12.929892
    9      -11.838649
   10      -11.762560
   11      -11.762147
   12      -11.683383
   13      -10.047649
   14       -9.985079
   15       -9.984579
   16       -9.920589
   17       -7.560003
   18       -7.516948
   19       -7.516691
   20       -7.472527
   21       -5.899659
   22       -5.862248
   23       -5.860281
   24       -5.822152
   25       -4.902732
   26       -4.872392
   27       -4.871259
   28       -4.839970
   29       -4.652362
   30       -4.615927
   31       -4.613230
   32       -4.576095
   33       -3.462725
   34       -3.439173
   35       -3.435924
   36       -3.411788
   37       -2.917030
   38       -2.258056
   39       -2.256792
   40       -1.797104
   41       -1.776395
   42       -1.773497
   43       -1.753100
   44       -1.538531
   45       -1.522647
   46       -1.520129
   47       -1.504074
   48       -1.478076
   49       -1.385890
   50       -0.774049
   51       -0.772767
   52       -0.410124
   53       -0.398135
   54       -0.395872
   55       -0.383581
   56       -0.060962
   57        0.073692
   58        0.627718
   59        0.629466
   60        1.259896
   61        2.015798
   62        2.437290
   63        2.438971
   64        2.869556
   65        5.749018
   66        5.942414
   67        5.943865
   68        6.190192
   69        7.755097
   70        7.996768
   71        7.998988
   72        8.263681
   73        9.340705
   74        9.594163
   75        9.843769
   76        9.846989
   77       10.168339
   78       10.956683
   79       11.471686
   80       11.474451
   81       12.276857
   82       12.307183
   83       12.309288
   84       12.523587
 
 -0.3333333E+00  0.1111111E+00  0.0000000E+00  0.6172840E-02
    1      -14.833626
    2      -14.739373
    3      -14.738850
    4      -14.640318
    5      -12.253940
    6      -12.175376
    7      -12.174806
    8      -12.093408
    9      -11.631676
   10      -11.556972
   11      -11.556535
   12      -11.479194
   13       -9.905563
   14       -9.849786
   15       -9.849314
   16       -9.793405
   17       -8.324634
   18       -8.281123
   19       -8.280806
   20       -8.234169
   21       -6.694109
   22       -6.648015
   23       -6.646507
   24       -6.599358
   25       -6.096963
   26       -6.052859
   27       -6.050533
   28       -6.005684
   29       -3.968878
   30       -3.939890
   31       -3.939316
   32       -3.909507
   33       -3.442098
   34       -2.769911
   35       -2.768579
   36       -2.764056
   37       -2.742702
   38       -2.739784
   39       -2.717969
   40       -1.971803
   41       -1.953913
   42       -1.937044
   43       -1.934852
   44       -1.917746
   45       -0.556992
   46       -0.544316
   47       -0.541702
   48       -0.529420
   49       -0.420047
   50        0.148612
   51        0.149942
   52        0.213090
   53        0.221653
   54        0.223251
   55        0.232111
   56        0.278482
   57        0.799139
   58        0.810337
   59        0.812268
   60        1.408213
   61        2.002909
   62        2.348020
   63        2.349445
   64        2.650747
   65        5.705976
   66        5.826486
   67        5.827841
   68        6.093666
   69        7.252175
   70        7.542550
   71        7.545126
   72        7.907603
   73        8.037094
   74        8.340815
   75        8.344225
   76        8.730034
   77        8.796281
   78       10.996113
   79       10.998903
   80       11.909286
   81       12.109574
   82       12.158545
   83       12.159814
   84       12.416820
 
 -0.2222222E+00  0.1111111E+00  0.0000000E+00  0.6172840E-02
    1      -15.126140
    2      -15.030098
    3      -15.029583
    4      -14.929057
    5      -11.291788
    6      -11.290966
    7      -11.219750
    8      -11.219255
    9      -11.218886
   10      -11.218419
   11      -11.144823
   12      -11.143986
   13       -9.860807
   14       -9.823209
   15       -9.822754
   16       -9.789205
   17       -8.802829
   18       -8.780263
   19       -8.779840
   20       -8.749514
   21       -7.474163
   22       -7.473885
   23       -7.423911
   24       -7.423253
   25       -7.421916
   26       -7.421712
   27       -7.369806
   28       -7.369579
   29       -3.795276
   30       -3.114832
   31       -3.113476
   32       -3.065494
   33       -3.042167
   34       -3.041738
   35       -3.017715
   36       -2.305523
   37       -2.239776
   38       -2.239375
   39       -2.222198
   40       -2.222008
   41       -2.220188
   42       -2.219176
   43       -2.202470
   44       -2.201851
   45        0.392593
   46        0.400110
   47        0.400820
   48        0.408002
   49        0.604180
   50        0.605697
   51        0.757155
   52        0.762825
   53        0.763192
   54        0.769299
   55        1.096371
   56        1.098463
   57        1.098594
   58        1.100345
   59        1.630800
   60        1.632684
   61        1.856171
   62        2.146308
   63        2.147636
   64        2.368139
   65        5.711380
   66        5.820624
   67        5.822146
   68        6.140252
   69        6.670454
   70        6.671774
   71        6.972488
   72        6.974505
   73        6.976183
   74        6.977529
   75        7.401491
   76        7.402612
   77        8.432099
   78       10.666246
   79       10.669179
   80       11.894157
   81       11.897414
   82       12.024372
   83       12.026551
   84       12.028538
 
 -0.1111111E+00  0.1111111E+00  0.0000000E+00  0.6172840E-02
    1      -15.272763
    2      -15.175799
    3      -15.175287
    4      -15.073773
    5      -10.831678
    6      -10.764105
    7      -10.763404
    8      -10.694035
    9      -10.289976
   10      -10.287876
   11      -10.232958
   12      -10.230673
   13      -10.230642
   14      -10.228571
   15      -10.173219
   16      -10.170932
   17       -8.670880
   18       -8.668896
   19       -8.625131
   20       -8.621831
   21       -8.621793
   22       -8.621547
   23       -8.572832
   24       -8.571202
   25       -8.155196
   26       -8.103104
   27       -8.101642
   28       -8.047447
   29       -3.972687
   30       -3.288294
   31       -3.286932
   32       -2.473512
   33       -2.386858
   34       -2.384761
   35       -2.368833
   36       -2.367283
   37       -2.367275
   38       -2.364289
   39       -2.349147
   40       -2.346517
   41       -2.086722
   42       -2.071267
   43       -2.068512
   44       -2.052973
   45        0.924222
   46        0.930778
   47        0.933979
   48        0.942299
   49        1.024964
   50        1.064192
   51        1.073599
   52        1.077207
   53        1.082731
   54        1.453550
   55        1.456107
   56        1.483722
   57        1.485510
   58        1.828514
   59        1.829657
   60        1.829980
   61        1.833346
   62        1.887580
   63        2.131775
   64        2.134218
   65        5.834431
   66        5.837469
   67        6.021640
   68        6.026743
   69        6.027068
   70        6.027845
   71        6.166236
   72        6.421464
   73        6.423883
   74        6.433527
   75        6.436863
   76        6.873671
   77        8.250572
   78       10.500643
   79       10.503638
   80       11.526040
   81       11.654772
   82       11.656488
   83       11.788545
   84       11.815370
 
 -0.3388132E-20  0.2222222E+00  0.0000000E+00  0.6172840E-02
    1      -15.052871
    2      -14.957290
    3      -14.956776
    4      -14.856751
    5      -11.836792
    6      -11.760792
    7      -11.760280
    8      -11.681715
    9      -10.634722
   10      -10.631989
   11      -10.569634
   12      -10.566866
   13      -10.566306
   14      -10.564365
   15      -10.499637
   16      -10.496955
   17       -7.988385
   18       -7.985475
   19       -7.938904
   20       -7.936298
   21       -7.934589
   22       -7.932839
   23       -7.883958
   24       -7.881073
   25       -6.832655
   26       -6.783765
   27       -6.783339
   28       -6.733448
   29       -3.706802
   30       -3.028361
   31       -3.027006
   32       -2.989908
   33       -2.988260
   34       -2.967222
   35       -2.966628
   36       -2.964009
   37       -2.963737
   38       -2.942051
   39       -2.940428
   40       -2.221733
   41       -1.873939
   42       -1.857823
   43       -1.857418
   44       -1.841303
   45        0.028463
   46        0.102830
   47        0.115643
   48        0.116018
   49        0.129026
   50        0.567364
   51        0.568626
   52        0.648899
   53        0.658425
   54        0.658860
   55        0.668190
   56        1.171299
   57        1.278789
   58        1.281438
   59        1.705607
   60        1.708831
   61        1.708957
   62        1.711603
   63        2.139977
   64        2.142752
   65        6.115340
   66        6.118018
   67        6.353972
   68        6.357144
   69        6.358977
   70        6.361294
   71        6.731676
   72        6.734907
   73        7.332545
   74        7.654265
   75        7.655808
   76        8.085008
   77        8.522860
   78       10.748117
   79       10.751013
   80       11.633183
   81       11.758978
   82       11.759721
   83       11.862392
   84       12.614159
 
  0.1111111E+00  0.2222222E+00  0.0000000E+00  0.6172840E-02
    1      -14.833559
    2      -14.739308
    3      -14.738781
    4      -14.640252
    5      -12.254069
    6      -12.175483
    7      -12.174990
    8      -12.093542
    9      -11.631277
   10      -11.556589
   11      -11.556118
   12      -11.478791
   13       -9.906366
   14       -9.850958
   15       -9.849792
   16       -9.794256
   17       -8.325214
   18       -8.282477
   19       -8.280583
   20       -8.234719
   21       -6.694007
   22       -6.648191
   23       -6.646097
   24       -6.599240
   25       -6.095638
   26       -6.050579
   27       -6.050309
   28       -6.004485
   29       -3.967372
   30       -3.939182
   31       -3.936769
   32       -3.907790
   33       -3.442042
   34       -2.769848
   35       -2.768522
   36       -2.764449
   37       -2.742679
   38       -2.740955
   39       -2.718616
   40       -1.971755
   41       -1.955304
   42       -1.937818
   43       -1.937198
   44       -1.919485
   45       -0.556019
   46       -0.543426
   47       -0.540250
   48       -0.528157
   49       -0.420579