       N       E                     dE             d eps       ncg     rms          rms(c)
DAV:   1     0.591921948853E+03    0.59192E+03   -0.71708E+04 27384   0.160E+03
DAV:   2    -0.263190348277E+03   -0.85511E+03   -0.82461E+03 34128   0.312E+02
DAV:   3    -0.312706787780E+03   -0.49516E+02   -0.49042E+02 33312   0.754E+01
DAV:   4    -0.313647040623E+03   -0.94025E+00   -0.93849E+00 34764   0.112E+01
DAV:   5    -0.313674394063E+03   -0.27353E-01   -0.27342E-01 35196   0.180E+00    0.221E+01
DAV:   6    -0.299206672286E+03    0.14468E+02   -0.14925E+01 31296   0.107E+01    0.116E+01
DAV:   7    -0.294620926029E+03    0.45857E+01   -0.15670E+01 31068   0.110E+01    0.194E+00
DAV:   8    -0.294684954577E+03   -0.64029E-01   -0.39984E-01 30936   0.183E+00    0.302E-01
DAV:   9    -0.294686197071E+03   -0.12425E-02   -0.24931E-02 32820   0.479E-01    0.153E-01
DAV:  10    -0.294686496731E+03   -0.29966E-03   -0.39202E-03 32232   0.202E-01    0.972E-02
