  32  32   0   0
  0.8905205E+01  0.4932875E-09  0.4932875E-09  0.1352877E-08  0.5000000E-15
  1.000000000000000E-004
  CAR 
 graphite                                
     15.48324507    -17.01684351  301      4.60343840      1.00000000
    -17.017  0.0000E+00  0.0000E+00
    -16.909  0.0000E+00  0.0000E+00
    -16.800  0.0000E+00  0.0000E+00
    -16.692  0.0000E+00  0.0000E+00
    -16.584  0.0000E+00  0.0000E+00
    -16.475  0.0000E+00  0.0000E+00
    -16.367  0.0000E+00  0.0000E+00
    -16.259  0.0000E+00  0.0000E+00
    -16.150  0.0000E+00  0.0000E+00
    -16.042  0.0000E+00  0.0000E+00
    -15.934  0.0000E+00  0.0000E+00
    -15.825  0.0000E+00  0.0000E+00
    -15.717  0.0000E+00  0.0000E+00
    -15.609  0.0000E+00  0.0000E+00
    -15.500  0.0000E+00  0.0000E+00
    -15.392  0.0000E+00  0.0000E+00
    -15.284  0.0000E+00  0.0000E+00
    -15.175  0.0000E+00  0.0000E+00
    -15.067  0.0000E+00  0.0000E+00
    -14.959  0.1250E+01  0.2819E-01
    -14.850  0.2524E+01  0.2388E+00
    -14.742  0.4072E+01  0.5935E+00
    -14.634  0.4794E+01  0.1108E+01
    -14.525  0.5037E+01  0.1644E+01
    -14.417  0.4899E+01  0.2178E+01
    -14.309  0.4949E+01  0.2711E+01
    -14.200  0.4913E+01  0.3246E+01
    -14.092  0.4973E+01  0.3782E+01
    -13.984  0.4979E+01  0.4321E+01
    -13.875  0.5008E+01  0.4862E+01
    -13.767  0.5630E+01  0.5435E+01
    -13.659  0.5891E+01  0.6063E+01
    -13.550  0.6806E+01  0.6781E+01
    -13.442  0.4591E+01  0.7364E+01
    -13.334  0.1804E+01  0.7725E+01
    -13.225  0.3405E+01  0.7974E+01
    -13.117  0.4240E+01  0.8418E+01
    -13.008  0.4699E+01  0.8902E+01
    -12.900  0.5865E+01  0.9654E+01
    -12.792  0.6661E+01  0.1035E+02
    -12.683  0.4358E+01  0.1090E+02
    -12.575  0.4537E+01  0.1138E+02
    -12.467  0.4674E+01  0.1188E+02
    -12.358  0.4791E+01  0.1240E+02
    -12.250  0.5143E+01  0.1293E+02
    -12.142  0.5475E+01  0.1351E+02
    -12.033  0.5671E+01  0.1414E+02
    -11.925  0.5526E+01  0.1473E+02
    -11.817  0.5121E+01  0.1530E+02
    -11.708  0.4946E+01  0.1585E+02
    -11.600  0.4934E+01  0.1638E+02
    -11.492  0.5031E+01  0.1692E+02
    -11.383  0.5089E+01  0.1747E+02
    -11.275  0.5248E+01  0.1802E+02
    -11.167  0.5505E+01  0.1861E+02
    -11.058  0.5902E+01  0.1922E+02
    -10.950  0.5792E+01  0.1985E+02
    -10.842  0.5751E+01  0.2048E+02
    -10.733  0.5815E+01  0.2110E+02
    -10.625  0.5263E+01  0.2172E+02
    -10.517  0.4528E+01  0.2223E+02
    -10.408  0.5138E+01  0.2276E+02
    -10.300  0.5333E+01  0.2333E+02
    -10.192  0.5442E+01  0.2391E+02
    -10.083  0.5643E+01  0.2451E+02
     -9.975  0.5892E+01  0.2514E+02
     -9.867  0.7332E+01  0.2585E+02
     -9.758  0.1050E+02  0.2680E+02
     -9.650  0.7097E+01  0.2775E+02
     -9.542  0.7188E+01  0.2841E+02
     -9.433  0.5962E+01  0.2911E+02
     -9.325  0.3616E+01  0.2964E+02
     -9.217  0.3245E+01  0.3001E+02
     -9.108  0.2874E+01  0.3034E+02
     -9.000  0.2504E+01  0.3063E+02
     -8.892  0.2448E+01  0.3089E+02
     -8.783  0.2963E+01  0.3121E+02
     -8.675  0.1967E+01  0.3148E+02
     -8.567  0.1615E+01  0.3164E+02
     -8.458  0.2514E+01  0.3186E+02
     -8.350  0.6815E+01  0.3229E+02
     -8.242  0.4419E+01  0.3303E+02
     -8.133  0.3909E+01  0.3347E+02
     -8.025  0.4242E+01  0.3391E+02
     -7.917  0.6789E+01  0.3454E+02
     -7.808  0.6243E+01  0.3532E+02
     -7.700  0.7308E+01  0.3605E+02
     -7.592  0.8422E+01  0.3690E+02
     -7.483  0.8117E+01  0.3785E+02
     -7.375  0.6293E+01  0.3861E+02
     -7.267  0.6030E+01  0.3927E+02
     -7.158  0.5772E+01  0.3991E+02
     -7.050  0.5541E+01  0.4052E+02
     -6.942  0.5350E+01  0.4111E+02
     -6.833  0.5170E+01  0.4168E+02
     -6.725  0.4975E+01  0.4223E+02
     -6.617  0.4848E+01  0.4276E+02
     -6.508  0.4821E+01  0.4329E+02
     -6.400  0.4790E+01  0.4381E+02
     -6.292  0.4627E+01  0.4432E+02
     -6.183  0.4428E+01  0.4481E+02
     -6.075  0.4198E+01  0.4529E+02
     -5.967  0.4065E+01  0.4569E+02
     -5.858  0.4319E+01  0.4614E+02
     -5.750  0.4949E+01  0.4664E+02
     -5.642  0.5763E+01  0.4722E+02
     -5.533  0.6595E+01  0.4789E+02
     -5.425  0.1064E+02  0.4881E+02
     -5.317  0.8603E+01  0.4987E+02
     -5.208  0.6296E+01  0.5068E+02
     -5.100  0.3989E+01  0.5123E+02
     -4.992  0.2610E+01  0.5156E+02
     -4.883  0.3055E+01  0.5186E+02
     -4.775  0.4309E+01  0.5226E+02
     -4.667  0.5652E+01  0.5280E+02
     -4.558  0.7297E+01  0.5349E+02
     -4.450  0.8036E+01  0.5435E+02
     -4.342  0.6807E+01  0.5515E+02
     -4.233  0.5654E+01  0.5582E+02
     -4.125  0.7218E+01  0.5647E+02
     -4.017  0.7285E+01  0.5728E+02
     -3.908  0.6763E+01  0.5804E+02
     -3.800  0.6515E+01  0.5875E+02
     -3.692  0.6428E+01  0.5946E+02
     -3.583  0.8304E+01  0.6020E+02
     -3.475  0.1336E+02  0.6138E+02
     -3.367  0.8744E+01  0.6240E+02
     -3.258  0.7881E+01  0.6330E+02
     -3.150  0.7195E+01  0.6412E+02
     -3.042  0.6852E+01  0.6486E+02
     -2.933  0.7703E+01  0.6565E+02
     -2.825  0.8807E+01  0.6654E+02
     -2.717  0.1106E+02  0.6758E+02
     -2.608  0.1411E+02  0.6899E+02
     -2.500  0.1182E+02  0.7048E+02
     -2.392  0.1287E+02  0.7173E+02
     -2.283  0.1242E+02  0.7308E+02
     -2.175  0.1477E+02  0.7446E+02
     -2.067  0.1297E+02  0.7604E+02
     -1.958  0.1969E+02  0.7757E+02
     -1.850  0.1130E+02  0.7930E+02
     -1.742  0.1633E+02  0.8057E+02
     -1.633  0.1692E+02  0.8268E+02
     -1.525  0.1846E+02  0.8466E+02
     -1.417  0.1447E+02  0.8644E+02
     -1.308  0.1190E+02  0.8787E+02
     -1.200  0.1072E+02  0.8907E+02
     -1.092  0.8890E+01  0.9014E+02
     -0.983  0.7716E+01  0.9102E+02
     -0.875  0.1132E+02  0.9205E+02
     -0.767  0.1339E+02  0.9346E+02
     -0.658  0.1831E+02  0.9500E+02
     -0.550  0.8696E+01  0.9631E+02
     -0.442  0.9895E+01  0.9732E+02
     -0.333  0.1081E+02  0.9845E+02
     -0.225  0.1062E+02  0.9958E+02
     -0.117  0.1082E+02  0.1008E+03
     -0.008  0.9421E+01  0.1018E+03
      0.100  0.9651E+01  0.1028E+03
      0.208  0.9521E+01  0.1039E+03
      0.317  0.9736E+01  0.1050E+03
      0.425  0.9294E+01  0.1060E+03
      0.533  0.9261E+01  0.1070E+03
      0.642  0.9411E+01  0.1080E+03
      0.750  0.9373E+01  0.1090E+03
      0.858  0.9235E+01  0.1101E+03
      0.967  0.9348E+01  0.1111E+03
      1.075  0.9208E+01  0.1121E+03
      1.183  0.9531E+01  0.1131E+03
      1.292  0.9434E+01  0.1141E+03
      1.400  0.9459E+01  0.1152E+03
      1.508  0.9565E+01  0.1162E+03
      1.617  0.6682E+01  0.1171E+03
      1.725  0.6486E+01  0.1178E+03
      1.833  0.5918E+01  0.1185E+03
      1.942  0.4691E+01  0.1191E+03
      2.050  0.3807E+01  0.1195E+03
      2.158  0.4753E+01  0.1200E+03
      2.267  0.8130E+01  0.1206E+03
      2.375  0.1036E+02  0.1215E+03
      2.483  0.5495E+01  0.1223E+03
      2.592  0.8377E+01  0.1231E+03
      2.700  0.6468E+01  0.1239E+03
      2.808  0.5087E+01  0.1246E+03
      2.917  0.4245E+01  0.1251E+03
      3.025  0.3633E+01  0.1255E+03
      3.133  0.3262E+01  0.1259E+03
      3.242  0.3118E+01  0.1262E+03
      3.350  0.2742E+01  0.1265E+03
      3.458  0.2344E+01  0.1268E+03
      3.567  0.2002E+01  0.1270E+03
      3.675  0.1771E+01  0.1272E+03
      3.783  0.1533E+01  0.1274E+03
      3.892  0.1293E+01  0.1276E+03
      4.000  0.1060E+01  0.1277E+03
      4.108  0.8741E+00  0.1278E+03
      4.217  0.6583E+00  0.1279E+03
      4.325  0.4573E+00  0.1279E+03
      4.433  0.2688E+00  0.1280E+03
      4.542  0.9057E-01  0.1280E+03
      4.650  0.4020E-01  0.1280E+03
      4.758  0.1678E+00  0.1280E+03
      4.867  0.3067E+00  0.1280E+03
      4.975  0.4602E+00  0.1281E+03
      5.083  0.6303E+00  0.1281E+03
      5.192  0.8259E+00  0.1282E+03
      5.300  0.1098E+01  0.1283E+03
      5.408  0.1462E+01  0.1285E+03
      5.517  0.1830E+01  0.1286E+03
      5.625  0.2180E+01  0.1289E+03
      5.733  0.2596E+01  0.1291E+03
      5.842  0.3163E+01  0.1294E+03
      5.950  0.3706E+01  0.1298E+03
      6.058  0.4685E+01  0.1302E+03
      6.167  0.1036E+02  0.1310E+03
      6.275  0.8444E+01  0.1321E+03
      6.383  0.7976E+01  0.1330E+03
      6.492  0.8098E+01  0.1338E+03
      6.600  0.6803E+01  0.1347E+03
      6.708  0.6118E+01  0.1354E+03
      6.817  0.6019E+01  0.1360E+03
      6.925  0.5418E+01  0.1367E+03
      7.033  0.4746E+01  0.1372E+03
      7.142  0.3983E+01  0.1377E+03
      7.250  0.3561E+01  0.1381E+03
      7.358  0.3617E+01  0.1385E+03
      7.467  0.4055E+01  0.1389E+03
      7.575  0.4471E+01  0.1394E+03
      7.683  0.4775E+01  0.1399E+03
      7.792  0.4663E+01  0.1404E+03
      7.900  0.4499E+01  0.1409E+03
      8.008  0.4340E+01  0.1413E+03
      8.117  0.4177E+01  0.1418E+03
      8.225  0.3991E+01  0.1422E+03
      8.333  0.3820E+01  0.1427E+03
      8.442  0.3678E+01  0.1431E+03
      8.550  0.3575E+01  0.1435E+03
      8.658  0.3506E+01  0.1439E+03
      8.767  0.3405E+01  0.1442E+03
      8.875  0.3326E+01  0.1446E+03
      8.983  0.3547E+01  0.1450E+03
      9.092  0.3764E+01  0.1454E+03
      9.200  0.3963E+01  0.1458E+03
      9.308  0.4076E+01  0.1462E+03
      9.417  0.4167E+01  0.1467E+03
      9.525  0.3992E+01  0.1471E+03
      9.633  0.3945E+01  0.1475E+03
      9.742  0.3934E+01  0.1480E+03
      9.850  0.3929E+01  0.1484E+03
      9.958  0.3946E+01  0.1488E+03
     10.067  0.3966E+01  0.1492E+03
     10.175  0.4020E+01  0.1497E+03
     10.283  0.4089E+01  0.1501E+03
     10.392  0.4226E+01  0.1506E+03
     10.500  0.4272E+01  0.1510E+03
     10.608  0.5576E+01  0.1516E+03
     10.717  0.5069E+01  0.1522E+03
     10.825  0.4956E+01  0.1528E+03
     10.933  0.4636E+01  0.1533E+03
     11.042  0.4901E+01  0.1538E+03
     11.150  0.3763E+01  0.1542E+03
     11.258  0.3466E+01  0.1546E+03
     11.367  0.3670E+01  0.1550E+03
     11.475  0.4274E+01  0.1554E+03
     11.583  0.2891E+01  0.1559E+03
     11.692  0.2617E+01  0.1561E+03
     11.800  0.3753E+01  0.1565E+03
     11.908  0.6881E+01  0.1570E+03
     12.017  0.8438E+01  0.1578E+03
     12.125  0.1127E+02  0.1589E+03
     12.233  0.1339E+02  0.1602E+03
     12.342  0.1395E+02  0.1617E+03
     12.450  0.1288E+02  0.1632E+03
     12.558  0.9963E+01  0.1644E+03
     12.667  0.7128E+01  0.1653E+03
     12.775  0.5991E+01  0.1661E+03
     12.883  0.5418E+01  0.1667E+03
     12.992  0.5058E+01  0.1673E+03
     13.100  0.2725E+01  0.1677E+03
     13.208  0.1448E+01  0.1679E+03
     13.317  0.4191E+00  0.1680E+03
     13.425  0.1072E-02  0.1680E+03
     13.533  0.0000E+00  0.1680E+03
     13.642  0.0000E+00  0.1680E+03
     13.750  0.0000E+00  0.1680E+03
     13.858  0.0000E+00  0.1680E+03
     13.967  0.0000E+00  0.1680E+03
     14.075  0.0000E+00  0.1680E+03
     14.183  0.0000E+00  0.1680E+03
     14.292  0.0000E+00  0.1680E+03
     14.400  0.0000E+00  0.1680E+03
     14.508  0.0000E+00  0.1680E+03
     14.617  0.0000E+00  0.1680E+03
     14.725  0.0000E+00  0.1680E+03
     14.833  0.0000E+00  0.1680E+03
     14.942  0.0000E+00  0.1680E+03
     15.050  0.0000E+00  0.1680E+03
     15.158  0.0000E+00  0.1680E+03
     15.267  0.0000E+00  0.1680E+03
     15.375  0.0000E+00  0.1680E+03
     15.483  0.0000E+00  0.1680E+03
