   32   32    1    1
  0.8905205E+01  0.4932875E-09  0.4932875E-09  0.1352877E-08  0.5000000E-15
  1.000000000000000E-004
  CAR 
 graphite                                
    128    163     84
 
  0.0000000E+00  0.0000000E+00  0.0000000E+00  0.3086420E-02
    1      -15.016844
    2      -14.880655
    3      -14.880264
    4      -14.735066
    5       -9.698990
    6       -9.688435
    7       -9.686100
    8       -9.643924
    9       -9.641816
   10       -9.631986
   11       -9.630120
   12       -9.630075
   13       -9.626666
   14       -9.595553
   15       -9.582860
   16       -9.579653
   17       -8.623300
   18       -8.621630
   19       -8.620005
   20       -8.593255
   21       -8.592026
   22       -8.590358
   23       -8.589472
   24       -8.589432
   25       -8.587301
   26       -8.543133
   27       -8.542716
   28       -8.540715
   29       -3.859915
   30       -3.008336
   31       -3.006722
   32       -1.973926
   33       -1.795581
   34       -1.793324
   35       -1.777783
   36       -1.770352
   37       -1.769067
   38       -1.769058
   39       -1.765583
   40       -1.752904
   41       -1.750373
   42       -1.743760
   43       -1.740964
   44       -1.725701
   45        1.600201
   46        1.606990
   47        1.607800
   48        1.612607
   49        1.618821
   50        1.623912
   51        1.624453
   52        1.631011
   53        1.865382
   54        1.868105
   55        1.869659
   56        2.245770
   57        2.249324
   58        2.255987
   59        2.256468
   60        2.256794
   61        2.260939
   62        2.512245
   63        2.529905
   64        2.532509
   65        6.115865
   66        6.118994
   67        6.125069
   68        6.261261
   69        6.263070
   70        6.265344
   71        6.267723
   72        6.267937
   73        6.270292
   74        6.766873
   75        6.773980
   76        6.776470
   77        8.844509
   78       11.416624
   79       11.420315
   80       11.815286
   81       11.818615
   82       11.851142
   83       11.998510
   84       12.010949
 
  0.1111111E+00  0.1387779E-16  0.0000000E+00  0.6172840E-02
    1      -14.943236
    2      -14.807540
    3      -14.807150
    4      -14.662663
    5      -10.483398
    6      -10.386480
    7      -10.386190
    8      -10.285728
    9       -9.946022
   10       -9.937157
   11       -9.863315
   12       -9.861974
   13       -9.853208
   14       -9.852759
   15       -9.778747
   16       -9.768673
   17       -8.317358
   18       -8.313296
   19       -8.251777
   20       -8.250011
   21       -8.246348
   22       -8.245808
   23       -8.177106
   24       -8.172336
   25       -7.801935
   26       -7.726864
   27       -7.724884
   28       -7.646193
   29       -3.770535
   30       -2.921218
   31       -2.919607
   32       -2.021638
   33       -2.004655
   34       -1.993103
   35       -1.992843
   36       -1.977021
   37       -1.974571
   38       -1.964035
   39       -1.946910
   40       -1.890208
   41       -1.721259
   42       -1.696739
   43       -1.694351
   44       -1.669762
   45        1.279726
   46        1.306095
   47        1.317321
   48        1.321616
   49        1.331799
   50        1.446043
   51        1.455645
   52        1.459584
   53        1.470959
   54        1.749528
   55        1.753584
   56        1.829515
   57        1.832096
   58        2.194286
   59        2.197718
   60        2.204026
   61        2.205382
   62        2.374166
   63        2.562422
   64        2.577965
   65        6.197424
   66        6.202043
   67        6.393084
   68        6.396114
   69        6.398624
   70        6.401200
   71        6.492250
   72        6.804880
   73        6.808924
   74        6.902208
   75        6.910188
   76        7.370832
   77        8.933616
   78       11.494490
   79       11.498120
   80       11.857690
   81       12.036559
   82       12.037425
   83       12.160081
   84       12.191511
 
  0.2222222E+00  0.2775558E-16  0.0000000E+00  0.6172840E-02
    1      -14.722593
    2      -14.588655
    3      -14.588266
    4      -14.445793
    5      -11.494646
    6      -11.386603
    7      -11.386251
    8      -11.273191
    9      -10.292319
   10      -10.286379
   11      -10.197848
   12      -10.196909
   13      -10.191258
   14      -10.190718
   15      -10.098669
   16      -10.092275
   17       -7.636900
   18       -7.629599
   19       -7.564293
   20       -7.562669
   21       -7.556096
   22       -7.555683
   23       -7.486136
   24       -7.478681
   25       -6.476214
   26       -6.406240
   27       -6.404340
   28       -6.331718
   29       -3.503204
   30       -2.660944
   31       -2.659347
   32       -2.628379
   33       -2.612423
   34       -2.593424
   35       -2.592990
   36       -2.578151
   37       -2.575787
   38       -2.556977
   39       -2.540841
   40       -1.640067
   41       -1.506247
   42       -1.482272
   43       -1.479803
   44       -1.455619
   45        0.262777
   46        0.480317
   47        0.498688
   48        0.503113
   49        0.521388
   50        0.939575
   51        0.941566
   52        1.025798
   53        1.039450
   54        1.043496
   55        1.057951
   56        1.529964
   57        1.534217
   58        1.706945
   59        2.073541
   60        2.076792
   61        2.081562
   62        2.082821
   63        2.614493
   64        2.625550
   65        6.448455
   66        6.450581
   67        6.727532
   68        6.730084
   69        6.733151
   70        6.735765
   71        7.211509
   72        7.217057
   73        7.627766
   74        8.028355
   75        8.031687
   76        8.583373
   77        9.201623
   78       11.726913
   79       11.730335
   80       11.973351
   81       12.145608
   82       12.146850
   83       12.301673
   84       12.997098
 
  0.3333333E+00  0.0000000E+00  0.0000000E+00  0.6172840E-02
    1      -14.356124
    2      -14.225089
    3      -14.224699
    4      -14.085534
    5      -12.407630
    6      -12.292123
    7      -12.291744
    8      -12.169921
    9      -10.548444
   10      -10.544771
   11      -10.449626
   12      -10.448664
   13      -10.445436
   14      -10.444684
   15      -10.345373
   16      -10.341517
   17       -6.828892
   18       -6.819905
   19       -6.762096
   20       -6.760383
   21       -6.752465
   22       -6.751778
   23       -6.691107
   24       -6.682251
   25       -5.042669
   26       -4.982256
   27       -4.980109
   28       -4.917849
   29       -3.444139
   30       -3.430137
   31       -3.403011
   32       -3.402179
   33       -3.389621
   34       -3.387166
   35       -3.359605
   36       -3.345458
   37       -3.060517
   38       -2.230785
   39       -2.229205
   40       -1.227570
   41       -1.156894
   42       -1.134136
   43       -1.131502
   44       -1.108116
   45       -0.758094
   46       -0.704092
   47       -0.675864
   48       -0.672280
   49       -0.643948
   50       -0.014419
   51       -0.012698
   52        0.462611
   53        0.479708
   54        0.483448
   55        0.501224
   56        0.860006
   57        1.339899
   58        1.343193
   59        1.949971
   60        1.953174
   61        1.956019
   62        1.957143
   63        2.616657
   64        2.623388
   65        6.807800
   66        6.810823
   67        7.119184
   68        7.121031
   69        7.123827
   70        7.126894
   71        7.521697
   72        7.525154
   73        9.135295
   74        9.506578
   75        9.509905
   76        9.648901
   77        9.993381
   78       11.942067
   79       12.095213
   80       12.098041
   81       12.225293
   82       12.312336
   83       12.313930
   84       12.595809
 
  0.4444444E+00  0.5551115E-16  0.0000000E+00  0.6172840E-02
    1      -13.845716
    2      -13.718778
    3      -13.718381
    4      -13.583809
    5      -13.194450
    6      -13.072664
    7      -13.072288
    8      -12.943522
    9      -10.680264
   10      -10.678263
   11      -10.580172
   12      -10.578795
   13      -10.577741
   14      -10.576504
   15      -10.473611
   16      -10.471526
   17       -6.078511
   18       -6.071689
   19       -6.030357
   20       -6.028434
   21       -6.023595
   22       -6.021545
   23       -5.980396
   24       -5.974191
   25       -4.193008
   26       -4.185291
   27       -4.159743
   28       -4.157607
   29       -4.151833
   30       -4.149050
   31       -4.120410
   32       -4.111991
   33       -3.562161
   34       -3.512425
   35       -3.509892
   36       -3.458831
   37       -2.447580
   38       -2.090118
   39       -2.051782
   40       -2.048656
   41       -2.008733
   42       -1.674029
   43       -1.636201
   44       -1.634495
   45       -0.890296
   46       -0.888663
   47       -0.690524
   48       -0.668813
   49       -0.665948
   50       -0.660621
   51       -0.643915
   52       -0.134865
   53       -0.115096
   54       -0.111712
   55       -0.091299
   56        0.045749
   57        1.234791
   58        1.236968
   59        1.875697
   60        1.879203
   61        1.880170
   62        1.881252
   63        2.602772
   64        2.605950
   65        7.093460
   66        7.096217
   67        7.387029
   68        7.388074
   69        7.389360
   70        7.393470
   71        7.695098
   72        7.697881
   73       10.271898
   74       10.758512
   75       11.042964
   76       11.048886
   77       11.066758
   78       11.452040
   79       12.340486
   80       12.348757
   81       12.356434
   82       12.428645
   83       12.500757
   84       12.504514
 
 -0.6776264E-20  0.1111111E+00  0.0000000E+00  0.6172840E-02
    1      -14.943234
    2      -14.807537
    3      -14.807148
    4      -14.662661
    5      -10.483502
    6      -10.386626
    7      -10.386289
    8      -10.285874
    9       -9.946027
   10       -9.936830
   11       -9.863256
   12       -9.861977
   13       -9.853194
   14       -9.852077
   15       -9.778712
   16       -9.768288
   17       -8.317698
   18       -8.314327
   19       -8.251822
   20       -8.251505
   21       -8.246763
   22       -8.246294
   23       -8.177405
   24       -8.173125
   25       -7.800924
   26       -7.725022
   27       -7.724792
   28       -7.645261
   29       -3.770540
   30       -2.921223
   31       -2.919612
   32       -2.020455
   33       -2.004503
   34       -1.992852
   35       -1.990646
   36       -1.977128
   37       -1.974571
   38       -1.962775
   39       -1.946990
   40       -1.890215
   41       -1.722319
   42       -1.696812
   43       -1.696713
   44       -1.671196
   45        1.279259
   46        1.309767
   47        1.321614
   48        1.321798
   49        1.333526
   50        1.444531
   51        1.455323
   52        1.455644
   53        1.466417
   54        1.749634
   55        1.754500
   56        1.829039
   57        1.830630
   58        2.194693
   59        2.197675
   60        2.204285
   61        2.207273
   62        2.372912
   63        2.562519
   64        2.579325
   65        6.195459
   66        6.201813
   67        6.392714
   68        6.394562
   69        6.397825
   70        6.399729
   71        6.494314
   72        6.807776
   73        6.809513
   74        6.902024
   75        6.908379
   76        7.372466
   77        8.933611
   78       11.494464
   79       11.498093
   80       11.857048
   81       12.035836
   82       12.036667
   83       12.151785
   84       12.194750
 
  0.1111111E+00  0.1111111E+00  0.0000000E+00  0.6172840E-02
    1      -14.795991
    2      -14.661451
    3      -14.661062
    4      -14.517906
    5      -10.948830
    6      -10.945856
    7      -10.847417
    8      -10.844344
    9      -10.844315
   10      -10.841403
   11      -10.738183
   12      -10.735120
   13       -9.509906
   14       -9.455412
   15       -9.453833
   16       -9.408379
   17       -8.437087
   18       -8.409205
   19       -8.406100
   20       -8.362103
   21       -7.118686
   22       -7.115394
   23       -7.046724
   24       -7.042576
   25       -7.042549
   26       -7.040272
   27       -6.967520
   28       -6.964311
   29       -3.592050
   30       -2.747438
   31       -2.745833
   32       -2.687703
   33       -2.653159
   34       -2.650723
   35       -2.615570
   36       -1.876913
   37       -1.874549
   38       -1.849589
   39       -1.847991
   40       -1.847983
   41       -1.844341
   42       -1.820315
   43       -1.817278
   44       -1.723151
   45        0.775964
   46        0.787832
   47        0.792688
   48        0.802231
   49        0.846915
   50        0.848379
   51        1.131854
   52        1.139713
   53        1.143698
   54        1.154685
   55        1.468831
   56        1.470808
   57        1.470891
   58        1.474308
   59        2.132480
   60        2.145432
   61        2.147883
   62        2.512340
   63        2.515427
   64        2.773723
   65        6.105502
   66        6.189122
   67        6.193564
   68        6.596858
   69        6.977592
   70        6.980440
   71        7.347048
   72        7.351515
   73        7.351697
   74        7.353116
   75        7.898439
   76        7.901004
   77        9.112502
   78       11.651021
   79       11.654529
   80       12.229182
   81       12.233194
   82       12.408703
   83       12.412422
   84       12.417428
 
  0.2222222E+00  0.1111111E+00  0.0000000E+00  0.6172840E-02
    1      -14.502358
    2      -14.370141
    3      -14.369751
    4      -14.229249
    5      -11.914162
    6      -11.802748
    7      -11.802379
    8      -11.685313
    9      -11.289622
   10      -11.183532
   11      -11.183223
   12      -11.071837
   13       -9.560104
   14       -9.480446
   15       -9.479523
   16       -9.399442
   17       -7.970237
   18       -7.909455
   19       -7.906946
   20       -7.839822
   21       -6.332519
   22       -6.264809
   23       -6.264551
   24       -6.194444
   25       -5.735561
   26       -5.670930
   27       -5.669026
   28       -5.602349
   29       -3.595852
   30       -3.553526
   31       -3.551160
   32       -3.507685
   33       -3.236858
   34       -2.403583
   35       -2.402023
   36       -2.400425
   37       -2.369651
   38       -2.369143
   39       -2.334678
   40       -1.588795
   41       -1.562600
   42       -1.560197
   43       -1.533633
   44       -1.391637
   45       -0.195044
   46       -0.176709
   47       -0.158123
   48       -0.153582
   49       -0.135423
   50        0.511573
   51        0.519009
   52        0.520840
   53        0.587603
   54        0.600191
   55        0.604878
   56        0.619523
   57        1.182012
   58        1.183587
   59        1.345993
   60        1.941680
   61        2.269283
   62        2.714798
   63        2.717778
   64        3.081589
   65        6.081462
   66        6.197630
   67        6.201805
   68        6.543655
   69        7.555283
   70        7.921273
   71        7.922997
   72        8.334032
   73        8.390474
   74        8.719865
   75        8.722758
   76        9.221260
   77        9.471125
   78       11.961494
   79       11.964690
   80       12.346593
   81       12.548411
   82       12.549598
   83       12.565336
   84       12.930354
 
  0.3333333E+00  0.1111111E+00  0.0000000E+00  0.6172840E-02
    1      -14.063835
    2      -13.935076
    3      -13.934683
    4      -13.798173
    5      -12.764718
    6      -12.646287
    7      -12.645914
    8      -12.521080
    9      -11.498564
   10      -11.390479
   11      -11.390167
   12      -11.276826
   13       -9.703639
   14       -9.614187
   15       -9.613703
   16       -9.520968
   17       -7.204473
   18       -7.143332
   19       -7.141003
   20       -7.077445
   21       -5.532616
   22       -5.477012
   23       -5.476118
   24       -5.419368
   25       -4.534329
   26       -4.490318
   27       -4.487779
   28       -4.441353
   29       -4.286059
   30       -4.231855
   31       -4.229710
   32       -4.174132
   33       -3.102725
   34       -3.066669
   35       -3.065357
   36       -3.027322
   37       -2.708692
   38       -1.889741
   39       -1.888218
   40       -1.423274
   41       -1.392076
   42       -1.387947
   43       -1.357657
   44       -1.172326
   45       -1.168383
   46       -1.147552
   47       -1.145035
   48       -1.119991
   49       -0.901370
   50       -0.405021
   51       -0.403383
   52       -0.037397
   53       -0.019154
   54       -0.015060
   55        0.004022
   56        0.302493
   57        0.500883
   58        0.997697
   59        0.999317
   60        1.802202
   61        2.268983
   62        2.805489
   63        2.808052
   64        3.347461
   65        6.077274
   66        6.316855
   67        6.320323
   68        6.644062
   69        8.063424
   70        8.376424
   71        8.378352
   72        8.722334
   73        9.899506
   74       10.008060
   75       10.226866
   76       10.229500
   77       10.645191
   78       11.590520
   79       12.382731
   80       12.385898
   81       12.628820
   82       12.722050
   83       12.723551
   84       12.963570
 
  0.4444444E+00  0.1111111E+00  0.0000000E+00  0.6172840E-02
    1      -13.484877
    2      -13.481924
    3      -13.361960
    4      -13.359423
    5      -13.358472
    6      -13.356239
    7      -13.228980
    8      -13.225963
    9      -11.569063
   10      -11.460633
   11      -11.460319
   12      -11.346247
   13       -9.758329
   14       -9.666919
   15       -9.666574
   16       -9.571496
   17       -6.695147
   18       -6.656043
   19       -6.653907
   20       -6.616802
   21       -5.059270
   22       -5.057088
   23       -5.034467
   24       -5.031955
   25       -5.027043
   26       -5.024293
   27       -5.002629
   28       -4.993511
   29       -3.519031
   30       -3.498333
   31       -3.495165
   32       -3.469850
   33       -2.827935
   34       -2.823779
   35       -2.786349
   36       -2.781338
   37       -2.779885
   38       -2.779344
   39       -2.738334
   40       -2.734828
   41       -2.016299
   42       -2.013829
   43       -1.220388
   44       -1.218259
   45       -1.217464
   46       -1.214600
   47       -0.646081
   48       -0.641819
   49       -0.623149
   50       -0.622361
   51       -0.620199
   52       -0.614016
   53       -0.598465
   54       -0.591021
   55       -0.264950
   56       -0.262143
   57        0.230739
   58        0.933757
   59        0.935455
   60        1.752178
   61        2.258227
   62        2.829249
   63        2.831343
   64        3.446302
   65        6.088535
   66        6.384297
   67        6.386910
   68        6.699231
   69        8.282161
   70        8.553749
   71        8.556074
   72        8.826905
   73       10.718012
   74       10.719689
   75       11.491197
   76       11.494778
   77       11.715903
   78       11.721254
   79       11.722264
   80       11.725312
   81       12.061855
   82       12.065413
   83       12.824218
   84       12.832600
 
 -0.4444444E+00  0.1111111E+00  0.0000000E+00  0.6172840E-02
    1      -14.064582
    2      -13.935814
    3      -13.935429
    4      -13.798921
    5      -12.763544
    6      -12.645120
    7      -12.644737
    8      -12.519916
    9      -11.500328
   10      -11.392256
   11      -11.391944
   12      -11.278615
   13       -9.700717
   14       -9.610942
   15       -9.610641
   16       -9.517667
   17       -7.197896
   18       -7.135870
   19       -7.135264
   20       -7.070953
   21       -5.542450
   22       -5.487385
   23       -5.484992
   24       -5.428684
   25       -4.544838
   26       -4.500193
   27       -4.499336
   28       -4.452230
   29       -4.288615
   30       -4.234641
   31       -4.232141
   32       -4.176715
   33       -3.090077
   34       -3.054685
   35       -3.051581
   36       -3.014196
   37       -2.709507
   38       -1.890539
   39       -1.889021
   40       -1.421791
   41       -1.390072
   42       -1.387313
   43       -1.356453
   44       -1.169837
   45       -1.167195
   46       -1.145293
   47       -1.142330
   48       -1.117456
   49       -0.902169
   50       -0.403872
   51       -0.402196
   52       -0.038860
   53       -0.020157
   54       -0.017496
   55        0.001764
   56        0.300747
   57        0.501999
   58        0.995512
   59        0.997320
   60        1.799466
   61        2.270611
   62        2.809511
   63        2.811271
   64        3.355051
   65        6.075814
   66        6.318657
   67        6.320595
   68        6.644449
   69        8.059400
   70        8.372428
   71        8.375200
   72        8.720742
   73        9.899437
   74       10.006971
   75       10.225718
   76       10.228719
   77       10.643452
   78       11.592153
   79       12.382069
   80       12.385201
   81       12.626176
   82       12.719485
   83       12.721830
   84       12.962272
 
 -0.3333333E+00  0.1111111E+00  0.0000000E+00  0.6172840E-02
    1      -14.502883
    2      -14.370663
    3      -14.370278
    4      -14.229784
    5      -11.912770
    6      -11.801356
    7      -11.800983
    8      -11.683917
    9      -11.293198
   10      -11.187139
   11      -11.186828
   12      -11.075479
   13       -9.553605
   14       -9.473043
   15       -9.472779
   16       -9.391658
   17       -7.966001
   18       -7.903582
   19       -7.903386
   20       -7.834675
   21       -6.342388
   22       -6.275409
   23       -6.273487
   24       -6.204098
   25       -5.738040
   26       -5.673525
   27       -5.671423
   28       -5.604865
   29       -3.609654
   30       -3.566396
   31       -3.566103
   32       -3.521574
   33       -3.237444
   34       -2.402636
   35       -2.401051
   36       -2.387388
   37       -2.354672
   38       -2.351902
   39       -2.318516
   40       -1.586843
   41       -1.560758
   42       -1.558149
   43       -1.531688
   44       -1.392219
   45       -0.193693
   46       -0.177651
   47       -0.158325
   48       -0.156491
   49       -0.137332
   50        0.508437
   51        0.520178
   52        0.521945
   53        0.589639
   54        0.602844
   55        0.605061
   56        0.619191
   57        1.177697
   58        1.179649
   59        1.347123
   60        1.936090
   61        2.271542
   62        2.722197
   63        2.723829
   64        3.095719
   65        6.076832
   66        6.200438
   67        6.202160
   68        6.546912
   69        7.550733
   70        7.915068
   71        7.918204
   72        8.333520
   73        8.386304
   74        8.718423
   75        8.721716
   76        9.219381
   77        9.470323
   78       11.960619
   79       11.963808
   80       12.345173
   81       12.546333
   82       12.547945
   83       12.565463
   84       12.929657
 
 -0.2222222E+00  0.1111111E+00  0.0000000E+00  0.6172840E-02
    1      -14.796312
    2      -14.661772
    3      -14.661386
    4      -14.518230
    5      -10.952751
    6      -10.945719
    7      -10.850073
    8      -10.849746
    9      -10.842950
   10      -10.842635
   11      -10.742331
   12      -10.735138
   13       -9.498915
   14       -9.442618
   15       -9.442421
   16       -9.395032
   17       -8.437139
   18       -8.407200
   19       -8.407059
   20       -8.360887
   21       -7.124635
   22       -7.119659
   23       -7.051617
   24       -7.049841
   25       -7.046660
   26       -7.044725
   27       -6.973600
   28       -6.968715
   29       -3.592404
   30       -2.747793
   31       -2.746188
   32       -2.703194
   33       -2.667567
   34       -2.667403
   35       -2.631144
   36       -1.873829
   37       -1.859082
   38       -1.846795
   39       -1.844378
   40       -1.832227
   41       -1.829534
   42       -1.816992
   43       -1.802408
   44       -1.723505
   45        0.770262
   46        0.782211
   47        0.782764
   48        0.794140
   49        0.842640
   50        0.849291
   51        1.140341
   52        1.149245
   53        1.149533
   54        1.159386
   55        1.463609
   56        1.465770
   57        1.471720
   58        1.473974
   59        2.134351
   60        2.137900
   61        2.148109
   62        2.521629
   63        2.523262
   64        2.791420
   65        6.098948
   66        6.192598
   67        6.194382
   68        6.603298
   69        6.977203
   70        6.977628
   71        7.344015
   72        7.347182
   73        7.347529
   74        7.350887
   75        7.894591
   76        7.897156
   77        9.112004
   78       11.650425
   79       11.653932
   80       12.230114
   81       12.263206
   82       12.408578
   83       12.418721
   84       12.442195
 
 -0.1111111E+00  0.1111111E+00  0.0000000E+00  0.6172840E-02
    1      -14.943341
    2      -14.807642
    3      -14.807254
    4      -14.662765
    5      -10.491050
    6      -10.394407
    7      -10.393949
    8      -10.293804
    9       -9.936733
   10       -9.934629
   11       -9.853842
   12       -9.851822
   13       -9.851780
   14       -9.849282
   15       -9.768521
   16       -9.766062
   17       -8.316602
   18       -8.314593
   19       -8.251091
   20       -8.247981
   21       -8.247941
   22       -8.247355
   23       -8.175593
   24       -8.173847
   25       -7.806626
   26       -7.731568
   27       -7.729681
   28       -7.651051
   29       -3.770657
   30       -2.921342
   31       -2.919730
   32       -2.021689
   33       -2.019559
   34       -1.993803
   35       -1.992500
   36       -1.992491
   37       -1.989038
   38       -1.964332
   39       -1.961575
   40       -1.890335
   41       -1.705146
   42       -1.680777
   43       -1.678151
   44       -1.653858
   45        1.273994
   46        1.298883
   47        1.309514
   48        1.313846
   49        1.326153
   50        1.452269
   51        1.463233
   52        1.467778
   53        1.476863
   54        1.753852
   55        1.755613
   56        1.820911
   57        1.823353
   58        2.203717
   59        2.204734
   60        2.205059
   61        2.209045
   62        2.360930
   63        2.577429
   64        2.580042
   65        6.195041
   66        6.198229
   67        6.393281
   68        6.398469
   69        6.398718
   70        6.399833
   71        6.494719
   72        6.802028
   73        6.805857
   74        6.906739
   75        6.909265
   76        7.365916
   77        8.933442
   78       11.494253
   79       11.497883
   80       11.890420
   81       12.068887
   82       12.070576
   83       12.149854
   84       12.153909
 
 -0.1355253E-19  0.2222222E+00  0.0000000E+00  0.6172840E-02
    1      -14.722586
    2      -14.588646
    3      -14.588260
    4      -14.445786
    5      -11.494627
    6      -11.386580
    7      -11.386242
    8      -11.273179
    9      -10.292494
   10      -10.286157
   11      -10.198281
   12      -10.196920
   13      -10.191244
   14      -10.190061
   15      -10.098773
   16      -10.091994
   17       -7.637267
   18       -7.630458
   19       -7.564324
   20       -7.563934
   21       -7.556603
   22       -7.556036
   23       -7.486416
   24       -7.479347
   25       -6.475285
   26       -6.404498
   27       -6.404269
   28       -6.330830
   29       -3.503223
   30       -2.660966
   31       -2.659364
   32       -2.627244
   33       -2.612306
   34       -2.592998
   35       -2.591022
   36       -2.578040
   37       -2.575787
   38       -2.555688
   39       -2.540796
   40       -1.640094
   41       -1.507365
   42       -1.482391
   43       -1.482257
   44       -1.457140
   45        0.262330
   46        0.483209
   47        0.502943
   48        0.503127
   49        0.523153
   50        0.939222
   51        0.940783
   52        1.024195
   53        1.039221
   54        1.039452
   55        1.054420
   56        1.530025
   57        1.535099
   58        1.706182
   59        2.073929
   60        2.076734
   61        2.081787
   62        2.084577
   63        2.614662
   64        2.626787
   65        6.446895
   66        6.450004
   67        6.726814
   68        6.728376
   69        6.732854
   70        6.734332
   71        7.210710
   72        7.215727
   73        7.629322
   74        8.030480
   75        8.032202
   76        8.584621
   77        9.201608
   78       11.726816
   79       11.730239
   80       11.972684
   81       12.145236
   82       12.145851
   83       12.300981
   84       13.004396
 
  0.1111111E+00  0.2222222E+00  0.0000000E+00  0.6172840E-02
    1      -14.502353
    2      -14.370133
    3      -14.369747
    4      -14.229243
    5      -11.914122
    6      -11.802693
    7      -11.802356
    8      -11.685274
    9      -11.289651
   10      -11.183564
   11      -11.183245
   12      -11.071861
   13       -9.560094
   14       -9.480424
   15       -9.479522
   16       -9.399431
   17       -7.970301
   18       -7.909455
   19       -7.907110
   20       -7.839923
   21       -6.333535
   22       -6.266608
   23       -6.264751
   24       -6.195433
   25       -5.734548
   26       -5.669093
   27       -5.668871
   28       -5.601367
   29       -3.595758
   30       -3.553369
   31       -3.551160
   32       -3.507618
   33       -3.236872
   34       -2.402457
   35       -2.401954
   36       -2.400439
   37       -2.369149
   38       -2.367032
   39       -2.333251
   40       -1.590013
   41       -1.562937
   42       -1.562595
   43       -1.535201
   44       -1.391658
   45       -0.195218
   46       -0.175214
   47       -0.156157
   48       -0.153580
   49       -0.134755