 running on    2 total cores
 distrk:  each k-point on    2 cores,    1 groups
 distr:  one band on    1 cores,    2 groups
 using from now: INCAR     
 vasp.5.3.5 31Mar14 (build Nov 02 2014 15:17:37) complex                        
  
 POSCAR found :  1 types and      32 ions
 scaLAPACK will be used

 ----------------------------------------------------------------------------- 
|                                                                             |
|  ADVICE TO THIS USER RUNNING 'VASP/VAMP'   (HEAR YOUR MASTER'S VOICE ...):  |
|                                                                             |
|      You have a (more or less) 'large supercell' and for larger cells       |
|      it might be more efficient to use real space projection operators      |
|      So try LREAL= Auto  in the INCAR   file.                               |
|      Mind: If you want to do a very accurate calculations keep the          |
|      reciprocal projection scheme          (i.e. LREAL=.FALSE.)             |
|                                                                             |
 ----------------------------------------------------------------------------- 

 LDA part: xc-table for Pade appr. of Perdew
 POSCAR, INCAR and KPOINTS ok, starting setup
 WARNING: small aliasing (wrap around) errors must be expected
 FFT: planning ...
 WAVECAR not read
 WARNING: random wavefunctions but no delay for mixing, default for NELMDL
 entering main loop
       N       E                     dE             d eps       ncg     rms          rms(c)
DAV:   1     0.621389067489E+03    0.62139E+03   -0.71347E+04 26764   0.163E+03
DAV:   2    -0.257497045292E+03   -0.87889E+03   -0.83427E+03 33422   0.322E+02
DAV:   3    -0.312440541456E+03   -0.54943E+02   -0.54229E+02 31512   0.807E+01
DAV:   4    -0.313692950471E+03   -0.12524E+01   -0.12491E+01 32992   0.130E+01
DAV:   5    -0.313736053536E+03   -0.43103E-01   -0.43082E-01 33680   0.220E+00    0.221E+01
DAV:   6    -0.299248029410E+03    0.14488E+02   -0.14988E+01 29920   0.110E+01    0.116E+01
DAV:   7    -0.294650464434E+03    0.45976E+01   -0.15769E+01 29400   0.112E+01    0.194E+00
DAV:   8    -0.294714401843E+03   -0.63937E-01   -0.36426E-01 30150   0.188E+00    0.327E-01
DAV:   9    -0.294715210619E+03   -0.80878E-03   -0.16020E-02 31322   0.523E-01    0.157E-01
DAV:  10    -0.294715533709E+03   -0.32309E-03   -0.21152E-03 31644   0.226E-01    0.107E-01
DAV:  11    -0.294716000608E+03   -0.46690E-03   -0.61200E-04 30644   0.142E-01    0.819E-02
DAV:  12    -0.294716408223E+03   -0.40761E-03   -0.46845E-04 29812   0.111E-01    0.486E-02
DAV:  13    -0.294716612718E+03   -0.20450E-03   -0.14343E-04 33132   0.135E-01    0.571E-02
DAV:  14    -0.294716481006E+03    0.13171E-03   -0.62021E-05 32416   0.865E-02    0.102E-02
DAV:  15    -0.294716484795E+03   -0.37894E-05   -0.40775E-05 30340   0.272E-02    0.556E-03
DAV:  16    -0.294716485594E+03   -0.79925E-06   -0.35147E-06 25176   0.733E-03
   1 F= -.29967076E+03 E0= -.29967076E+03  d E =0.000000E+00
