  32  32   0   0
  0.9128901E+01  0.4934311E-09  0.4934311E-09  0.1385503E-08  0.5000000E-15
  1.000000000000000E-004
  CAR 
 graphite                                
     15.18272065    -17.19812205  301      4.39448214      1.00000000
    -17.198  0.0000E+00  0.0000E+00
    -17.090  0.0000E+00  0.0000E+00
    -16.982  0.0000E+00  0.0000E+00
    -16.874  0.0000E+00  0.0000E+00
    -16.766  0.0000E+00  0.0000E+00
    -16.658  0.0000E+00  0.0000E+00
    -16.551  0.0000E+00  0.0000E+00
    -16.443  0.0000E+00  0.0000E+00
    -16.335  0.0000E+00  0.0000E+00
    -16.227  0.0000E+00  0.0000E+00
    -16.119  0.0000E+00  0.0000E+00
    -16.011  0.0000E+00  0.0000E+00
    -15.903  0.0000E+00  0.0000E+00
    -15.795  0.0000E+00  0.0000E+00
    -15.687  0.0000E+00  0.0000E+00
    -15.579  0.0000E+00  0.0000E+00
    -15.471  0.0000E+00  0.0000E+00
    -15.363  0.0000E+00  0.0000E+00
    -15.255  0.0000E+00  0.0000E+00
    -15.147  0.1117E+01  0.2192E-01
    -15.039  0.2746E+01  0.2447E+00
    -14.931  0.5007E+01  0.6530E+00
    -14.824  0.4891E+01  0.1181E+01
    -14.716  0.4936E+01  0.1717E+01
    -14.608  0.4949E+01  0.2249E+01
    -14.500  0.4951E+01  0.2784E+01
    -14.392  0.4911E+01  0.3313E+01
    -14.284  0.5011E+01  0.3849E+01
    -14.176  0.4995E+01  0.4389E+01
    -14.068  0.4972E+01  0.4927E+01
    -13.960  0.5679E+01  0.5497E+01
    -13.852  0.5974E+01  0.6129E+01
    -13.744  0.6627E+01  0.6834E+01
    -13.636  0.4648E+01  0.7423E+01
    -13.528  0.1743E+01  0.7745E+01
    -13.420  0.3647E+01  0.8010E+01
    -13.312  0.4427E+01  0.8477E+01
    -13.204  0.4553E+01  0.8965E+01
    -13.097  0.6310E+01  0.9716E+01
    -12.989  0.6267E+01  0.1045E+02
    -12.881  0.4360E+01  0.1095E+02
    -12.773  0.4515E+01  0.1143E+02
    -12.665  0.4630E+01  0.1192E+02
    -12.557  0.4741E+01  0.1243E+02
    -12.449  0.5239E+01  0.1297E+02
    -12.341  0.5862E+01  0.1355E+02
    -12.233  0.5512E+01  0.1419E+02
    -12.125  0.5573E+01  0.1478E+02
    -12.017  0.5152E+01  0.1535E+02
    -11.909  0.4807E+01  0.1589E+02
    -11.801  0.4913E+01  0.1642E+02
    -11.693  0.5002E+01  0.1696E+02
    -11.585  0.5059E+01  0.1750E+02
    -11.478  0.5142E+01  0.1805E+02
    -11.370  0.5513E+01  0.1863E+02
    -11.262  0.5868E+01  0.1924E+02
    -11.154  0.5749E+01  0.1987E+02
    -11.046  0.5691E+01  0.2049E+02
    -10.938  0.5772E+01  0.2110E+02
    -10.830  0.5327E+01  0.2172E+02
    -10.722  0.4682E+01  0.2224E+02
    -10.614  0.5284E+01  0.2279E+02
    -10.506  0.5351E+01  0.2337E+02
    -10.398  0.5465E+01  0.2395E+02
    -10.290  0.5673E+01  0.2455E+02
    -10.182  0.5914E+01  0.2518E+02
    -10.074  0.7447E+01  0.2588E+02
     -9.966  0.1014E+02  0.2688E+02
     -9.858  0.6757E+01  0.2779E+02
     -9.751  0.5431E+01  0.2841E+02
     -9.643  0.6222E+01  0.2914E+02
     -9.535  0.3609E+01  0.2964E+02
     -9.427  0.3239E+01  0.3001E+02
     -9.319  0.2870E+01  0.3034E+02
     -9.211  0.2500E+01  0.3063E+02
     -9.103  0.2369E+01  0.3089E+02
     -8.995  0.3261E+01  0.3121E+02
     -8.887  0.1791E+01  0.3149E+02
     -8.779  0.1542E+01  0.3164E+02
     -8.671  0.2451E+01  0.3185E+02
     -8.563  0.6216E+01  0.3225E+02
     -8.455  0.4492E+01  0.3301E+02
     -8.347  0.3895E+01  0.3345E+02
     -8.239  0.4224E+01  0.3389E+02
     -8.131  0.7152E+01  0.3450E+02
     -8.024  0.6236E+01  0.3529E+02
     -7.916  0.7309E+01  0.3602E+02
     -7.808  0.8384E+01  0.3686E+02
     -7.700  0.8308E+01  0.3782E+02
     -7.592  0.6316E+01  0.3857E+02
     -7.484  0.6057E+01  0.3924E+02
     -7.376  0.5799E+01  0.3988E+02
     -7.268  0.5562E+01  0.4049E+02
     -7.160  0.5370E+01  0.4108E+02
     -7.052  0.5188E+01  0.4165E+02
     -6.944  0.4994E+01  0.4220E+02
     -6.836  0.4858E+01  0.4273E+02
     -6.728  0.4829E+01  0.4325E+02
     -6.620  0.4798E+01  0.4377E+02
     -6.512  0.4661E+01  0.4429E+02
     -6.405  0.4427E+01  0.4478E+02
     -6.297  0.4373E+01  0.4525E+02
     -6.189  0.4046E+01  0.4567E+02
     -6.081  0.4209E+01  0.4611E+02
     -5.973  0.4839E+01  0.4659E+02
     -5.865  0.5648E+01  0.4716E+02
     -5.757  0.6432E+01  0.4781E+02
     -5.649  0.1037E+02  0.4868E+02
     -5.541  0.8844E+01  0.4976E+02
     -5.433  0.6581E+01  0.5059E+02
     -5.325  0.4319E+01  0.5118E+02
     -5.217  0.2664E+01  0.5153E+02
     -5.109  0.2945E+01  0.5183E+02
     -5.001  0.4151E+01  0.5221E+02
     -4.893  0.5459E+01  0.5272E+02
     -4.785  0.6966E+01  0.5339E+02
     -4.678  0.8144E+01  0.5423E+02
     -4.570  0.6971E+01  0.5505E+02
     -4.462  0.5724E+01  0.5573E+02
     -4.354  0.6743E+01  0.5637E+02
     -4.246  0.7327E+01  0.5717E+02
     -4.138  0.6814E+01  0.5794E+02
     -4.030  0.6300E+01  0.5864E+02
     -3.922  0.5985E+01  0.5930E+02
     -3.814  0.5994E+01  0.5996E+02
     -3.706  0.1303E+02  0.6097E+02
     -3.598  0.9448E+01  0.6214E+02
     -3.490  0.8019E+01  0.6308E+02
     -3.382  0.6935E+01  0.6389E+02
     -3.274  0.6751E+01  0.6461E+02
     -3.166  0.7441E+01  0.6537E+02
     -3.058  0.8470E+01  0.6623E+02
     -2.951  0.1009E+02  0.6722E+02
     -2.843  0.1438E+02  0.6851E+02
     -2.735  0.1352E+02  0.7007E+02
     -2.627  0.1202E+02  0.7138E+02
     -2.519  0.1313E+02  0.7277E+02
     -2.411  0.1408E+02  0.7416E+02
     -2.303  0.1314E+02  0.7573E+02
     -2.195  0.1554E+02  0.7714E+02
     -2.087  0.1325E+02  0.7899E+02
     -1.979  0.1330E+02  0.8028E+02
     -1.871  0.1639E+02  0.8235E+02
     -1.763  0.1820E+02  0.8427E+02
     -1.655  0.1561E+02  0.8615E+02
     -1.547  0.1180E+02  0.8763E+02
     -1.439  0.9928E+01  0.8879E+02
     -1.332  0.9397E+01  0.8980E+02
     -1.224  0.7916E+01  0.9079E+02
     -1.116  0.1058E+02  0.9177E+02
     -1.008  0.1301E+02  0.9310E+02
     -0.900  0.1326E+02  0.9451E+02
     -0.792  0.8951E+01  0.9600E+02
     -0.684  0.1015E+02  0.9705E+02
     -0.576  0.1112E+02  0.9819E+02
     -0.468  0.1040E+02  0.9932E+02
     -0.360  0.1122E+02  0.1005E+03
     -0.252  0.9474E+01  0.1016E+03
     -0.144  0.9968E+01  0.1026E+03
     -0.036  0.9662E+01  0.1037E+03
      0.072  0.9548E+01  0.1047E+03
      0.180  0.9274E+01  0.1057E+03
      0.288  0.9148E+01  0.1067E+03
      0.395  0.9505E+01  0.1077E+03
      0.503  0.9438E+01  0.1088E+03
      0.611  0.9459E+01  0.1098E+03
      0.719  0.9200E+01  0.1108E+03
      0.827  0.9101E+01  0.1118E+03
      0.935  0.9425E+01  0.1128E+03
      1.043  0.9485E+01  0.1138E+03
      1.151  0.9931E+01  0.1149E+03
      1.259  0.1033E+02  0.1159E+03
      1.367  0.7688E+01  0.1169E+03
      1.475  0.6587E+01  0.1176E+03
      1.583  0.5854E+01  0.1183E+03
      1.691  0.5005E+01  0.1189E+03
      1.799  0.3971E+01  0.1194E+03
      1.907  0.3690E+01  0.1198E+03
      2.015  0.6024E+01  0.1203E+03
      2.122  0.9859E+01  0.1211E+03
      2.230  0.6110E+01  0.1221E+03
      2.338  0.9571E+01  0.1230E+03
      2.446  0.6426E+01  0.1238E+03
      2.554  0.5124E+01  0.1244E+03
      2.662  0.4378E+01  0.1249E+03
      2.770  0.3729E+01  0.1254E+03
      2.878  0.3270E+01  0.1257E+03
      2.986  0.3109E+01  0.1261E+03
      3.094  0.2925E+01  0.1264E+03
      3.202  0.2457E+01  0.1267E+03
      3.310  0.2101E+01  0.1270E+03
      3.418  0.1868E+01  0.1272E+03
      3.526  0.1632E+01  0.1274E+03
      3.634  0.1391E+01  0.1275E+03
      3.741  0.1155E+01  0.1277E+03
      3.849  0.9291E+00  0.1278E+03
      3.957  0.7019E+00  0.1279E+03
      4.065  0.5048E+00  0.1279E+03
      4.173  0.3241E+00  0.1280E+03
      4.281  0.1568E+00  0.1280E+03
      4.389  0.1894E-02  0.1280E+03
      4.497  0.1063E+00  0.1280E+03
      4.605  0.2369E+00  0.1280E+03
      4.713  0.3826E+00  0.1281E+03
      4.821  0.5465E+00  0.1281E+03
      4.929  0.7388E+00  0.1282E+03
      5.037  0.9856E+00  0.1283E+03
      5.145  0.1337E+01  0.1284E+03
      5.253  0.1717E+01  0.1286E+03
      5.361  0.2070E+01  0.1288E+03
      5.468  0.2468E+01  0.1290E+03
      5.576  0.2889E+01  0.1293E+03
      5.684  0.3238E+01  0.1296E+03
      5.792  0.4145E+01  0.1300E+03
      5.900  0.6398E+01  0.1306E+03
      6.008  0.8690E+01  0.1316E+03
      6.116  0.8561E+01  0.1325E+03
      6.224  0.8208E+01  0.1334E+03
      6.332  0.7468E+01  0.1343E+03
      6.440  0.6414E+01  0.1350E+03
      6.548  0.6222E+01  0.1357E+03
      6.656  0.5649E+01  0.1364E+03
      6.764  0.5133E+01  0.1369E+03
      6.872  0.4582E+01  0.1375E+03
      6.980  0.3812E+01  0.1379E+03
      7.088  0.3608E+01  0.1383E+03
      7.195  0.3812E+01  0.1387E+03
      7.303  0.4358E+01  0.1392E+03
      7.411  0.4682E+01  0.1397E+03
      7.519  0.4656E+01  0.1402E+03
      7.627  0.4500E+01  0.1407E+03
      7.735  0.4353E+01  0.1411E+03
      7.843  0.4197E+01  0.1416E+03
      7.951  0.4049E+01  0.1420E+03
      8.059  0.3882E+01  0.1425E+03
      8.167  0.3726E+01  0.1429E+03
      8.275  0.3600E+01  0.1433E+03
      8.383  0.3516E+01  0.1437E+03
      8.491  0.3480E+01  0.1440E+03
      8.599  0.3713E+01  0.1444E+03
      8.707  0.3857E+01  0.1448E+03
      8.814  0.3952E+01  0.1453E+03
      8.922  0.4100E+01  0.1457E+03
      9.030  0.4197E+01  0.1461E+03
      9.138  0.4279E+01  0.1466E+03
      9.246  0.4332E+01  0.1471E+03
      9.354  0.4094E+01  0.1475E+03
      9.462  0.4056E+01  0.1479E+03
      9.570  0.4029E+01  0.1484E+03
      9.678  0.4051E+01  0.1488E+03
      9.786  0.4087E+01  0.1493E+03
      9.894  0.4204E+01  0.1497E+03
     10.002  0.4380E+01  0.1502E+03
     10.110  0.4442E+01  0.1506E+03
     10.218  0.4606E+01  0.1511E+03
     10.326  0.5177E+01  0.1516E+03
     10.434  0.5265E+01  0.1523E+03
     10.541  0.5410E+01  0.1528E+03
     10.649  0.4633E+01  0.1533E+03
     10.757  0.4464E+01  0.1539E+03
     10.865  0.3790E+01  0.1544E+03
     10.973  0.4128E+01  0.1548E+03
     11.081  0.3958E+01  0.1553E+03
     11.189  0.3824E+01  0.1557E+03
     11.297  0.3009E+01  0.1560E+03
     11.405  0.2784E+01  0.1563E+03
     11.513  0.4279E+01  0.1567E+03
     11.621  0.4622E+01  0.1572E+03
     11.729  0.6700E+01  0.1579E+03
     11.837  0.1020E+02  0.1587E+03
     11.945  0.1170E+02  0.1600E+03
     12.053  0.1353E+02  0.1614E+03
     12.161  0.1386E+02  0.1628E+03
     12.268  0.1140E+02  0.1642E+03
     12.376  0.8769E+01  0.1653E+03
     12.484  0.6387E+01  0.1661E+03
     12.592  0.5347E+01  0.1668E+03
     12.700  0.4306E+01  0.1673E+03
     12.808  0.2532E+01  0.1677E+03
     12.916  0.1497E+01  0.1679E+03
     13.024  0.4892E+00  0.1680E+03
     13.132  0.1195E-01  0.1680E+03
     13.240  0.0000E+00  0.1680E+03
     13.348  0.0000E+00  0.1680E+03
     13.456  0.0000E+00  0.1680E+03
     13.564  0.0000E+00  0.1680E+03
     13.672  0.0000E+00  0.1680E+03
     13.780  0.0000E+00  0.1680E+03
     13.887  0.0000E+00  0.1680E+03
     13.995  0.0000E+00  0.1680E+03
     14.103  0.0000E+00  0.1680E+03
     14.211  0.0000E+00  0.1680E+03
     14.319  0.0000E+00  0.1680E+03
     14.427  0.0000E+00  0.1680E+03
     14.535  0.0000E+00  0.1680E+03
     14.643  0.0000E+00  0.1680E+03
     14.751  0.0000E+00  0.1680E+03
     14.859  0.0000E+00  0.1680E+03
     14.967  0.0000E+00  0.1680E+03
     15.075  0.0000E+00  0.1680E+03
     15.183  0.0000E+00  0.1680E+03
