   32   32    1    1
  0.8555981E+01  0.4932875E-09  0.4932875E-09  0.1299823E-08  0.5000000E-15
  1.000000000000000E-004
  CAR 
 graphite                                
    128     76     84
 
  0.0000000E+00  0.0000000E+00  0.0000000E+00  0.6944444E-02
    1      -14.706640
    2      -14.523559
    3      -14.522999
    4      -14.324123
    5       -9.364254
    6       -9.354085
    7       -9.351784
    8       -9.285304
    9       -9.283513
   10       -9.273331
   11       -9.271840
   12       -9.271781
   13       -9.267837
   14       -9.221977
   15       -9.208850
   16       -9.205472
   17       -8.272905
   18       -8.270954
   19       -8.269242
   20       -8.235540
   21       -8.234610
   22       -8.232577
   23       -8.232059
   24       -8.231972
   25       -8.229361
   26       -8.163896
   27       -8.163329
   28       -8.161363
   29       -3.682394
   30       -2.651677
   31       -2.649832
   32       -1.447633
   33       -1.445222
   34       -1.429595
   35       -1.410783
   36       -1.409726
   37       -1.409713
   38       -1.405645
   39       -1.393047
   40       -1.391024
   41       -1.379040
   42       -1.372408
   43       -1.369597
   44       -1.354305
   45        1.955967
   46        1.964481
   47        1.967436
   48        1.972919
   49        1.978551
   50        1.983575
   51        1.987024
   52        1.995062
   53        2.108114
   54        2.109939
   55        2.111286
   56        2.598367
   57        2.602042
   58        2.608644
   59        2.609146
   60        2.609407
   61        2.614150
   62        2.902709
   63        2.922876
   64        2.925602
   65        6.492572
   66        6.495925
   67        6.504213
   68        6.607779
   69        6.609980
   70        6.612407
   71        6.614493
   72        6.614828
   73        6.617738
   74        7.237321
   75        7.244870
   76        7.247353
   77        9.554587
   78       12.110933
   79       12.114934
   80       12.146541
   81       12.351393
   82       12.355155
   83       12.357874
   84       12.384568
 
  0.1666667E+00  0.0000000E+00  0.0000000E+00  0.1388889E-01
    1      -14.540626
    2      -14.359228
    3      -14.358676
    4      -14.161796
    5      -10.676995
    6      -10.536315
    7      -10.535828
    8      -10.386614
    9       -9.801470
   10       -9.794279
   11       -9.677273
   12       -9.676523
   13       -9.669477
   14       -9.668558
   15       -9.547358
   16       -9.539172
   17       -7.671044
   18       -7.665279
   19       -7.572844
   20       -7.570715
   21       -7.565845
   22       -7.565000
   23       -7.463222
   24       -7.456904
   25       -6.828520
   26       -6.726312
   27       -6.724794
   28       -6.616967
   29       -3.480806
   30       -2.456221
   31       -2.454378
   32       -1.941247
   33       -1.924536
   34       -1.895742
   35       -1.895583
   36       -1.879776
   37       -1.877811
   38       -1.848888
   39       -1.832170
   40       -1.282875
   41       -1.247413
   42       -1.244436
   43       -1.208540
   44       -1.192364
   45        0.994002
   46        1.301604
   47        1.323055
   48        1.327549
   49        1.348643
   50        1.615277
   51        1.632694
   52        1.637686
   53        1.655921
   54        1.761636
   55        1.764321
   56        1.869205
   57        1.872984
   58        2.490923
   59        2.494372
   60        2.499870
   61        2.501509
   62        2.590590
   63        3.034185
   64        3.049436
   65        6.636565
   66        6.641021
   67        6.889698
   68        6.892951
   69        6.895454
   70        6.898657
   71        7.269215
   72        7.516502
   73        7.523143
   74        7.713111
   75        7.716739
   76        8.424040
   77        9.751312
   78       12.206067
   79       12.439742
   80       12.441259
   81       12.602785
   82       12.607172
   83       12.678165
   84       12.846886
 
  0.3333333E+00  0.0000000E+00  0.0000000E+00  0.1388889E-01
    1      -14.044396
    2      -13.868012
    3      -13.867483
    4      -13.676570
    5      -12.091311
    6      -11.934713
    7      -11.934243
    8      -11.766569
    9      -10.226634
   10      -10.222961
   11      -10.091476
   12      -10.090809
   13      -10.087616
   14      -10.086411
   15       -9.947480
   16       -9.943561
   17       -6.496304
   18       -6.487323
   19       -6.403745
   20       -6.401573
   21       -6.394100
   22       -6.392952
   23       -6.304386
   24       -6.295545
   25       -4.708288
   26       -4.623266
   27       -4.621482
   28       -4.533131
   29       -3.102061
   30       -3.088050
   31       -3.043614
   32       -3.043146
   33       -3.030208
   34       -3.028136
   35       -2.981821
   36       -2.967688
   37       -2.880268
   38       -1.875117
   39       -1.873288
   40       -0.808390
   41       -0.774424
   42       -0.771217
   43       -0.736953
   44       -0.639352
   45       -0.565894
   46       -0.357546
   47       -0.316180
   48       -0.312788
   49       -0.271142
   50        0.339269
   51        0.341358
   52        0.813762
   53        0.839357
   54        0.843797
   55        0.869793
   56        1.418550
   57        1.551058
   58        1.554137
   59        2.302252
   60        2.305577
   61        2.308392
   62        2.309797
   63        3.119734
   64        3.127396
   65        7.091788
   66        7.094429
   67        7.467028
   68        7.469263
   69        7.471821
   70        7.475492
   71        7.969501
   72        7.972733
   73        9.393378
   74        9.853618
   75        9.856733
   76       10.342905
   77       10.462077
   78       12.408822
   79       12.653076
   80       12.676454
   81       12.678464
   82       12.970670
   83       12.972440
   84       13.078187
 
  0.5000000E+00  0.0000000E+00  0.0000000E+00  0.6944444E-02
    1      -13.225349
    2      -13.222465
    3      -13.058313
    4      -13.055635
    5      -13.055605
    6      -13.052463
    7      -12.875567
    8      -12.872602
    9      -10.375814
   10      -10.374071
   11      -10.238483
   12      -10.237027
   13      -10.236971
   14      -10.234859
   15      -10.091340
   16      -10.089510
   17       -5.574406
   18       -5.572558
   19       -5.522418
   20       -5.522402
   21       -5.521646
   22       -5.517465
   23       -5.473392
   24       -5.470912
   25       -3.979362
   26       -3.977636
   27       -3.949047
   28       -3.946356
   29       -3.945250
   30       -3.945235
   31       -3.904487
   32       -3.903299
   33       -2.482588
   34       -2.479177
   35       -2.420503
   36       -2.415002
   37       -2.414975
   38       -2.414323
   39       -2.350795
   40       -2.347959
   41       -1.897028
   42       -1.894691
   43       -0.928225
   44       -0.925833
   45       -0.925730
   46       -0.922096
   47       -0.074143
   48       -0.070197
   49       -0.042185
   50       -0.040915
   51       -0.040901
   52       -0.032646
   53       -0.008704
   54       -0.001967
   55        0.253409
   56        0.256171
   57        1.427247
   58        1.429251
   59        2.218121
   60        2.221907
   61        2.222437
   62        2.223883
   63        3.125242
   64        3.127818
   65        7.407403
   66        7.409850
   67        7.773175
   68        7.774411
   69        7.775007
   70        7.780068
   71        8.141815
   72        8.144762
   73       11.319334
   74       11.320504
   75       11.839319
   76       11.842972
   77       12.134369
   78       12.139472
   79       12.140870
   80       12.143618
   81       12.607003
   82       12.610464
   83       12.873196
   84       12.876052
 
 -0.1355253E-19  0.1666667E+00  0.0000000E+00  0.1388889E-01
    1      -14.540621
    2      -14.359226
    3      -14.358669
    4      -14.161792
    5      -10.677007
    6      -10.536325
    7      -10.535864
    8      -10.386650
    9       -9.801581
   10       -9.794018
   11       -9.677494
   12       -9.676542
   13       -9.669467
   14       -9.667893
   15       -9.547392
   16       -9.538854
   17       -7.671406
   18       -7.666189
   19       -7.572869
   20       -7.572153
   21       -7.565985
   22       -7.565669
   23       -7.463539
   24       -7.457609
   25       -6.827565
   26       -6.724858
   27       -6.724392
   28       -6.616058
   29       -3.480817
   30       -2.456231
   31       -2.454392
   32       -1.940026
   33       -1.924478
   34       -1.895685
   35       -1.893067
   36       -1.879828
   37       -1.877810
   38       -1.847569
   39       -1.832193
   40       -1.284052
   41       -1.247425
   42       -1.247022
   43       -1.209993
   44       -1.192380
   45        0.993424
   46        1.304846
   47        1.327545
   48        1.327837
   49        1.350589
   50        1.613395
   51        1.632679
   52        1.632901
   53        1.652332
   54        1.761251
   55        1.763155
   56        1.869293
   57        1.873877
   58        2.491340
   59        2.494306
   60        2.500056
   61        2.503446
   62        2.589508
   63        3.034310
   64        3.050826
   65        6.634553
   66        6.640796
   67        6.889168
   68        6.891189
   69        6.895153
   70        6.896969
   71        7.271131
   72        7.515946
   73        7.521558
   74        7.715452
   75        7.717547
   76        8.425489
   77        9.751299
   78       12.205410
   79       12.439506
   80       12.440137
   81       12.602628
   82       12.607055
   83       12.677449
   84       12.876654
 
  0.1666667E+00  0.1666667E+00  0.0000000E+00  0.1388889E-01
    1      -14.209275
    2      -14.031210
    3      -14.030672
    4      -13.837791
    5      -11.300949
    6      -11.297925
    7      -11.153901
    8      -11.151142
    9      -11.151111
   10      -11.147773
   11      -10.994280
   12      -10.991168
   13       -8.937931
   14       -8.861856
   15       -8.860586
   16       -8.801207
   17       -7.865518
   18       -7.834896
   19       -7.831185
   20       -7.771612
   21       -5.716572
   22       -5.712979
   23       -5.625365
   24       -5.621378
   25       -5.621346
   26       -5.618286
   27       -5.526092
   28       -5.522559
   29       -3.275275
   30       -3.214463
   31       -3.212552
   32       -3.149343
   33       -3.079413
   34       -2.067574
   35       -2.065739
   36       -1.612570
   37       -1.609807
   38       -1.569451
   39       -1.567914
   40       -1.567902
   41       -1.563558
   42       -1.523799
   43       -1.520595
   44       -0.822077
   45        0.267053
   46        0.288111
   47        0.292856
   48        0.311573
   49        0.341124
   50        0.342626
   51        0.940484
   52        0.953790
   53        0.958749
   54        0.975009
   55        1.186608
   56        1.189043
   57        1.189232
   58        1.192710
   59        2.168725
   60        2.171354
   61        2.705975
   62        3.195755
   63        3.198877
   64        3.483162
   65        6.396691
   66        6.401240
   67        6.446649
   68        6.748325
   69        8.202052
   70        8.204861
   71        8.665005
   72        8.668966
   73        8.669366
   74        8.671448
   75        9.278033
   76        9.280651
   77       10.147666
   78       12.918335
   79       12.921832
   80       13.013864
   81       13.017970
   82       13.252791
   83       13.254910
   84       13.259033
 
  0.3333333E+00  0.1666667E+00  0.0000000E+00  0.1388889E-01
    1      -13.550671
    2      -13.379247
    3      -13.378744
    4      -13.193716
    5      -12.575406
    6      -12.413859
    7      -12.413361
    8      -12.239964
    9      -11.617229
   10      -11.465671
   11      -11.465099
   12      -11.303221
   13       -8.930308
   14       -8.815885
   15       -8.815480
   16       -8.697323
   17       -7.023486
   18       -6.947582
   19       -6.944558
   20       -6.864722
   21       -4.708451
   22       -4.650503
   23       -4.648451
   24       -4.583065
   25       -4.548515
   26       -4.481381
   27       -4.479559
   28       -4.411713
   29       -3.567911
   30       -3.497230
   31       -3.495486
   32       -3.422718
   33       -2.512644
   34       -2.467642
   35       -2.466213
   36       -2.417132
   37       -2.285882
   38       -1.469437
   39       -1.428808
   40       -1.425075
   41       -1.378242
   42       -1.298328
   43       -1.296079
   44       -1.125717
   45       -0.971009
   46       -0.933053
   47       -0.930180
   48       -0.891078
   49       -0.189242
   50       -0.187340
   51       -0.096314
   52       -0.070293
   53       -0.043244
   54       -0.038620
   55       -0.010379
   56        0.001184
   57        0.881364
   58        0.883180
   59        0.941918
   60        1.927277
   61        2.983274
   62        3.603520
   63        3.606285
   64        4.158896
   65        6.004262
   66        6.255684
   67        6.259702
   68        6.657548
   69        9.018212
   70        9.383701
   71        9.386193
   72        9.774039
   73       10.501942
   74       10.874873
   75       10.878081
   76       10.941274
   77       11.335664
   78       12.107336
   79       12.783245
   80       12.973086
   81       12.979857
   82       13.328840
   83       13.377869
   84       13.465690
 
  0.5000000E+00  0.1666667E+00  0.0000000E+00  0.1388889E-01
    1      -13.551868
    2      -13.380447
    3      -13.379929
    4      -13.194903
    5      -12.573722
    6      -12.412170
    7      -12.411687
    8      -12.238286
    9      -11.618447
   10      -11.466897
   11      -11.466318
   12      -11.304454
   13       -8.927539
   14       -8.812734
   15       -8.812373
   16       -8.693706
   17       -7.019105
   18       -6.942107
   19       -6.940888
   20       -6.860122
   21       -4.716432
   22       -4.658154
   23       -4.657609
   24       -4.591807
   25       -4.557921
   26       -4.491053
   27       -4.487790
   28       -4.420135
   29       -3.571597
   30       -3.501334
   31       -3.498854
   32       -3.426511
   33       -2.501726
   34       -2.457132
   35       -2.454044
   36       -2.405489
   37       -2.287169
   38       -1.467365
   39       -1.425929
   40       -1.424165
   41       -1.376327
   42       -1.299537
   43       -1.297311
   44       -1.123993
   45       -0.967438
   46       -0.929913
   47       -0.926161
   48       -0.887481
   49       -0.187570
   50       -0.185610
   51       -0.097609
   52       -0.072321
   53       -0.044459
   54       -0.042041
   55       -0.012928
   56       -0.000241
   57        0.879950
   58        0.881802
   59        0.943512
   60        1.925391
   61        2.983828
   62        3.607410
   63        3.609416
   64        4.169368
   65        5.999281
   66        6.256182
   67        6.258694
   68        6.656757
   69        9.014358
   70        9.380368
   71        9.383466
   72        9.773338
   73       10.502868
   74       10.873343
   75       10.877250
   76       10.939512
   77       11.332499
   78       12.109735
   79       12.779980
   80       12.974050
   81       12.980560
   82       13.322171
   83       13.343788
   84       13.375717
 
 -0.3333333E+00  0.1666667E+00  0.0000000E+00  0.1388889E-01
    1      -14.209991
    2      -14.031927
    3      -14.031379
    4      -13.838499
    5      -11.303050
    6      -11.297261
    7      -11.154948
    8      -11.154393
    9      -11.149077
   10      -11.148623
   11      -10.996503
   12      -10.990653
   13       -8.927764
   14       -8.849700
   15       -8.849340
   16       -8.787835
   17       -7.866722
   18       -7.833467
   19       -7.833126
   20       -7.770960
   21       -5.724297
   22       -5.718815
   23       -5.632267
   24       -5.629879
   25       -5.626618
   26       -5.624880
   27       -5.533727
   28       -5.528610
   29       -3.288646
   30       -3.227131
   31       -3.226737
   32       -3.162795
   33       -3.080205
   34       -2.068358
   35       -2.066534
   36       -1.607890
   37       -1.595147
   38       -1.565536
   39       -1.562416
   40       -1.552488
   41       -1.549992
   42       -1.519054
   43       -1.506382
   44       -0.822874
   45        0.262165
   46        0.285114
   47        0.285253
   48        0.306264
   49        0.338176
   50        0.344118
   51        0.946225
   52        0.961300
   53        0.961510
   54        0.978772
   55        1.183795
   56        1.185749
   57        1.190522
   58        1.192873
   59        2.163846
   60        2.172063
   61        2.706810
   62        3.204443
   63        3.206459
   64        3.502757
   65        6.398329
   66        6.400521
   67        6.437520
   68        6.751376
   69        8.199001
   70        8.202385
   71        8.661148
   72        8.664659
   73        8.664851
   74        8.668104
   75        9.275319
   76        9.275930
   77       10.146559
   78       12.917140
   79       12.920566
   80       13.013960
   81       13.045131
   82       13.252864
   83       13.255149
   84       13.286325
 
 -0.1666667E+00  0.1666667E+00  0.0000000E+00  0.1388889E-01
    1      -14.540860
    2      -14.359464
    3      -14.358904
    4      -14.162027
    5      -10.683282
    6      -10.542709
    7      -10.542248
    8      -10.393149
    9       -9.792959
   10       -9.790961
   11       -9.668753
   12       -9.667141
   13       -9.667087
   14       -9.664470
   15       -9.538088
   16       -9.535821
   17       -7.669661
   18       -7.667741
   19       -7.571295
   20       -7.568680
   21       -7.568641
   22       -7.567588
   23       -7.461384
   24       -7.459594
   25       -6.834729
   26       -6.732870
   27       -6.730651
   28       -6.623115
   29       -3.481083
   30       -2.456496
   31       -2.454660
   32       -1.940800
   33       -1.938594
   34       -1.895623
   35       -1.894847
   36       -1.894831
   37       -1.890834
   38       -1.848606
   39       -1.845987
   40       -1.267041
   41       -1.231288
   42       -1.228965
   43       -1.192903
   44       -1.192649
   45        0.988294
   46        1.293901
   47        1.314932
   48        1.319985
   49        1.341556
   50        1.622699
   51        1.640796
   52        1.645437
   53        1.663008
   54        1.754348
   55        1.756552
   56        1.873951
   57        1.875714
   58        2.500017
   59        2.501216
   60        2.501487
   61        2.505950
   62        2.579287
   63        3.049022
   64        3.051754
   65        6.634605
   66        6.637858
   67        6.889479
   68        6.894700
   69        6.895030
   70        6.896504
   71        7.269305
   72        7.518064
   73        7.520698
   74        7.709091
   75        7.713033
   76        8.420251
   77        9.750915
   78       12.238263
   79       12.471996
   80       12.473235
   81       12.602077
   82       12.606479
   83       12.710226
   84       12.845282
 
  0.0000000E+00  0.3333333E+00  0.0000000E+00  0.1388889E-01
    1      -14.044379
    2      -13.868003
    3      -13.867456
    4      -13.676551
    5      -12.091275
    6      -11.934695
    7      -11.934189
    8      -11.766533
    9      -10.226980
   10      -10.222664
   11      -10.092280
   12      -10.090849
   13      -10.087610
   14      -10.085557
   15       -9.947752
   16       -9.943227
   17       -6.496826
   18       -6.488228
   19       -6.403772
   20       -6.403178
   21       -6.394184
   22       -6.393890
   23       -6.304876
   24       -6.296301
   25       -4.707217
   26       -4.621531
   27       -4.621117
   28       -4.532097
   29       -3.100821
   30       -3.087718
   31       -3.043167
   32       -3.041104
   33       -3.029577
   34       -3.028132
   35       -2.980498
   36       -2.967423
   37       -2.880312
   38       -1.875161
   39       -1.873351
   40       -0.809695
   41       -0.774438
   42       -0.774107
   43       -0.738597
   44       -0.639404
   45       -0.566175
   46       -0.355446
   47       -0.312802
   48       -0.312364
   49       -0.269395
   50        0.339051
   51        0.340897
   52        0.812022
   53        0.839344
   54        0.839671
   55        0.867178
   56        1.418065
   57        1.551053
   58        1.555020
   59        2.302648
   60        2.305465
   61        2.308442
   62        2.311656
   63        3.120019
   64        3.128539
   65        7.090393
   66        7.093736
   67        7.465429
   68        7.467727
   69        7.471823
   70        7.474246
   71        7.967819
   72        7.971972
   73        9.394647
   74        9.855087
   75        9.857354
   76       10.342875
   77       10.463094
   78       12.408164
   79       12.652642
   80       12.676191
   81       12.677073
   82       12.970128
   83       12.971218
   84       13.077703
 
  0.1666667E+00  0.3333333E+00  0.0000000E+00  0.1388889E-01
    1      -13.550657
    2      -13.379238
    3      -13.378721
    4      -13.193698
    5      -12.575371
    6      -12.413842
    7      -12.413303
    8      -12.239924
    9      -11.617275
   10      -11.465687
   11      -11.465176
   12      -11.303268
   13       -8.930242
   14       -8.815776
   15       -8.815439
   16       -8.697240
   17       -7.023849
   18       -6.947586
   19       -6.945452
   20       -6.865269
   21       -4.707980
   22       -4.649713
   23       -4.648446
   24       -4.582736
   25       -4.549915
   26       -4.482461
   27       -4.481372
   28       -4.413209
   29       -3.566508
   30       -3.495499
   31       -3.494421
   32       -3.421316
   33       -2.510940
   34       -2.466213
   35       -2.464270
   36       -2.415441
   37       -2.285918
   38       -1.468216
   39       -1.426917
   40       -1.425070
   41       -1.377427
   42       -1.298338
   43       -1.296092
   44       -1.125935
   45       -0.972594
   46       -0.933528
   47       -0.933048
   48       -0.892865
   49       -0.189448
   50       -0.187614
   51       -0.096433
   52       -0.071123
   53       -0.043247
   54       -0.040890
   55       -0.011784
   56        0.001257
   57        0.881710
   58        0.883599
   59        0.941563
   60        1.927794
   61        2.983728
   62        3.604320
   63        3.606464
   64        4.159265
   65        6.004129
   66        6.255558
   67        6.258391
   68        6.656403
   69        9.017043
   70        9.382770
   71        9.384742
   72        9.772739
   73       10.503067
   74       10.876296
   75       10.878656
   76       10.941303
   77       11.336751
   78       12.107239
   79       12.783609
   80       12.973136
   81       12.979861
   82       13.328940
   83       13.375596
   84       13.474783
 
  0.3333333E+00  0.3333333E+00  0.0000000E+00  0.1388889E-01
    1      -12.740219
    2      -12.737476
    3      -12.734934
    4      -12.578562
    5      -12.575206
    6      -12.575173
    7      -12.573595
    8      -12.572303
    9      -12.569618
   10      -12.401137
   11      -12.398402
   12      -12.395789
   13       -7.718140
   14       -7.601609
   15       -7.599922
   16       -7.592493
   17       -7.590089
   18       -7.585007
   19       -7.582937
   20       -7.469421
   21       -5.549261
   22       -5.548926
   23       -5.541499
   24       -5.540379
   25       -2.797638
   26       -2.794289
   27       -2.792429
   28       -2.762318
   29       -2.757432
   30       -2.757399
   31       -2.756826
   32       -2.756545
   33       -2.751353
   34       -2.724034
   35       -2.721632
   36       -2.717978
   37       -1.431789
   38       -1.427781
   39       -1.425239
   40       -1.409242
   41       -1.405436
   42       -1.403730
   43       -1.402981
   44       -1.402969
   45       -1.397509
   46       -1.376498
   47       -1.374752
   48       -1.370274
   49       -1.316549
   50       -1.314053
   51       -1.311740
   52       -0.371715
   53       -0.367971
   54       -0.367736
   55       -0.366513
   56       -0.365317
   57       -0.361939
   58        0.776757
   59        0.779241
   60        0.782039
   61        4.201356
   62        4.922820
   63        4.933187
   64        4.947414
   65        4.951054
   66        4.976496
   67        4.977524
   68        5.822968
   69       11.035645
   70       11.038884
   71       11.044018
   72       11.319057
   73       11.323930
   74       11.324258
   75       11.325114
   76       11.325954
   77       11.329085
   78       11.622343
   79       11.628224
   80       11.630806
   81       11.929128
   82       11.930638
   83       11.934623
   84       14.332959
 
  0.5000000E+00  0.3333333E+00  0.0000000E+00  0.1388889E-01
    1      -13.552567
    2      -13.381156
    3      -13.380614
    4      -13.195598
    5      -12.577259
    6      -12.415757
    7      -12.415161
    8      -12.241808
    9      -11.613444
   10      -11.461831
   11      -11.461376
   12      -11.299442
   13       -8.920149
   14       -8.805488
   15       -8.804946
   16       -8.686502
   17       -7.027211
   18       -6.950706
   19       -6.950082
   20       -6.869818
   21       -4.714536
   22       -4.656732
   23       -4.655588
   24       -4.590242
   25       -4.556327
   26       -4.489824
   27       -4.487264
   28       -4.420048
   29       -3.578293
   30       -3.508028
   31       -3.504936
   32       -3.432542
   33       -2.506821
   34       -2.463017
   35       -2.459308
   36       -2.411381
   37       -2.287991
   38       -1.476347
   39       -1.434565
   40       -1.432254
   41       -1.384474
   42       -1.300623
   43       -1.298406
   44       -1.127947
   45       -0.957451
   46       -0.919518
   47       -0.916370
   48       -0.877440
   49       -0.191636
   50       -0.189784
   51       -0.098527
   52       -0.062626
   53       -0.034524
   54       -0.032216
   55       -0.003037
   56        0.005096
   57        0.885312
   58        0.887425
   59        0.939038
   60        1.931382
   61        2.989250
   62        3.612212
   63        3.614457
   64        4.171264
   65        6.005819
   66        6.252108
   67        6.254393
   68        6.643795
   69        9.019944
   70        9.380267
   71        9.383256
   72        9.765221
   73       10.496072
   74       10.870452
   75       10.873092
   76       10.938558
   77       11.334355
   78       12.105187
   79       12.775836
   80       12.970562
   81       12.977182
   82       13.295425
   83       13.333827
   84       13.406319
 
 -0.3333333E+00  0.3333333E+00  0.0000000E+00  0.1388889E-01
    1      -14.045330
    2      -13.868959
    3      -13.868397
    4      -13.677495
    5      -12.095102
    6      -11.938561
    7      -11.937988
    8      -11.770372
    9      -10.219381
   10      -10.217580
   11      -10.084443
   12      -10.082897
   13      -10.082846
   14      -10.080692
   15       -9.940059
   16       -9.938152
   17       -6.495570
   18       -6.493599
   19       -6.403506
   20       -6.400589
   21       -6.400562
   22       -6.399619
   23       -6.304144
   24       -6.302245
   25       -4.717140
   26       -4.632300
   27       -4.629878
   28       -4.541657
   29       -3.099353
   30       -3.097514
   31       -3.040884
   32       -3.040744
   33       -3.040679
   34       -3.036799
   35       -2.979422
   36       -2.977226
   37       -2.881368
   38       -1.876216
   39       -1.874419
   40       -0.793679
   41       -0.759487
   42       -0.756842
   43       -0.722433
   44       -0.640524
   45       -0.570082
   46       -0.367287
   47       -0.326084
   48       -0.321924
   49       -0.280337
   50        0.334799
   51        0.336638
   52        0.824091
   53        0.850017
   54        0.853882
   55        0.879810
   56        1.413118
   57        1.557246
   58        1.559116
   59        2.310420
   60        2.311730
   61        2.312010
   62        2.316257
   63        3.129242
   64        3.131877
   65        7.092708
   66        7.095578
   67        7.464076
   68        7.469235
   69        7.469576
   70        7.471000
   71        7.962016
   72        7.964839
   73        9.387461
   74        9.848011
   75        9.851105
   76       10.341487
   77       10.459325
   78       12.428014
   79       12.669555
   80       12.705776
   81       12.707394
   82       12.972797
   83       12.974770
   84       13.097813
 
 -0.1666667E+00  0.3333333E+00  0.0000000E+00  0.1388889E-01
    1      -14.209978
    2      -14.031922
    3      -14.031359
    4      -13.838486
    5      -11.303477
    6      -11.296909
    7      -11.155857
    8      -11.154828
    9      -11.148982
   10      -11.147373
   11      -10.996872
   12      -10.990212
   13       -8.927050
   14       -8.849668
   15       -8.847801
   16       -8.787007
   17       -7.868573
   18       -7.836377
   19       -7.833462
   20       -7.772496
   21       -5.724865
   22       -5.717573
   23       -5.632285
   24       -5.631744
   25       -5.624902
   26       -5.623154
   27       -5.534252
   28       -5.527189
   29       -3.287609
   30       -3.227108
   31       -3.224567
   32       -3.161634
   33       -3.080235
   34       -2.068391
   35       -2.066575
   36       -1.609199
   37       -1.594975
   38       -1.565558
   39       -1.565275
   40       -1.551724
   41       -1.549991
   42       -1.520395
   43       -1.506083
   44       -0.822923
   45        0.264034
   46        0.285229
   47        0.289640
   48        0.309196
   49        0.337958