   48   48  200    1
  0.6542008E+01  0.6467736E-09  0.8240538E-09  0.5891752E-09  0.5000000E-15
  1.000000000000000E-004
  CAR 
 benzene                                 
    120     27     86
 
  0.0000000E+00  0.0000000E+00  0.0000000E+00  0.1562500E-01
    1      -15.161783
    2      -14.646910
    3      -14.400794
    4      -14.345599
    5      -12.573545
    6      -12.072244
    7      -11.873873
    8      -11.696763
    9      -11.593581
   10      -11.466374
   11      -11.464736
   12      -11.340456
   13       -8.790955
   14       -8.564510
   15       -8.406607
   16       -8.186482
   17       -8.114246
   18       -8.040339
   19       -7.781036
   20       -7.247660
   21       -6.948018
   22       -6.231431
   23       -6.141151
   24       -5.560925
   25       -5.259076
   26       -5.038402
   27       -4.921184
   28       -4.651772
   29       -4.484932
   30       -4.436220
   31       -4.368969
   32       -4.090174
   33       -4.064965
   34       -3.989569
   35       -3.370020
   36       -3.331010
   37       -3.143986
   38       -3.118565
   39       -2.932147
   40       -2.676259
   41       -2.418999
   42       -2.190638
   43       -1.876569
   44       -1.849750
   45       -1.675374
   46       -1.578170
   47       -1.516540
   48       -1.403012
   49       -1.396287
   50       -1.264327
   51       -1.134799
   52       -0.781572
   53       -0.096375
   54        0.238064
   55        0.254069
   56        0.362854
   57        0.886042
   58        1.015652
   59        1.068648
   60        1.159528
   61        5.286989
   62        5.335044
   63        5.399246
   64        5.454545
   65        5.773414
   66        5.792062
   67        6.084226
   68        6.383383
   69        8.134553
   70        8.428888
   71        8.500352
   72        8.894642
   73        9.148163
   74        9.896248
   75        9.921095
   76       10.001215
   77       10.293641
   78       10.438400
   79       10.621716
   80       10.797182
   81       10.898913
   82       10.979638
   83       11.018160
   84       11.355911
   85       11.410403
   86       11.513098
 
  0.2500000E+00  0.0000000E+00  0.0000000E+00  0.3125000E-01
    1      -15.072820
    2      -14.604647
    3      -14.544296
    4      -14.391604
    5      -12.470255
    6      -11.986867
    7      -11.835926
    8      -11.736922
    9      -11.702075
   10      -11.510209
   11      -11.468017
   12      -11.370674
   13       -8.526595
   14       -8.468893
   15       -8.425277
   16       -8.266788
   17       -8.086973
   18       -8.012978
   19       -7.916156
   20       -7.459491
   21       -7.021510
   22       -6.534090
   23       -6.132467
   24       -5.560825
   25       -5.390567
   26       -4.819813
   27       -4.421589
   28       -4.381431
   29       -4.366309
   30       -4.313767
   31       -4.302956
   32       -4.037366
   33       -4.011584
   34       -3.916456
   35       -3.442891
   36       -3.387580
   37       -3.346506
   38       -3.156867
   39       -3.014534
   40       -2.847219
   41       -2.608322
   42       -2.175087
   43       -1.859027
   44       -1.858421
   45       -1.770777
   46       -1.696182
   47       -1.435332
   48       -1.361665
   49       -1.344091
   50       -1.238728
   51       -1.028712
   52       -0.843650
   53        0.034588
   54        0.180752
   55        0.297853
   56        0.307643
   57        0.760231
   58        0.924252
   59        0.967305
   60        0.986876
   61        5.344691
   62        5.378097
   63        5.449935
   64        5.536957
   65        5.657420
   66        5.751570
   67        5.922298
   68        6.165931
   69        8.457848
   70        8.591794
   71        8.665666
   72        8.860996
   73        9.160525
   74        9.835569
   75       10.101792
   76       10.227252
   77       10.239477
   78       10.271250
   79       10.709888
   80       10.776800
   81       10.778458
   82       11.174761
   83       11.279433
   84       11.385467
   85       11.507960
   86       11.612169
 
  0.5000000E+00  0.0000000E+00  0.0000000E+00  0.1562500E-01
    1      -14.833746
    2      -14.833745
    3      -14.499991
    4      -14.499991
    5      -12.194290
    6      -12.194289
    7      -11.753820
    8      -11.753819
    9      -11.655675
   10      -11.655674
   11      -11.434032
   12      -11.434031
   13       -8.400597
   14       -8.400597
   15       -8.204150
   16       -8.204150
   17       -8.022800
   18       -8.022800
   19       -7.966858
   20       -7.966857
   21       -6.954660
   22       -6.954660
   23       -5.876923
   24       -5.876922
   25       -5.064747
   26       -5.064746
   27       -4.250973
   28       -4.250973
   29       -4.014305
   30       -4.014305
   31       -3.966197
   32       -3.966196
   33       -3.717014
   34       -3.717013
   35       -3.646541
   36       -3.646541
   37       -3.309192
   38       -3.309192
   39       -3.174234
   40       -3.174234
   41       -2.588891
   42       -2.588890
   43       -2.095645
   44       -2.095644
   45       -1.537932
   46       -1.537931
   47       -1.316222
   48       -1.316222
   49       -1.119941
   50       -1.119940
   51       -1.058496
   52       -1.058495
   53        0.165977
   54        0.165978
   55        0.439730
   56        0.439731
   57        0.453638
   58        0.453638
   59        0.941085
   60        0.941086
   61        5.478189
   62        5.478190
   63        5.498831
   64        5.498832
   65        5.662136
   66        5.662137
   67        5.826271
   68        5.826271
   69        8.737472
   70        8.737472
   71        9.013986
   72        9.013987
   73        9.256294
   74        9.256295
   75       10.172661
   76       10.172662
   77       10.542194
   78       10.542195
   79       10.758241
   80       10.758242
   81       11.068413
   82       11.068413
   83       11.179921
   84       11.179921
   85       11.928914
   86       11.928914
 
  0.0000000E+00  0.2500000E+00  0.0000000E+00  0.3125000E-01
    1      -15.103071
    2      -14.746411
    3      -14.392733
    4      -14.353682
    5      -12.392255
    6      -12.024539
    7      -11.839568
    8      -11.760752
    9      -11.577333
   10      -11.529162
   11      -11.509783
   12      -11.487583
   13       -8.672905
   14       -8.429771
   15       -8.386497
   16       -8.127056
   17       -8.113589
   18       -8.058647
   19       -7.919003
   20       -7.442559
   21       -6.827562
   22       -6.223427
   23       -6.200532
   24       -5.772360
   25       -5.341823
   26       -4.844509
   27       -4.730092
   28       -4.396187
   29       -4.329301
   30       -4.327643
   31       -4.229501
   32       -4.203595
   33       -4.083927
   34       -4.058193
   35       -3.646306
   36       -3.605838
   37       -3.295969
   38       -3.268080
   39       -3.191945
   40       -2.838786
   41       -2.036746
   42       -1.914624
   43       -1.868557
   44       -1.700075
   45       -1.648301
   46       -1.531862
   47       -1.531457
   48       -1.402443
   49       -1.296063
   50       -1.240032
   51       -1.214622
   52       -0.855484
   53       -0.084849
   54        0.111168
   55        0.367170
   56        0.461031
   57        0.848224
   58        0.910599
   59        1.055889
   60        1.141910
   61        5.288258
   62        5.387353
   63        5.388820
   64        5.469324
   65        5.797740
   66        5.833270
   67        5.997163
   68        6.253927
   69        8.335287
   70        8.623471
   71        8.659715
   72        8.915550
   73        9.131919
   74        9.779438
   75        9.816021
   76        9.903702
   77       10.109409
   78       10.113154
   79       10.535925
   80       10.700423
   81       10.860005
   82       10.888380
   83       11.151965
   84       11.287764
   85       11.329264
   86       11.673191
 
  0.2500000E+00  0.2500000E+00  0.0000000E+00  0.6250000E-01
    1      -15.018065
    2      -14.692398
    3      -14.522824
    4      -14.414889
    5      -12.317133
    6      -11.971927
    7      -11.832333
    8      -11.797810
    9      -11.625252
   10      -11.606176
   11      -11.478401
   12      -11.448855
   13       -8.484033
   14       -8.396590
   15       -8.386984
   16       -8.192395
   17       -8.118458
   18       -8.048020
   19       -8.037824
   20       -7.616018
   21       -6.865885
   22       -6.407341
   23       -6.140257
   24       -5.833530
   25       -5.248030
   26       -4.684940
   27       -4.485481
   28       -4.425625
   29       -4.278684
   30       -4.200797
   31       -4.177672
   32       -4.086481
   33       -4.045220
   34       -3.840903
   35       -3.802013
   36       -3.636353
   37       -3.276681
   38       -3.239534
   39       -3.063255
   40       -2.885977
   41       -2.410224
   42       -2.174040
   43       -1.892393
   44       -1.836567
   45       -1.636504
   46       -1.593334
   47       -1.465768
   48       -1.282275
   49       -1.276595
   50       -1.230187
   51       -1.099255
   52       -0.919903
   53        0.036496
   54        0.210508
   55        0.323166
   56        0.395439
   57        0.782680
   58        0.875331
   59        0.887089
   60        0.916601
   61        5.326104
   62        5.398413
   63        5.461766
   64        5.524024
   65        5.753112
   66        5.753343
   67        5.899919
   68        6.089601
   69        8.640214
   70        8.681514
   71        8.786329
   72        9.077134
   73        9.189030
   74        9.672148
   75        9.848465
   76       10.109514
   77       10.135132
   78       10.371738
   79       10.415803
   80       10.667625
   81       10.775487
   82       10.780909
   83       11.033512
   84       11.131425
   85       11.762380
   86       11.817572
 
  0.5000000E+00  0.2500000E+00  0.0000000E+00  0.3125000E-01
    1      -14.791627
    2      -14.791626
    3      -14.557274
    4      -14.557273
    5      -12.122972
    6      -12.122972
    7      -11.761548
    8      -11.761548
    9      -11.689965
   10      -11.689964
   11      -11.443189
   12      -11.443188
   13       -8.345109
   14       -8.345108
   15       -8.245987
   16       -8.245986
   17       -8.087082
   18       -8.087081
   19       -8.028099
   20       -8.028098
   21       -6.745475
   22       -6.745474
   23       -5.965857
   24       -5.965857
   25       -4.933891
   26       -4.933890
   27       -4.401404
   28       -4.401404
   29       -4.078441
   30       -4.078440
   31       -3.983059
   32       -3.983058
   33       -3.900218
   34       -3.900217
   35       -3.556510
   36       -3.556509
   37       -3.320355
   38       -3.320354
   39       -2.961747
   40       -2.961746
   41       -2.533035
   42       -2.533035
   43       -2.203635
   44       -2.203635
   45       -1.485661
   46       -1.485660
   47       -1.291697
   48       -1.291696
   49       -1.184563
   50       -1.184563
   51       -1.052769
   52       -1.052768
   53        0.267499
   54        0.267500
   55        0.412207
   56        0.412208
   57        0.503436
   58        0.503437
   59        0.824898
   60        0.824898
   61        5.407253
   62        5.407253
   63        5.575974
   64        5.575974
   65        5.668908
   66        5.668909
   67        5.855058
   68        5.855059
   69        8.808107
   70        8.808108
   71        9.215563
   72        9.215565
   73        9.401486
   74        9.401487
   75        9.883978
   76        9.883979
   77       10.311874
   78       10.311874
   79       10.672401
   80       10.672402
   81       10.809785
   82       10.809785
   83       10.959195
   84       10.959195
   85       11.762331
   86       11.762331
 
  0.0000000E+00  0.5000000E+00  0.0000000E+00  0.1562500E-01
    1      -14.943493
    2      -14.943490
    3      -14.373196
    4      -14.373194
    5      -11.991573
    6      -11.991572
    7      -11.900522
    8      -11.900520
    9      -11.653302
   10      -11.653299
   11      -11.534876
   12      -11.534876
   13       -8.434899
   14       -8.434898
   15       -8.187001
   16       -8.186998
   17       -8.123281
   18       -8.123279
   19       -7.844458
   20       -7.844455
   21       -6.402576
   22       -6.402570
   23       -6.223937
   24       -6.223936
   25       -4.909136
   26       -4.909133
   27       -4.423489
   28       -4.423486
   29       -4.244808
   30       -4.244807
   31       -4.132821
   32       -4.132820
   33       -4.127392
   34       -4.127390
   35       -3.764436
   36       -3.764435
   37       -3.422412
   38       -3.422410
   39       -3.293492
   40       -3.293486
   41       -1.799538
   42       -1.799537
   43       -1.703105
   44       -1.703104
   45       -1.449366
   46       -1.449365
   47       -1.437354
   48       -1.437353
   49       -1.312501
   50       -1.312499
   51       -1.056275
   52       -1.056271
   53       -0.083773
   54       -0.083772
   55        0.657467
   56        0.657469
   57        0.674929
   58        0.674930
   59        1.092807
   60        1.092809
   61        5.326859
   62        5.326860
   63        5.463539
   64        5.463542
   65        5.863835
   66        5.863838
   67        6.011374
   68        6.011375
   69        8.798595
   70        8.798598
   71        8.908836
   72        8.908843
   73        9.185507
   74        9.185509
   75        9.796200
   76        9.796205
   77        9.800343
   78        9.800344
   79       10.676287
   80       10.676293
   81       10.982672
   82       10.982674
   83       11.007656
   84       11.007659
   85       11.322091
   86       11.322092
 
  0.2500000E+00  0.5000000E+00  0.0000000E+00  0.3125000E-01
    1      -14.870674
    2      -14.870671
    3      -14.469783
    4      -14.469781
    5      -11.980559
    6      -11.980558
    7      -11.920662
    8      -11.920661
    9      -11.616155
   10      -11.616154
   11      -11.521296
   12      -11.521295
   13       -8.375290
   14       -8.375289
   15       -8.211958
   16       -8.211956
   17       -8.169774
   18       -8.169772
   19       -7.943641
   20       -7.943639
   21       -6.396237
   22       -6.396232
   23       -6.220978
   24       -6.220977
   25       -4.842233
   26       -4.842232
   27       -4.370824
   28       -4.370824
   29       -4.226605
   30       -4.226604
   31       -4.190748
   32       -4.190746
   33       -4.047433
   34       -4.047432
   35       -3.708861
   36       -3.708859
   37       -3.260127
   38       -3.260123
   39       -3.166647
   40       -3.166646
   41       -2.072983
   42       -2.072981
   43       -1.994873
   44       -1.994872
   45       -1.464802
   46       -1.464801
   47       -1.343083
   48       -1.343081
   49       -1.221665
   50       -1.221664
   51       -1.091767
   52       -1.091764
   53        0.073221
   54        0.073222
   55        0.614247
   56        0.614248
   57        0.617461
   58        0.617462
   59        0.886388
   60        0.886389
   61        5.374700
   62        5.374700
   63        5.466776
   64        5.466777
   65        5.832588
   66        5.832590
   67        5.929016
   68        5.929017
   69        8.945627
   70        8.945632
   71        9.000420
   72        9.000422
   73        9.355032
   74        9.355033
   75        9.871083
   76        9.871087
   77        9.946039
   78        9.946040
   79       10.485892
   80       10.485896
   81       10.774720
   82       10.774724
   83       10.850624
   84       10.850625
   85       11.798945
   86       11.798948
 
  0.5000000E+00  0.5000000E+00  0.0000000E+00  0.1562500E-01
    1      -14.681810
    2      -14.681809
    3      -14.681807
    4      -14.681806
    5      -11.953685
    6      -11.953684
    7      -11.953684
    8      -11.953683
    9      -11.545674
   10      -11.545674
   11      -11.545673
   12      -11.545673
   13       -8.225707
   14       -8.225707
   15       -8.225706
   16       -8.225705
   17       -8.180194
   18       -8.180193
   19       -8.180193
   20       -8.180193
   21       -6.303565
   22       -6.303564
   23       -6.303563
   24       -6.303562
   25       -4.657155
   26       -4.657154
   27       -4.657154
   28       -4.657154
   29       -4.092656
   30       -4.092656
   31       -4.092654
   32       -4.092654
   33       -3.811350
   34       -3.811350
   35       -3.811348
   36       -3.811348
   37       -3.023263
   38       -3.023263
   39       -3.023261
   40       -3.023260
   41       -2.352054
   42       -2.352053
   43       -2.352052
   44       -2.352052
   45       -1.386031
   46       -1.386031
   47       -1.386029
   48       -1.386029
   49       -1.132269
   50       -1.132269
   51       -1.132268
   52       -1.132268
   53        0.426072
   54        0.426073
   55        0.426074
   56        0.426074
   57        0.585765
   58        0.585766
   59        0.585766
   60        0.585767
   61        5.451385
   62        5.451385
   63        5.451385
   64        5.451386
   65        5.823214
   66        5.823214
   67        5.823215
   68        5.823216
   69        9.086533
   70        9.086534
   71        9.086534
   72        9.086536
   73        9.810554
   74        9.810556
   75        9.810557
   76        9.810558
   77       10.137511
   78       10.137512
   79       10.137513
   80       10.137513
   81       10.671994
   82       10.671994
   83       10.671995
   84       10.671995
   85       11.878994
   86       11.878994
 
  0.0000000E+00  0.0000000E+00  0.2500000E+00  0.3125000E-01
    1      -15.061045
    2      -14.607645
    3      -14.489755
    4      -14.432911
    5      -12.446306
    6      -12.010412
    7      -11.854626
    8      -11.730438
    9      -11.613971
   10      -11.573756
   11      -11.507472
   12      -11.404250
   13       -8.706269
   14       -8.529248
   15       -8.292375
   16       -8.249003
   17       -8.206871
   18       -8.001116
   19       -7.747676
   20       -7.359584
   21       -7.111745
   22       -6.643249
   23       -5.992063
   24       -5.604985
   25       -5.057734
   26       -4.743911
   27       -4.661372
   28       -4.583713
   29       -4.362196
   30       -4.351295
   31       -4.110550
   32       -4.077734
   33       -4.073317
   34       -3.979343
   35       -3.545473
   36       -3.536266
   37       -3.127708
   38       -3.083186
   39       -3.029758
   40       -2.816963
   41       -2.370217
   42       -2.251771
   43       -1.974153
   44       -1.807140
   45       -1.758349
   46       -1.683771
   47       -1.617751
   48       -1.240616
   49       -1.214920
   50       -1.075579
   51       -1.044679
   52       -0.991010
   53        0.072831
   54        0.267557
   55        0.341705
   56        0.376283
   57        0.767361
   58        0.868413
   59        0.897474
   60        0.978327
   61        5.376380
   62        5.408195
   63        5.425116
   64        5.468665
   65        5.694334
   66        5.767509
   67        5.901268
   68        6.193640
   69        8.309404
   70        8.592834
   71        8.734115
   72        8.992880
   73        9.116819
   74        9.699542
   75        9.734980
   76        9.760109
   77       10.213712
   78       10.377595
   79       10.473226
   80       10.556028
   81       10.942792
   82       10.960285
   83       10.977804
   84       11.288204
   85       11.493627
   86       11.647015
 
  0.2500000E+00  0.0000000E+00  0.2500000E+00  0.6250000E-01
    1      -14.982920
    2      -14.586034
    3      -14.542670
    4      -14.502066
    5      -12.357916
    6      -11.945992
    7      -11.873422
    8      -11.725683
    9      -11.719864
   10      -11.626201
   11      -11.542662
   12      -11.421847
   13       -8.497435
   14       -8.470993
   15       -8.307020
   16       -8.232603
   17       -8.154671
   18       -7.985796
   19       -7.876287
   20       -7.549490
   21       -7.040848
   22       -6.441828
   23       -6.304182
   24       -5.612090
   25       -5.127590
   26       -4.788237
   27       -4.464179
   28       -4.355255
   29       -4.341921
   30       -4.259498
   31       -4.077211
   32       -4.061815
   33       -4.014957
   34       -3.916063
   35       -3.668972
   36       -3.430616
   37       -3.296249
   38       -3.262151
   39       -3.042117
   40       -2.996576
   41       -2.560120
   42       -2.186211
   43       -1.948327
   44       -1.722244
   45       -1.642663
   46       -1.600509
   47       -1.458251
   48       -1.339357
   49       -1.168577
   50       -1.150934
   51       -1.026475
   52       -0.988152
   53        0.149217
   54        0.290382
   55        0.291848
   56        0.406336
   57        0.658917
   58        0.815788
   59        0.846134
   60        0.900750
   61        5.190502
   62        5.276901
   63        5.413082
   64        5.455352
   65        5.692657
   66        5.767537
   67        5.876946
   68        6.108844
   69        8.566384
   70        8.612239
   71        8.654560
   72        8.947807
   73        9.168238
   74        9.672569
   75        9.794163
   76        9.887613
   77       10.227317
   78       10.407270
   79       10.591086
   80       10.627256
   81       10.697631
   82       10.859520
   83       10.982902
   84       11.256264
   85       11.616364
   86       11.685962
 
  0.5000000E+00  0.0000000E+00  0.2500000E+00  0.3125000E-01
    1      -14.777990
    2      -14.777989
    3      -14.539411
    4      -14.539411
    5      -12.114735
    6      -12.114735
    7      -11.830801
    8      -11.830800
    9      -11.687203
   10      -11.687202
   11      -11.508878
   12      -11.508877
   13       -8.358532
   14       -8.358532
   15       -8.117386
   16       -8.117385
   17       -8.105788
   18       -8.105788
   19       -7.943760
   20       -7.943759
   21       -6.772478
   22       -6.772478
   23       -5.987030
   24       -5.987030
   25       -4.917895
   26       -4.917895
   27       -4.278051
   28       -4.278051
   29       -4.174972
   30       -4.174971
   31       -4.020317
   32       -4.020317
   33       -3.853931
   34       -3.853930
   35       -3.779181
   36       -3.779181
   37       -3.402861
   38       -3.402860
   39       -3.128490
   40       -3.128489
   41       -2.291916
   42       -2.291916
   43       -1.870475
   44       -1.870474
   45       -1.478856
   46       -1.478856
   47       -1.298775
   48       -1.298775
   49       -1.236569
   50       -1.236569
   51       -1.064647
   52       -1.064646
   53        0.304491
   54        0.304491
   55        0.421876
   56        0.421877
   57        0.486670
   58        0.486670
   59        0.881710
   60        0.881710
   61        5.184376
   62        5.184376
   63        5.284481
   64        5.284481
   65        5.839784
   66        5.839785
   67        5.864039
   68        5.864039
   69        8.652124
   70        8.652125
   71        8.927757
   72        8.927757
   73        9.194335
   74        9.194336
   75        9.977619
   76        9.977620
   77       10.366113
   78       10.366114
   79       10.529036
   80       10.529036
   81       10.913826
   82       10.913827
   83       10.990281
   84       10.990281
   85       11.839192
   86       11.839192
 
  0.0000000E+00  0.2500000E+00  0.2500000E+00  0.6250000E-01
    1      -15.007606
    2      -14.691866
    3      -14.480771
    4      -14.440512
    5      -12.301365
    6      -11.995189
    7      -11.838388
    8      -11.788245
    9      -11.667887
   10      -11.586417
   11      -11.494901
   12      -11.471125
   13       -8.677422
   14       -8.444980
   15       -8.326669
   16       -8.239144
   17       -8.174674
   18       -8.016330
   19       -7.783995
   20       -7.490182
   21       -6.946059
   22       -6.524580
   23       -6.152707
   24       -5.864357
   25       -5.062013
   26       -4.756739
   27       -4.442135
   28       -4.331156
   29       -4.319350
   30       -4.263515
   31       -4.134051
   32       -4.095449
   33       -4.065737
   34       -3.875260
   35       -3.828488
   36       -3.683326
   37       -3.316020
   38       -3.136768
   39       -2.983523
   40       -2.908925
   41       -2.239011
   42       -2.210712
   43       -2.052360
   44       -1.809177
   45       -1.641116
   46       -1.632459
   47       -1.500223
   48       -1.320239
   49       -1.116475
   50       -1.114404
   51       -1.024226
   52       -0.956542
   53        0.067746
   54        0.132618
   55        0.374176
   56        0.495322
   57        0.748531
   58        0.774072
   59        0.892675
   60        0.997150
   61        5.172992
   62        5.216057
   63        5.507908
   64        5.600881
   65        5.675967
   66        5.698364
   67        6.045879
   68        6.214055
   69        8.516529
   70        8.634719
   71        8.989427
   72        9.018683
   73        9.091610
   74        9.578101
   75        9.693914
   76        9.720003
   77       10.004543
   78       10.269313
   79       10.475983
   80       10.694417
   81       10.754480
   82       10.973336
   83       11.068688
   84       11.209684
   85       11.345092
   86       11.349893
 
  0.2500000E+00  0.2500000E+00  0.2500000E+00  0.1250000E+00
    1      -14.934515
    2      -14.656878
    3      -14.535290
    4      -14.506529
    5      -12.256714
    6      -11.995992
    7      -11.934689
    8      -11.774753
    9      -11.704695
   10      -11.583324
   11      -11.505906
   12      -11.416602
   13       -8.588175
   14       -8.428395
   15       -8.358389
   16       -8.212724
   17       -8.141734
   18       -8.015649
   19       -7.847041
   20       -7.634588
   21       -6.853379
   22       -6.354726
   23       -6.232745
   24       -5.837968
   25       -5.072523
   26       -4.812071
   27       -4.619874
   28       -4.353456
   29       -4.296544
   30       -4.188151
   31       -4.132440
   32       -4.107844
   33       -3.946642
   34       -3.916349
   35       -3.744307
   36       -3.479663
   37       -3.349072
   38       -3.216311
   39       -2.969975
   40       -2.865104
   41       -2.646558
   42       -2.185957
   43       -1.833490
   44       -1.721911
   45       -1.618872
   46       -1.594974
   47       -1.471615
   48       -1.329998
   49       -1.189054
   50       -1.128697
   51       -1.035433
   52       -0.987405
   53        0.141607
   54        0.163386
   55        0.368668
   56        0.497737
   57        0.680596
   58        0.763545
   59        0.792877
   60        0.901772
   61        5.064270
   62        5.163924
   63        5.324607
   64        5.437685
   65        5.730520
   66        5.823886
   67        6.025398
   68        6.183211
   69        8.638766
   70        8.780802
   71        8.793164
   72        9.062423
   73        9.202223
   74        9.509693
   75        9.823106
   76        9.869469
   77       10.057295
   78       10.228392
   79       10.476209
   80       10.678276
   81       10.696107
   82       10.848851
   83       10.943192
   84       11.007079
   85       11.416308
   86       11.697895
 
  0.5000000E+00  0.2500000E+00  0.2500000E+00  0.6250000E-01
    1      -14.745599
    2      -14.745598
    3      -14.577110
    4      -14.577109
    5      -12.125342
    6      -12.125342
    7      -11.905354
    8      -11.905353
    9      -11.633625
   10      -11.633624
   11      -11.437110
   12      -11.437109
   13       -8.428208
   14       -8.428208
   15       -8.334274
   16       -8.334273
   17       -7.987306
   18       -7.987305
   19       -7.894911
   20       -7.894910
   21       -6.581959
   22       -6.581958
   23       -5.983981
   24       -5.983980
   25       -4.906494
   26       -4.906493
   27       -4.528103
   28       -4.528102
   29       -4.243806
   30       -4.243805
   31       -4.104898
   32       -4.104898
   33       -3.907575
   34       -3.907575
   35       -3.710752
   36       -3.710751
   37       -3.262640
   38       -3.262639
   39       -2.914590
   40       -2.914589
   41       -2.249721
   42       -2.249720
   43       -1.922640
   44       -1.922639
   45       -1.487404
   46       -1.487403
   47       -1.367296
   48       -1.367295
   49       -1.211689
   50       -1.211688
   51       -1.081632
   52       -1.081631
   53        0.275963
   54        0.275963
   55        0.408167
   56        0.408168
   57        0.587411
   58        0.587412
   59        0.819428
   60        0.819429
   61        5.066051
   62        5.066051
   63        5.220490
   64        5.220491
   65        5.894266
   66        5.894266
   67        6.010834
   68        6.010835
   69        8.741127
   70        8.741128
   71        8.991862
   72        8.991863
   73        9.370450
   74        9.370451
   75        9.885695
   76        9.885696
   77       10.185758
   78       10.185759
   79       10.456150
   80       10.456150
   81       10.673514
   82       10.673515
   83       10.980155
   84       10.980157
   85       11.744680
   86       11.744681
 
  0.0000000E+00  0.5000000E+00  0.2500000E+00  0.3125000E-01
    1      -14.864184
    2      -14.864181
    3      -14.459946
    4      -14.459945
    5      -12.025549
    6      -12.025548
    7      -11.825427
    8      -11.825426
    9      -11.750119
   10      -11.750118
   11      -11.472567
   12      -11.472567
   13       -8.512952
   14       -8.512951
   15       -8.337293
   16       -8.337292
   17       -8.015476
   18       -8.015475
   19       -7.738084