benzene                                 
           1
     6.467736    0.000000    0.000000
     0.000000    8.240538    0.000000
     0.000000    0.000000    5.891752
   C    H 
  24  24
Direct configuration=     1
   0.94599998  0.13760001  0.99980003
   0.05400000  0.86239999  0.00020000
   0.55400002  0.86239999  0.49980000
   0.44600001  0.13760001  0.50019997
   0.05400000  0.63760001  0.50019997
   0.94599998  0.36239999  0.49980000
   0.44600001  0.36239999  0.00020000
   0.55400002  0.63760001  0.99980003
   0.07680000  0.09030000  0.13240001
   0.92320001  0.90969998  0.86759996
   0.42320001  0.90969998  0.63240004
   0.57679999  0.09030000  0.36759999
   0.92320001  0.59030002  0.36759999
   0.07680000  0.40970001  0.63240004
   0.57679999  0.40970001  0.86759996
   0.42320001  0.59030002  0.13240001
   0.87000001  0.04540000  0.87180000
   0.12999999  0.95459998  0.12820000
   0.62999999  0.95459998  0.37180000
   0.37000001  0.04540000  0.62820000
   0.12999999  0.54540002  0.62820000
   0.87000001  0.45460001  0.37180000
   0.37000001  0.45460001  0.12820000
   0.62999999  0.54540002  0.87180000
   0.91119999  0.23160000  0.99910003
   0.08880000  0.76840001  0.00090000
   0.58880001  0.76840001  0.49910000
   0.41119999  0.23160000  0.50089997
   0.08880000  0.73159999  0.50089997
   0.91119999  0.26840001  0.49910000
   0.41119999  0.26840001  0.00090000
   0.58880001  0.73159999  0.99910003
   0.12650000  0.15199999  0.22240000
   0.87349999  0.84799999  0.77759999
   0.37349999  0.84799999  0.72240001
   0.62650001  0.15199999  0.27759999
   0.87349999  0.65200001  0.27759999
   0.12650000  0.34799999  0.72240001
   0.62650001  0.34799999  0.77759999
   0.37349999  0.65200001  0.22240000
   0.78079999  0.07640000  0.78670001
   0.21920000  0.92360002  0.21330001
   0.71920001  0.92360002  0.28670001
   0.28079999  0.07640000  0.71329999
   0.21920000  0.57639998  0.71329999
   0.78079999  0.42360002  0.28670001
   0.28079999  0.42360002  0.21330001
   0.71920001  0.57639998  0.78670001
Direct configuration=     2
   0.97617513  0.11009087  0.02564272
   0.02382485  0.88990913 -0.02564269
   0.52382487  0.88990913  0.52564269
   0.47617516  0.11009087  0.47435728
   0.02382485  0.61009087  0.47435728
   0.97617513  0.38990913  0.52564269
   0.47617516  0.38990913 -0.02564269
   0.52382487  0.61009087  0.02564272
   0.03917975  0.08986007  0.08503811
   0.96082026  0.91013990  0.91496186
   0.46082026  0.91013990  0.58503814
   0.53917974  0.08986007  0.41496189
   0.96082026  0.58986010  0.41496189
   0.03917975  0.41013993  0.58503814
   0.53917974  0.41013993  0.91496186
   0.46082026  0.58986010  0.08503811
   0.88890449  0.04432139  0.89032805
   0.11109551  0.95567859  0.10967195
   0.61109551  0.95567859  0.39032805
   0.38890449  0.04432139  0.60967195
   0.11109551  0.54432141  0.60967195
   0.88890449  0.45567862  0.39032805
   0.38890449  0.45567862  0.10967195
   0.61109551  0.54432141  0.89032805
   0.86338498  0.36079206  0.99990529
   0.13661501  0.63920796  0.00009474
   0.63661502  0.63920796  0.49990526
   0.36338498  0.36079206  0.50009471
   0.13661501  0.86079204  0.50009471
   0.86338498  0.13920796  0.49990526
   0.36338498  0.13920796  0.00009474
   0.63661502  0.86079204  0.99990529
   0.19757598  0.24069578  0.34977124
   0.80242401  0.75930421  0.65022874
   0.30242401  0.75930421  0.84977126
   0.69757599  0.24069578  0.15022874
   0.80242401  0.74069579  0.15022874
   0.19757598  0.25930421  0.84977126
   0.69757599  0.25930421  0.65022874
   0.30242401  0.74069579  0.34977124
   0.65792766  0.11928104  0.66807679
   0.34207232  0.88071898  0.33192322
   0.84207234  0.88071898  0.16807679
   0.15792766  0.11928104  0.83192321
   0.34207232  0.61928102  0.83192321
   0.65792766  0.38071898  0.16807679
   0.15792766  0.38071898  0.33192322
   0.84207234  0.61928102  0.66807679
Direct configuration=     3
   0.95431336  0.13002112  0.00691980
   0.04568662  0.86997888 -0.00691977
   0.54568664  0.86997888  0.50691977
   0.45431339  0.13002112  0.49308020
   0.04568662  0.63002112  0.49308020
   0.95431336  0.36997888  0.50691977
   0.45431339  0.36997888 -0.00691977
   0.54568664  0.63002112  0.00691980
   0.06643546  0.09017880  0.11935160
   0.93356455  0.90982118  0.88064837
   0.43356455  0.90982118  0.61935163
   0.56643545  0.09017880  0.38064840
   0.93356455  0.59017882  0.38064840
   0.06643546  0.40982121  0.61935163
   0.56643545  0.40982121  0.88064837
   0.43356455  0.59017882  0.11935160
   0.87520827  0.04510284  0.87690456
   0.12479173  0.95489714  0.12309544
   0.62479173  0.95489714  0.37690456
   0.37520827  0.04510284  0.62309544
   0.12479173  0.54510286  0.62309544
   0.87520827  0.45489717  0.37690456
   0.37520827  0.45489717  0.12309544
   0.62479173  0.54510286  0.87690456
   0.89802675  0.26719296  0.99932188
   0.10197324  0.73280705  0.00067815
   0.60197325  0.73280705  0.49932185
   0.39802675  0.26719296  0.50067812
   0.10197324  0.76719295  0.50067812
   0.89802675  0.23280705  0.49932185
   0.39802675  0.23280705  0.00067815
   0.60197325  0.76719295  0.99932188
   0.14608173  0.17643606  0.25749131
   0.85391826  0.82356393  0.74250867
   0.35391826  0.82356393  0.75749133
   0.64608174  0.17643606  0.24250867
   0.85391826  0.67643607  0.24250867
   0.14608173  0.32356393  0.75749133
   0.64608174  0.32356393  0.74250867
   0.35391826  0.67643607  0.25749131
   0.74694814  0.08821391  0.75401881
   0.25305184  0.91178611  0.24598120
   0.75305186  0.91178611  0.25401881
   0.24694814  0.08821391  0.74598119
   0.25305184  0.58821389  0.74598119
   0.74694814  0.41178611  0.25401881
   0.24694814  0.41178611  0.24598120
   0.75305186  0.58821389  0.75401881
Direct configuration=     4
   0.95164345  0.13245514  0.00463323
   0.04835653  0.86754486 -0.00463320
   0.54835655  0.86754486  0.50463320
   0.45164348  0.13245514  0.49536677
   0.04835653  0.63245514  0.49536677
   0.95164345  0.36754486  0.50463320
   0.45164348  0.36754486 -0.00463320
   0.54835655  0.63245514  0.00463323
   0.06976412  0.09021772  0.12354220
   0.93023590  0.90978225  0.87645777
   0.43023590  0.90978225  0.62354223
   0.56976410  0.09021772  0.37645780
   0.93023590  0.59021775  0.37645780
   0.06976412  0.40978228  0.62354223
   0.56976410  0.40978228  0.87645777
   0.43023590  0.59021775  0.12354220
   0.87353559  0.04519828  0.87526519
   0.12646441  0.95480170  0.12473481
   0.62646441  0.95480170  0.37526519
   0.37353559  0.04519828  0.62473481
   0.12646441  0.54519830  0.62473481
   0.87353559  0.45480173  0.37526519
   0.37353559  0.45480173  0.12473481
   0.62646441  0.54519830  0.87526519
   0.90225744  0.25576200  0.99925063
   0.09774254  0.74423802  0.00074940
   0.59774256  0.74423802  0.49925060
   0.40225744  0.25576200  0.50074937
   0.09774254  0.75576198  0.50074937
   0.90225744  0.24423802  0.49925060
   0.40225744  0.24423802  0.00074940
   0.59774256  0.75576198  0.99925063
   0.13979290  0.16858822  0.24622146
   0.86020709  0.83141176  0.75377853
   0.36020709  0.83141176  0.74622147
   0.63979291  0.16858822  0.25377853
   0.86020709  0.66858824  0.25377853
   0.13979290  0.33141176  0.74622147
   0.63979291  0.33141176  0.75377853
   0.36020709  0.66858824  0.24622146
   0.75781993  0.08441977  0.76451464
   0.24218005  0.91558024  0.23548537
   0.74218007  0.91558024  0.26451464
   0.25781993  0.08441977  0.73548536
   0.24218005  0.58441976  0.73548536
   0.75781993  0.41558024  0.26451464
   0.25781993  0.41558024  0.23548537
   0.74218007  0.58441976  0.76451464
Direct configuration=     5
   0.94986938  0.13407247  0.00311387
   0.05013060  0.86592753 -0.00311385
   0.55013062  0.86592753  0.50311384
   0.44986941  0.13407247  0.49688613
   0.05013060  0.63407247  0.49688613
   0.94986938  0.36592753  0.50311384
   0.44986941  0.36592753 -0.00311385
   0.55013062  0.63407247  0.00311387
   0.07197590  0.09024359  0.12632672
   0.92802411  0.90975639  0.87367325
   0.42802411  0.90975639  0.62632675
   0.57197589  0.09024359  0.37367328
   0.92802411  0.59024361  0.37367328
   0.07197590  0.40975642  0.62632675
   0.57197589  0.40975642  0.87367325
   0.42802411  0.59024361  0.12632672
   0.87242415  0.04526169  0.87417588
   0.12757585  0.95473829  0.12582412
   0.62757585  0.95473829  0.37417588
   0.37242415  0.04526169  0.62582412
   0.12757585  0.54526171  0.62582412
   0.87242415  0.45473832  0.37417588
   0.37242415  0.45473832  0.12582412
   0.62757585  0.54526171  0.87417588
   0.90506860  0.24816648  0.99920329
   0.09493139  0.75183353  0.00079674
   0.59493140  0.75183353  0.49920326
   0.40506860  0.24816648  0.50079671
   0.09493139  0.74816647  0.50079671
   0.90506860  0.25183353  0.49920326
   0.40506860  0.25183353  0.00079674
   0.59493140  0.74816647  0.99920329
   0.13561417  0.16337358  0.23873299
   0.86438581  0.83662640  0.76126699
   0.36438581  0.83662640  0.73873301
   0.63561419  0.16337358  0.26126699
   0.86438581  0.66337360  0.26126699
   0.13561417  0.33662640  0.73873301
   0.63561419  0.33662640  0.76126699
   0.36438581  0.66337360  0.23873299
   0.76504389  0.08189869  0.77148878
   0.23495609  0.91810132  0.22851123
   0.73495611  0.91810132  0.27148878
   0.26504389  0.08189869  0.72851122
   0.23495609  0.58189868  0.72851122
   0.76504389  0.41810132  0.27148878
   0.26504389  0.41810132  0.22851123
   0.73495611  0.58189868  0.77148878
Direct configuration=     6
   0.91251854  0.20429103 -0.00665654
   0.08748144  0.79570897  0.00665657
   0.58748146  0.79570897  0.49334343
   0.41251857  0.20429103  0.50665654
   0.08748144  0.70429103  0.50665654
   0.91251854  0.29570897  0.49334343
   0.41251857  0.29570897  0.00665657
   0.58748146  0.70429103 -0.00665654
   0.11982750  0.12879512  0.19896513
   0.88017251  0.87120485  0.80103484
   0.38017251  0.87120485  0.69896516
   0.61982749  0.12879512  0.30103487
   0.88017251  0.62879515  0.30103487
   0.11982750  0.37120488  0.69896516
   0.61982749  0.37120488  0.80103484
   0.38017251  0.62879515  0.19896513
   0.81668101  0.06466027  0.81781700
   0.18331899  0.93533971  0.18218300
   0.68331899  0.93533971  0.31781700
   0.31668101  0.06466027  0.68218300
   0.18331899  0.56466029  0.68218300
   0.81668101  0.43533974  0.31781700
   0.31668101  0.43533974  0.18218300
   0.68331899  0.56466029  0.81781700
   0.87389040  0.33285230  0.00078998
   0.12610959  0.66714771 -0.00078995
   0.62610960  0.66714771  0.50078995
   0.37389040  0.33285230  0.49921002
   0.12610959  0.83285229  0.49921002
   0.87389040  0.16714771  0.50078995
   0.37389040  0.16714771 -0.00078995
   0.62610960  0.83285229  0.00078998
   0.18138974  0.22089073  0.32023050
   0.81861024  0.77910925  0.67976948
   0.31861024  0.77910925  0.82023052
   0.68138976  0.22089073  0.17976948
   0.81861024  0.72089075  0.17976948
   0.18138974  0.27910925  0.82023052
   0.68138976  0.27910925  0.67976948
   0.31861024  0.72089075  0.32023050
   0.68165934  0.11102259  0.69057363
   0.31834065  0.88897742  0.30942638
   0.81834066  0.88897742  0.19057363
   0.18165934  0.11102259  0.80942637
   0.31834065  0.61102258  0.80942637
   0.68165934  0.38897742  0.19057363
   0.18165934  0.38897742  0.30942638
   0.81834066  0.61102258  0.69057363
Direct configuration=     7
   0.93443072  0.16309673 -0.00092465
   0.06556926  0.83690327  0.00092467
   0.56556928  0.83690327  0.49907532
   0.43443075  0.16309673  0.50092465
   0.06556926  0.66309673  0.50092465
   0.93443072  0.33690327  0.49907532
   0.43443075  0.33690327  0.00092467
   0.56556928  0.66309673 -0.00092465
   0.09175497  0.10617855  0.15635120
   0.90824505  0.89382143  0.84364877
   0.40824505  0.89382143  0.65635123
   0.59175495  0.10617855  0.34364880
   0.90824505  0.60617857  0.34364880
   0.09175497  0.39382146  0.65635123
   0.59175495  0.39382146  0.84364877
   0.40824505  0.60617857  0.15635120
   0.84938319  0.05327993  0.85088041
   0.15061681  0.94672005  0.14911959
   0.65061681  0.94672005  0.35088041
   0.34938319  0.05327993  0.64911959
   0.15061681  0.55327995  0.64911959
   0.84938319  0.44672008  0.35088041
   0.34938319  0.44672008  0.14911959
   0.65061681  0.55327995  0.85088041
   0.89218135  0.28317066 -0.00014086
   0.10781864  0.71682935  0.00014089
   0.60781865  0.71682935  0.49985911
   0.39218135  0.28317066  0.50014086
   0.10781864  0.78317065  0.50014086
   0.89218135  0.21682935  0.49985911
   0.39218135  0.21682935  0.00014089
   0.60781865  0.78317065 -0.00014086
   0.15453512  0.18714782  0.27241931
   0.84546486  0.81285217  0.72758067
   0.34546486  0.81285217  0.77241933
   0.65453514  0.18714782  0.22758067
   0.84546486  0.68714783  0.22758067
   0.15453512  0.31285217  0.77241933
   0.65453514  0.31285217  0.72758067
   0.34546486  0.68714783  0.27241931
   0.73057758  0.09393682  0.73804318
   0.26942241  0.90606320  0.26195684
   0.76942242  0.90606320  0.23804318
   0.23057758  0.09393682  0.76195682
   0.26942241  0.59393680  0.76195682
   0.73057758  0.40606320  0.23804318
   0.23057758  0.40606320  0.26195684
   0.76942242  0.59393680  0.73804318
Direct configuration=     8
   0.93473833  0.16251844 -0.00084418
   0.06526166  0.83748156  0.00084421
   0.56526167  0.83748156  0.49915579
   0.43473836  0.16251844  0.50084418
   0.06526166  0.66251844  0.50084418
   0.93473833  0.33748156  0.49915579
   0.43473836  0.33748156  0.00084421
   0.56526167  0.66251844 -0.00084418
   0.09136088  0.10586105  0.15575299
   0.90863913  0.89413892  0.84424698
   0.40863913  0.89413892  0.65575302
   0.59136087  0.10586105  0.34424701
   0.90863913  0.60586108  0.34424701
   0.09136088  0.39413895  0.65575302
   0.59136087  0.39413895  0.84424698
   0.40863913  0.60586108  0.15575299
   0.84984226  0.05312017  0.85134455
   0.15015774  0.94687980  0.14865545
   0.65015774  0.94687980  0.35134455
   0.34984226  0.05312017  0.64865545
   0.15015774  0.55312020  0.64865545
   0.84984226  0.44687983  0.35134455
   0.34984226  0.44687983  0.14865545
   0.65015774  0.55312020  0.85134455
   0.89243812  0.28247323 -0.00015393
   0.10756187  0.71752678  0.00015396
   0.60756188  0.71752678  0.49984604
   0.39243812  0.28247323  0.50015393
   0.10756187  0.78247322  0.50015393
   0.89243812  0.21752678  0.49984604
   0.39243812  0.21752678  0.00015396
   0.60756188  0.78247322 -0.00015393
   0.15415814  0.18667414  0.27174814
   0.84584185  0.81332585  0.72825185
   0.34584185  0.81332585  0.77174815
   0.65415815  0.18667414  0.22825185
   0.84584185  0.68667415  0.22825185
   0.15415814  0.31332585  0.77174815
   0.65415815  0.31332585  0.72825185
   0.34584185  0.68667415  0.27174814
   0.73126429  0.09369697  0.73870956
   0.26873569  0.90630305  0.26129046
   0.76873571  0.90630305  0.23870956
   0.23126429  0.09369697  0.76129044
   0.26873569  0.59369695  0.76129044
   0.73126429  0.40630305  0.23870956
   0.23126429  0.40630305  0.26129046
   0.76873571  0.59369695  0.73870956
Direct configuration=     9
   0.93502997  0.16197016 -0.00076789
   0.06497001  0.83802984  0.00076792
   0.56497003  0.83802984  0.49923208
   0.43503000  0.16197016  0.50076789
   0.06497001  0.66197016  0.50076789
   0.93502997  0.33802984  0.49923208
   0.43503000  0.33802984  0.00076792
   0.56497003  0.66197016 -0.00076789
   0.09098725  0.10556003  0.15518581
   0.90901277  0.89443994  0.84481416
   0.40901277  0.89443994  0.65518584
   0.59098723  0.10556003  0.34481419
   0.90901277  0.60556006  0.34481419
   0.09098725  0.39443997  0.65518584
   0.59098723  0.39443997  0.84481416
   0.40901277  0.60556006  0.15518581
   0.85027752  0.05296871  0.85178462
   0.14972248  0.94703127  0.14821538
   0.64972248  0.94703127  0.35178462
   0.35027752  0.05296871  0.64821538
   0.14972248  0.55296873  0.64821538
   0.85027752  0.44703130  0.35178462
   0.35027752  0.44703130  0.14821538
   0.64972248  0.55296873  0.85178462
   0.89268157  0.28181198 -0.00016632
   0.10731842  0.71818803  0.00016635
   0.60731843  0.71818803  0.49983365
   0.39268157  0.28181198  0.50016632
   0.10731842  0.78181197  0.50016632
   0.89268157  0.21818803  0.49983365
   0.39268157  0.21818803  0.00016635
   0.60731843  0.78181197 -0.00016632
   0.15380071  0.18622503  0.27111179
   0.84619927  0.81377496  0.72888820
   0.34619927  0.81377496  0.77111180
   0.65380073  0.18622503  0.22888820
   0.84619927  0.68622504  0.22888820
   0.15380071  0.31377496  0.77111180
   0.65380073  0.31377496  0.72888820
   0.34619927  0.68622504  0.27111179
   0.73191538  0.09346956  0.73934136
   0.26808461  0.90653046  0.26065865
   0.76808462  0.90653046  0.23934136
   0.23191538  0.09346956  0.76065864
   0.26808461  0.59346954  0.76065864
   0.73191538  0.40653046  0.23934136
   0.23191538  0.40653046  0.26065865
   0.76808462  0.59346954  0.73934136
Direct configuration=    10
   0.94481805  0.15914223  0.00996748
   0.05518193  0.84085777 -0.00996746
   0.55518195  0.84085777  0.50996745
   0.44481808  0.15914223  0.49003252
   0.05518193  0.65914223  0.49003252
   0.94481805  0.34085777  0.50996745
   0.44481808  0.34085777 -0.00996746
   0.55518195  0.65914223  0.00996748
   0.08234301  0.11210521  0.14833333
   0.91765701  0.88789477  0.85166664
   0.41765701  0.88789477  0.64833336
   0.58234299  0.11210521  0.35166667
   0.91765701  0.61210523  0.35166667
   0.08234301  0.38789480  0.64833336
   0.58234299  0.38789480  0.85166664
   0.41765701  0.61210523  0.14833333
   0.84087099  0.05677845  0.84296281
   0.15912901  0.94322152  0.15703719
   0.65912901  0.94322152  0.34296281
   0.34087099  0.05677845  0.65703719
   0.15912901  0.55677848  0.65703719
   0.84087099  0.44322155  0.34296281
   0.34087099  0.44322155  0.15703719
   0.65912901  0.55677848  0.84296281
   0.88566469  0.30061616  0.00028944
   0.11433530  0.69938385 -0.00028941
   0.61433531  0.69938385  0.50028941
   0.38566469  0.30061616  0.49971056
   0.11433530  0.80061615  0.49971056
   0.88566469  0.19938385  0.50028941
   0.38566469  0.19938385 -0.00028941
   0.61433531  0.80061615  0.00028944
   0.16279331  0.19668393  0.28652503
   0.83720667  0.80331605  0.71347496
   0.33720667  0.80331605  0.78652504
   0.66279333  0.19668393  0.21347496
   0.83720667  0.69668395  0.21347496
   0.16279331  0.30331605  0.78652504
   0.66279333  0.30331605  0.71347496
   0.33720667  0.69668395  0.28652503
   0.72008426  0.09695682  0.72779206
   0.27991572  0.90304320  0.27220795
   0.77991574  0.90304320  0.22779206
   0.22008426  0.09695682  0.77220794
   0.27991572  0.59695680  0.77220794
   0.72008426  0.40304320  0.22779206
   0.22008426  0.40304320  0.27220795
   0.77991574  0.59695680  0.72779206
Direct configuration=    11
   0.93780636  0.16116802  0.00227720
   0.06219362  0.83883198 -0.00227717
   0.56219364  0.83883198  0.50227717
   0.43780639  0.16116802  0.49772280
   0.06219362  0.66116802  0.49772280
   0.93780636  0.33883198  0.50227717
   0.43780639  0.33883198 -0.00227717
   0.56219364  0.66116802  0.00227720
   0.08853531  0.10741657  0.15324211
   0.91146471  0.89258340  0.84675786
   0.41146471  0.89258340  0.65324214
   0.58853529  0.10741657  0.34675789
   0.91146471  0.60741660  0.34675789
   0.08853531  0.39258343  0.65324214
   0.58853529  0.39258343  0.84675786
   0.41146471  0.60741660  0.15324211
   0.84760936  0.05404934  0.84928231
   0.15239064  0.94595064  0.15071769
   0.65239064  0.94595064  0.34928231
   0.34760936  0.05404934  0.65071769
   0.15239064  0.55404936  0.65071769
   0.84760936  0.44595067  0.34928231
   0.34760936  0.44595067  0.15071769
   0.65239064  0.55404936  0.84928231
   0.89069123  0.28714579 -0.00003705
   0.10930876  0.71285422  0.00003707
   0.60930877  0.71285422  0.49996293
   0.39069123  0.28714579  0.50003705
   0.10930876  0.78714578  0.50003705
   0.89069123  0.21285422  0.49996293
   0.39069123  0.21285422  0.00003707
   0.60930877  0.78714578 -0.00003705
   0.15635146  0.18919170  0.27548375
   0.84364852  0.81080829  0.72451623
   0.34364852  0.81080829  0.77548377
   0.65635148  0.18919170  0.22451623
   0.84364852  0.68919171  0.22451623
   0.15635146  0.31080829  0.77548377
   0.65635148  0.31080829  0.72451623
   0.34364852  0.68919171  0.27548375
   0.72855948  0.09445872  0.73606540
   0.27144050  0.90554129  0.26393461
   0.77144052  0.90554129  0.23606540
   0.22855948  0.09445872  0.76393460
   0.27144050  0.59445871  0.76393460
   0.72855948  0.40554129  0.23606540
   0.22855948  0.40554129  0.26393461
   0.77144052  0.59445871  0.73606540
Direct configuration=    12
   0.93777510  0.16117705  0.00224292
   0.06222488  0.83882295 -0.00224289
   0.56222490  0.83882295  0.50224289
   0.43777513  0.16117705  0.49775708
   0.06222488  0.66117705  0.49775708
   0.93777510  0.33882295  0.50224289
   0.43777513  0.33882295 -0.00224289
   0.56222490  0.66117705  0.00224292
   0.08856291  0.10739567  0.15326399
   0.91143711  0.89260430  0.84673598
   0.41143711  0.89260430  0.65326402
   0.58856289  0.10739567  0.34673601
   0.91143711  0.60739570  0.34673601
   0.08856291  0.39260433  0.65326402
   0.58856289  0.39260433  0.84673598
   0.41143711  0.60739570  0.15326399
   0.84763939  0.05403718  0.84931048
   0.15236061  0.94596280  0.15068952
   0.65236061  0.94596280  0.34931048
   0.34763939  0.05403718  0.65068952
   0.15236061  0.55403720  0.65068952
   0.84763939  0.44596283  0.34931048
   0.34763939  0.44596283  0.15068952
   0.65236061  0.55403720  0.84931048
   0.89071363  0.28708575 -0.00003850
   0.10928635  0.71291427  0.00003853
   0.60928637  0.71291427  0.49996147
   0.39071363  0.28708575  0.50003850
   0.10928635  0.78708573  0.50003850
   0.89071363  0.21291427  0.49996147
   0.39071363  0.21291427  0.00003853
   0.60928637  0.78708573 -0.00003850
   0.15632275  0.18915830  0.27543454
   0.84367724  0.81084168  0.72456545
   0.34367724  0.81084168  0.77543455
   0.65632276  0.18915830  0.22456545
   0.84367724  0.68915832  0.22456545
   0.15632275  0.31084168  0.77543455
   0.65632276  0.31084168  0.72456545
   0.34367724  0.68915832  0.27543454
   0.72859726  0.09444759  0.73610228
   0.27140273  0.90555243  0.26389774
   0.77140274  0.90555243  0.23610228
   0.22859726  0.09444759  0.76389772
   0.27140273  0.59444757  0.76389772
   0.72859726  0.40555243  0.23610228
   0.22859726  0.40555243  0.26389774
   0.77140274  0.59444757  0.73610228
Direct configuration=    13
   0.93824952  0.16044040  0.00261059
   0.06175046  0.83955960 -0.00261057
   0.56175048  0.83955960  0.50261056
   0.43824955  0.16044040  0.49738941
   0.06175046  0.66044040  0.49738941
   0.93824952  0.33955960  0.50261056
   0.43824955  0.33955960 -0.00261057
   0.56175048  0.66044040  0.00261059
   0.08792783  0.10624945  0.15239439
   0.91207218  0.89375053  0.84760558
   0.41207218  0.89375053  0.65239442
   0.58792782  0.10624945  0.34760561
   0.91207218  0.60624947  0.34760561
   0.08792783  0.39375056  0.65239442
   0.58792782  0.39375056  0.84760558
   0.41207218  0.60624947  0.15239439
   0.84990640  0.05262092  0.85163525
   0.15009360  0.94737906  0.14836475
   0.65009360  0.94737906  0.35163525
   0.34990640  0.05262092  0.64836475
   0.15009360  0.55262094  0.64836475
   0.84990640  0.44737909  0.35163525
   0.34990640  0.44737909  0.14836475
   0.65009360  0.55262094  0.85163525
   0.89095496  0.28721016  0.00059212
   0.10904502  0.71278986 -0.00059209
   0.60904504  0.71278986  0.50059209
   0.39095496  0.28721016  0.49940788
   0.10904502  0.78721014  0.49940788
   0.89095496  0.21278986  0.50059209
   0.39095496  0.21278986 -0.00059209
   0.60904504  0.78721014  0.00059212
   0.15614351  0.18897260  0.27493985
   0.84385648  0.81102739  0.72506014
   0.34385648  0.81102739  0.77493986
   0.65614352  0.18897260  0.22506014
   0.84385648  0.68897261  0.22506014
   0.15614351  0.31102739  0.77493986
   0.65614352  0.31102739  0.72506014
   0.34385648  0.68897261  0.27493985
   0.72745474  0.09430049  0.73516626
   0.27254525  0.90569952  0.26483376
   0.77254526  0.90569952  0.23516626
   0.22745474  0.09430049  0.76483374
   0.27254525  0.59430048  0.76483374
   0.72745474  0.40569952  0.23516626
   0.22745474  0.40569952  0.26483376
   0.77254526  0.59430048  0.73516626
Direct configuration=    14
   0.93795272  0.16090126  0.00238057
   0.06204726  0.83909874 -0.00238054
   0.56204728  0.83909874  0.50238054
   0.43795275  0.16090126  0.49761943
   0.06204726  0.66090126  0.49761943
   0.93795272  0.33909874  0.50238054
   0.43795275  0.33909874 -0.00238054
   0.56204728  0.66090126  0.00238057
   0.08832515  0.10696655  0.15293843
   0.91167487  0.89303343  0.84706154
   0.41167487  0.89303343  0.65293846
   0.58832513  0.10696655  0.34706157
   0.91167487  0.60696657  0.34706157
   0.08832515  0.39303346  0.65293846
   0.58832513  0.39303346  0.84706154
   0.41167487  0.60696657  0.15293843
   0.84848812  0.05350695  0.85018083
   0.15151188  0.94649302  0.14981917
   0.65151188  0.94649302  0.35018083
   0.34848812  0.05350695  0.64981917
   0.15151188  0.55350698  0.64981917
   0.84848812  0.44649305  0.35018083
   0.34848812  0.44649305  0.14981917
   0.65151188  0.55350698  0.85018083
   0.89080398  0.28713232  0.00019759
   0.10919600  0.71286769 -0.00019756
   0.60919602  0.71286769  0.50019756
   0.39080398  0.28713232  0.49980241
   0.10919600  0.78713231  0.49980241
   0.89080398  0.21286769  0.50019756
   0.39080398  0.21286769 -0.00019756
   0.60919602  0.78713231  0.00019759
   0.15625565  0.18908878  0.27524933
   0.84374434  0.81091121  0.72475065
   0.34374434  0.81091121  0.77524935
   0.65625566  0.18908878  0.22475065
   0.84374434  0.68908879  0.22475065
   0.15625565  0.31091121  0.77524935
   0.65625566  0.31091121  0.72475065
   0.34374434  0.68908879  0.27524933
   0.72816952  0.09439252  0.73575185
   0.27183047  0.90560750  0.26424817
   0.77183048  0.90560750  0.23575185
   0.22816952  0.09439252  0.76424815
   0.27183047  0.59439250  0.76424815
   0.72816952  0.40560750  0.23575185
   0.22816952  0.40560750  0.26424817
   0.77183048  0.59439250  0.73575185
Direct configuration=    15
   0.93827382  0.16080716  0.00290257
   0.06172617  0.83919284 -0.00290254
   0.56172618  0.83919284  0.50290254
   0.43827385  0.16080716  0.49709743
   0.06172617  0.66080716  0.49709743
   0.93827382  0.33919284  0.50290254
   0.43827385  0.33919284 -0.00290254
   0.56172618  0.66080716  0.00290257
   0.08775588  0.10716391  0.15271161
   0.91224414  0.89283606  0.84728836
   0.41224414  0.89283606  0.65271164
   0.58775586  0.10716391  0.34728839
   0.91224414  0.60716394  0.34728839
   0.08775588  0.39283609  0.65271164
   0.58775586  0.39283609  0.84728836
   0.41224414  0.60716394  0.15271161
   0.84848292  0.05351768  0.85054512
   0.15151708  0.94648230  0.14945488
   0.65151708  0.94648230  0.35054512
   0.34848292  0.05351768  0.64945488
   0.15151708  0.55351770  0.64945488
   0.84848292  0.44648233  0.35054512
   0.34848292  0.44648233  0.14945488
   0.65151708  0.55351770  0.85054512
   0.89103797  0.28715939  0.00078632
   0.10896202  0.71284062 -0.00078629
   0.60896203  0.71284062  0.50078629
   0.39103797  0.28715939  0.49921368
   0.10896202  0.78715938  0.49921368
   0.89103797  0.21284062  0.50078629
   0.39103797  0.21284062 -0.00078629
   0.60896203  0.78715938  0.00078632
   0.15606248  0.18881033  0.27469415
   0.84393751  0.81118966  0.72530584
   0.34393751  0.81118966  0.77469416
   0.65606249  0.18881033  0.22530584
   0.84393751  0.68881034  0.22530584
   0.15606248  0.31118966  0.77469416
   0.65606249  0.31118966  0.72530584
   0.34393751  0.68881034  0.27469415
   0.72808540  0.09389875  0.73582263
   0.27191459  0.90610126  0.26417739
   0.77191460  0.90610126  0.23582263
   0.22808540  0.09389875  0.76417737
   0.27191459  0.59389874  0.76417737
   0.72808540  0.40610126  0.23582263
   0.22808540  0.40610126  0.26417739
   0.77191460  0.59389874  0.73582263
Direct configuration=    16
   0.93822957  0.16082013  0.00283064
   0.06177041  0.83917987 -0.00283061
   0.56177043  0.83917987  0.50283061
   0.43822960  0.16082013  0.49716936
   0.06177041  0.66082013  0.49716936
   0.93822957  0.33917987  0.50283061
   0.43822960  0.33917987 -0.00283061
   0.56177043  0.66082013  0.00283064
   0.08783432  0.10713672  0.15274287
   0.91216570  0.89286326  0.84725710
   0.41216570  0.89286326  0.65274290
   0.58783430  0.10713672  0.34725713
   0.91216570  0.60713674  0.34725713
   0.08783432  0.39286329  0.65274290
   0.58783430  0.39286329  0.84725710
   0.41216570  0.60713674  0.15274287
   0.84848363  0.05351620  0.85049492
   0.15151637  0.94648378  0.14950508
   0.65151637  0.94648378  0.35049492
   0.34848363  0.05351620  0.64950508
   0.15151637  0.55351622  0.64950508
   0.84848363  0.44648381  0.35049492
   0.34848363  0.44648381  0.14950508
   0.65151637  0.55351622  0.85049492
   0.89100572  0.28715566  0.00070519
   0.10899426  0.71284435 -0.00070516
   0.60899428  0.71284435  0.50070516
   0.39100572  0.28715566  0.49929481
   0.10899426  0.78715565  0.49929481
   0.89100572  0.21284435  0.50070516
   0.39100572  0.21284435 -0.00070516
   0.60899428  0.78715565  0.00070519
   0.15608910  0.18884870  0.27477065
   0.84391089  0.81115129  0.72522934
   0.34391089  0.81115129  0.77477066
   0.65608911  0.18884870  0.22522934
   0.84391089  0.68884871  0.22522934
   0.15608910  0.31115129  0.77477066
   0.65608911  0.31115129  0.72522934
   0.34391089  0.68884871  0.27477065
   0.72809699  0.09396679  0.73581287
   0.27190300  0.90603322  0.26418714
   0.77190301  0.90603322  0.23581287
   0.22809699  0.09396679  0.76418713
   0.27190300  0.59396678  0.76418713
   0.72809699  0.40603322  0.23581287
   0.22809699  0.40603322  0.26418714
   0.77190301  0.59396678  0.73581287
Direct configuration=    17
   0.93808314  0.16093151  0.00291203
   0.06191684  0.83906849 -0.00291200
   0.56191686  0.83906849  0.50291200
   0.43808317  0.16093151  0.49708797