   32   32    1    1
  0.8381369E+01  0.4932875E-09  0.4932875E-09  0.1273296E-08  0.5000000E-15
  1.000000000000000E-004
  CAR 
 graphite                                
    128     76     84
 
  0.0000000E+00  0.0000000E+00  0.0000000E+00  0.6944444E-02
    1      -14.546050
    2      -14.334297
    3      -14.333557
    4      -14.100794
    5       -9.188748
    6       -9.178886
    7       -9.175695
    8       -9.094046
    9       -9.092285
   10       -9.082050
   11       -9.080564
   12       -9.080537
   13       -9.076345
   14       -9.021970
   15       -9.008244
   16       -9.005913
   17       -8.084033
   18       -8.082380
   19       -8.081582
   20       -8.044589
   21       -8.043522
   22       -8.041364
   23       -8.040964
   24       -8.040946
   25       -8.038176
   26       -7.958626
   27       -7.957603
   28       -7.954937
   29       -3.592906
   30       -2.459119
   31       -2.456895
   32       -1.261792
   33       -1.259327
   34       -1.243717
   35       -1.217049
   36       -1.215993
   37       -1.215981
   38       -1.211789
   39       -1.199285
   40       -1.197301
   41       -1.170736
   42       -1.167902
   43       -1.152567
   44       -1.048852
   45        2.147108
   46        2.156070
   47        2.161567
   48        2.166659
   49        2.172521
   50        2.177655
   51        2.182668
   52        2.191605
   53        2.230422
   54        2.233134
   55        2.234695
   56        2.788046
   57        2.790821
   58        2.797963
   59        2.798384
   60        2.798520
   61        2.802596
   62        3.108442
   63        3.129781
   64        3.131271
   65        6.706141
   66        6.708206
   67        6.717346
   68        6.792263
   69        6.795840
   70        6.798110
   71        6.800255
   72        6.800783
   73        6.805078
   74        7.495346
   75        7.502094
   76        7.505578
   77        9.954143
   78       12.264200
   79       12.268287
   80       12.299827
   81       12.540954
   82       12.543973
   83       12.546572
   84       12.555671
 
  0.1666667E+00 -0.1387779E-16  0.0000000E+00  0.1388889E-01
    1      -14.379763
    2      -14.169911
    3      -14.169180
    4      -13.938707
    5      -10.509667
    6      -10.345641
    7      -10.345019
    8      -10.169546
    9       -9.631653
   10       -9.624459
   11       -9.486247
   12       -9.485478
   13       -9.478469
   14       -9.477428
   15       -9.333566
   16       -9.325286
   17       -7.496194
   18       -7.490546
   19       -7.381409
   20       -7.379189
   21       -7.374437
   22       -7.373478
   23       -7.251823
   24       -7.245496
   25       -6.654704
   26       -6.534623
   27       -6.533106
   28       -6.405367
   29       -3.390985
   30       -2.263873
   31       -2.261657
   32       -1.757000
   33       -1.740278
   34       -1.702334
   35       -1.702124
   36       -1.686341
   37       -1.684400
   38       -1.645964
   39       -1.629291
   40       -1.096900
   41       -1.053655
   42       -1.050562
   43       -1.006793
   44       -0.863157
   45        1.099968
   46        1.490707
   47        1.516902
   48        1.521499
   49        1.547386
   50        1.805185
   51        1.826757
   52        1.831896
   53        1.854064
   54        1.951318
   55        1.953704
   56        1.984056
   57        1.988043
   58        2.680454
   59        2.683191
   60        2.689262
   61        2.690233
   62        2.864721
   63        3.268377
   64        3.284384
   65        6.822436
   66        6.827175
   67        7.075108
   68        7.078942
   69        7.080780
   70        7.085359
   71        7.420472
   72        7.773906
   73        7.780343
   74        7.898132
   75        7.902555
   76        8.690250
   77       10.148461
   78       12.360708
   79       12.630236
   80       12.631866
   81       12.907139
   82       12.999228
   83       13.033398
   84       13.147801
 
  0.3333333E+00 -0.5551115E-16  0.0000000E+00  0.1388889E-01
    1      -13.882762
    2      -13.678507
    3      -13.677804
    4      -13.454194
    5      -11.926535
    6      -11.744526
    7      -11.743903
    8      -11.547045
    9      -10.058456
   10      -10.054761
   11       -9.900626
   12       -9.899930
   13       -9.896781
   14       -9.895460
   15       -9.731198
   16       -9.727248
   17       -6.320817
   18       -6.311859
   19       -6.211850
   20       -6.209578
   21       -6.202221
   22       -6.200971
   23       -6.094402
   24       -6.085596
   25       -4.531449
   26       -4.430999
   27       -4.429220
   28       -4.324058
   29       -2.920195
   30       -2.906205
   31       -2.850823
   32       -2.850356
   33       -2.837424
   34       -2.835360
   35       -2.789388
   36       -2.776966
   37       -2.762874
   38       -1.683297
   39       -1.681090
   40       -0.622090
   41       -0.580726
   42       -0.577397
   43       -0.535470
   44       -0.468868
   45       -0.313035
   46       -0.172553
   47       -0.122675
   48       -0.119249
   49       -0.069032
   50        0.529750
   51        0.531873
   52        1.001881
   53        1.033256
   54        1.037858
   55        1.069830
   56        1.657902
   57        1.661061
   58        1.726893
   59        2.491730
   60        2.494619
   61        2.497687
   62        2.498777
   63        3.393905
   64        3.401970
   65        7.242670
   66        7.245104
   67        7.652851
   68        7.655334
   69        7.657541
   70        7.661475
   71        8.213090
   72        8.216134
   73        9.527452
   74       10.037697
   75       10.041423
   76       10.715457
   77       10.735307
   78       12.595854
   79       12.871084
   80       12.872999
   81       12.928251
   82       13.316227
   83       13.320918
   84       13.369808
 
  0.5000000E+00  0.0000000E+00  0.0000000E+00  0.6944444E-02
    1      -13.062407
    2      -13.059505
    3      -12.868445
    4      -12.865778
    5      -12.865769
    6      -12.862523
    7      -12.654362
    8      -12.651381
    9      -10.208028
   10      -10.206235
   11      -10.047663
   12      -10.046228
   13      -10.046152
   14      -10.043949
   15       -9.874593
   16       -9.872747
   17       -5.392157
   18       -5.390201
   19       -5.330058
   20       -5.330051
   21       -5.329209
   22       -5.324936
   23       -5.272483
   24       -5.270070
   25       -3.791613
   26       -3.790010
   27       -3.756809
   28       -3.754052
   29       -3.752964
   30       -3.752960
   31       -3.703463
   32       -3.702140
   33       -2.301754
   34       -2.298331
   35       -2.227822
   36       -2.222235
   37       -2.222220
   38       -2.221524
   39       -2.145143
   40       -2.142201
   41       -1.804048
   42       -1.801658
   43       -0.736913
   44       -0.734386
   45       -0.734106
   46       -0.730454
   47        0.112840
   48        0.116948
   49        0.151708
   50        0.152894
   51        0.152915
   52        0.161488
   53        0.192280
   54        0.198786
   55        0.573759
   56        0.576505
   57        1.531543
   58        1.533689
   59        2.407556
   60        2.411130
   61        2.411549
   62        2.412985
   63        3.413583
   64        3.416052
   65        7.546982
   66        7.549683
   67        7.960034
   68        7.960249
   69        7.960311
   70        7.965469
   71        8.373375
   72        8.376008
   73       11.694939
   74       11.696460
   75       11.981468
   76       11.984787
   77       12.314446
   78       12.321153
   79       12.322563
   80       12.325360
   81       12.845208
   82       12.848983
   83       13.041277
   84       13.044206
 
 -0.1355253E-19  0.1666667E+00  0.0000000E+00  0.1388889E-01
    1      -14.379759
    2      -14.169909
    3      -14.169174
    4      -13.938703
    5      -10.509682
    6      -10.345652
    7      -10.345056
    8      -10.169582
    9       -9.631748
   10       -9.624198
   11       -9.486468
   12       -9.485500
   13       -9.478452
   14       -9.476762
   15       -9.333614
   16       -9.324957
   17       -7.496571
   18       -7.491455
   19       -7.381442
   20       -7.380674
   21       -7.374547
   22       -7.374160
   23       -7.252155
   24       -7.246213
   25       -6.653733
   26       -6.533205
   27       -6.532636
   28       -6.404441
   29       -3.390995
   30       -2.263884
   31       -2.261671
   32       -1.755754
   33       -1.740233
   34       -1.702270
   35       -1.699554
   36       -1.686400
   37       -1.684400
   38       -1.644621
   39       -1.629314
   40       -1.098113
   41       -1.053667
   42       -1.053197
   43       -1.008253
   44       -0.863174
   45        1.099318
   46        1.493864
   47        1.521496
   48        1.521827
   49        1.549441
   50        1.803170
   51        1.826748
   52        1.826922
   53        1.850638
   54        1.950997
   55        1.952376
   56        1.984353
   57        1.988954
   58        2.680822
   59        2.683177
   60        2.689317
   61        2.692344
   62        2.863737
   63        3.268457
   64        3.285522
   65        6.820542
   66        6.827057
   67        7.074252
   68        7.077330
   69        7.080646
   70        7.083601
   71        7.422279
   72        7.773320
   73        7.778693
   74        7.900293
   75        7.903600
   76        8.691791
   77       10.148445
   78       12.360039
   79       12.630003
   80       12.630714
   81       12.906396
   82       13.000086
   83       13.033449
   84       13.147210
 
  0.1666667E+00  0.1666667E+00  0.0000000E+00  0.1388889E-01
    1      -14.047900
    2      -13.841773
    3      -13.841060
    4      -13.615183
    5      -11.134830
    6      -11.131784
    7      -10.963387
    8      -10.960641
    9      -10.960620
   10      -10.957189
   11      -10.776014
   12      -10.772889
   13       -8.761586
   14       -8.670468
   15       -8.669218
   16       -8.601216
   17       -7.676335
   18       -7.643564
   19       -7.639717
   20       -7.567174
   21       -5.541002
   22       -5.537404
   23       -5.433337
   24       -5.429348
   25       -5.429329
   26       -5.426185
   27       -5.316073
   28       -5.312499
   29       -3.094003
   30       -3.021711
   31       -3.019804
   32       -2.988904
   33       -2.943975
   34       -1.875579
   35       -1.873375
   36       -1.427926
   37       -1.425090
   38       -1.375945
   39       -1.374440
   40       -1.374428
   41       -1.369949
   42       -1.321112
   43       -1.317899
   44       -0.494828
   45        0.439154
   46        0.443208
   47        0.457366
   48        0.482715
   49        0.486511
   50        0.509566
   51        1.131477
   52        1.147689
   53        1.152916
   54        1.172725
   55        1.376701
   56        1.378902
   57        1.379074
   58        1.382561
   59        2.464873
   60        2.467401
   61        2.827325
   62        3.384884
   63        3.387302
   64        3.685533
   65        6.582851
   66        6.587945
   67        6.674294
   68        6.973384
   69        8.340208
   70        8.342787
   71        8.849693
   72        8.854052
   73        8.854740
   74        8.856812
   75        9.533233
   76        9.536143
   77       10.540382
   78       13.174630
   79       13.179098
   80       13.417120
   81       13.423973
   82       13.444625
   83       13.446454
   84       13.451757
 
  0.3333333E+00  0.1666667E+00  0.0000000E+00  0.1388889E-01
    1      -13.388253
    2      -13.189576
    3      -13.188904
    4      -12.972055
    5      -12.411423
    6      -12.223845
    7      -12.223189
    8      -12.019711
    9      -11.451658
   10      -11.275317
   11      -11.274604
   12      -11.084399
   13       -8.758770
   14       -8.624565
   15       -8.624107
   16       -8.484970
   17       -6.845010
   18       -6.755743
   19       -6.752596
   20       -6.658026
   21       -4.526413
   22       -4.458406
   23       -4.456356
   24       -4.378111
   25       -4.368556
   26       -4.288952
   27       -4.287032
   28       -4.206405
   29       -3.388514
   30       -3.304653
   31       -3.302917
   32       -3.216019
   33       -2.328125
   34       -2.274771
   35       -2.273348
   36       -2.214308
   37       -2.193777
   38       -1.285126
   39       -1.236961
   40       -1.233162
   41       -1.176254
   42       -1.105148
   43       -1.103471
   44       -1.030597
   45       -0.785349
   46       -0.739525
   47       -0.736541
   48       -0.689150
   49        0.001592
   50        0.003600
   51        0.098012
   52        0.117890
   53        0.150419
   54        0.155740
   55        0.190699
   56        0.226540
   57        1.071516
   58        1.073247
   59        1.256522
   60        2.232259
   61        3.097576
   62        3.792321
   63        3.794465
   64        4.394072
   65        6.169745
   66        6.442631
   67        6.446492
   68        6.900640
   69        9.158423
   70        9.568524
   71        9.570697
   72       10.005687
   73       10.640895
   74       11.059022
   75       11.061923
   76       11.324506
   77       11.575183
   78       12.474032
   79       12.932952
   80       13.156497
   81       13.161655
   82       13.545595
   83       13.554454
   84       13.714958
 
  0.5000000E+00  0.1666667E+00  0.0000000E+00  0.1388889E-01
    1      -13.389450
    2      -13.190776
    3      -13.190090
    4      -12.973242
    5      -12.409739
    6      -12.222155
    7      -12.221513
    8      -12.018033
    9      -11.452876
   10      -11.276545
   11      -11.275825
   12      -11.085637
   13       -8.756040
   14       -8.621430
   15       -8.620963
   16       -8.481249
   17       -6.840736
   18       -6.750268
   19       -6.748958
   20       -6.653454
   21       -4.534306
   22       -4.466029
   23       -4.465495
   24       -4.386910
   25       -4.377940
   26       -4.298618
   27       -4.295228
   28       -4.214723
   29       -3.392198
   30       -3.308778
   31       -3.306293
   32       -3.219846
   33       -2.317272
   34       -2.264304
   35       -2.261188
   36       -2.202704
   37       -2.195019
   38       -1.283056
   39       -1.234086
   40       -1.232224
   41       -1.174273
   42       -1.106301
   43       -1.104712
   44       -1.028878
   45       -0.781744
   46       -0.736373
   47       -0.732488
   48       -0.685564
   49        0.003285
   50        0.005360
   51        0.096712
   52        0.115865
   53        0.149187
   54        0.152240
   55        0.187929
   56        0.225266
   57        1.070074
   58        1.071845
   59        1.258150
   60        2.230302
   61        3.098002
   62        3.796423
   63        3.797405
   64        4.405488
   65        6.163920
   66        6.443222
   67        6.445353
   68        6.899687
   69        9.154547
   70        9.565158
   71        9.568041
   72       10.005299
   73       10.641983
   74       11.057531
   75       11.061000
   76       11.322711
   77       11.571757
   78       12.476437
   79       12.929483
   80       13.157435
   81       13.162227
   82       13.541743
   83       13.557379
   84       13.712988
 
 -0.3333333E+00  0.1666667E+00  0.0000000E+00  0.1388889E-01
    1      -14.048616
    2      -13.842490
    3      -13.841767
    4      -13.615890
    5      -11.136925
    6      -11.131135
    7      -10.964496
    8      -10.963803
    9      -10.958626
   10      -10.958027
   11      -10.778232
   12      -10.772376
   13       -8.751561
   14       -8.658319
   15       -8.657888
   16       -8.587603
   17       -7.677738
   18       -7.642175
   19       -7.641755
   20       -7.566486
   21       -5.548709
   22       -5.543257
   23       -5.440240
   24       -5.437742
   25       -5.434583
   26       -5.432849
   27       -5.323623
   28       -5.318587
   29       -3.107346
   30       -3.034385
   31       -3.033914
   32       -2.989698
   33       -2.957382
   34       -1.876363
   35       -1.874170
   36       -1.423184
   37       -1.410498
   38       -1.372058
   39       -1.368821
   40       -1.359023
   41       -1.356524
   42       -1.316383
   43       -1.303750
   44       -0.495628
   45        0.437460
   46        0.443360
   47        0.452225
   48        0.478902
   49        0.480036
   50        0.504710
   51        1.137072
   52        1.155176
   53        1.155438
   54        1.176574
   55        1.373832
   56        1.375576
   57        1.380459
   58        1.382713
   59        2.459714
   60        2.468114
   61        2.827901
   62        3.394024
   63        3.394471
   64        3.705965
   65        6.584335
   66        6.587200
   67        6.664710
   68        6.976013
   69        8.337142
   70        8.340568
   71        8.845983
   72        8.849663
   73        8.850141
   74        8.853540
   75        9.530493
   76        9.531682
   77       10.539252
   78       13.174871
   79       13.206790
   80       13.416403
   81       13.422670
   82       13.444043
   83       13.446194
   84       13.477575
 
 -0.1666667E+00  0.1666667E+00  0.0000000E+00  0.1388889E-01
    1      -14.379997
    2      -14.170147
    3      -14.169409
    4      -13.938938
    5      -10.515947
    6      -10.352044
    7      -10.351448
    8      -10.176106
    9       -9.623221
   10       -9.621082
   11       -9.477720
   12       -9.476105
   13       -9.476053
   14       -9.473336
   15       -9.324160
   16       -9.321969
   17       -7.494915
   18       -7.493003
   19       -7.379884
   20       -7.377257
   21       -7.377217
   22       -7.376084
   23       -7.250042
   24       -7.248190
   25       -6.660860
   26       -6.541199
   27       -6.538870
   28       -6.411460
   29       -3.391261
   30       -2.264152
   31       -2.261942
   32       -1.756544
   33       -1.754287
   34       -1.702162
   35       -1.701431
   36       -1.701415
   37       -1.697290
   38       -1.645682
   39       -1.643044
   40       -1.081105
   41       -1.037579
   42       -1.035257
   43       -0.991232
   44       -0.863444
   45        1.094279
   46        1.483004
   47        1.508896
   48        1.514158
   49        1.540402
   50        1.812590
   51        1.834602
   52        1.839479
   53        1.861141
   54        1.944060
   55        1.945845
   56        1.988782
   57        1.990783
   58        2.689630
   59        2.690374
   60        2.690609
   61        2.694622
   62        2.853021
   63        3.284095
   64        3.286110
   65        6.821051
   66        6.823530
   67        7.074557
   68        7.080480
   69        7.080917
   70        7.083006
   71        7.420741
   72        7.774703
   73        7.777829
   74        7.894151
   75        7.898936
   76        8.687014
   77       10.148051
   78       12.392895
   79       12.662443
   80       12.663691
   81       12.939070
   82       12.996922
   83       13.000754
   84       13.146866
 
  0.0000000E+00  0.3333333E+00  0.0000000E+00  0.1388889E-01
    1      -13.882745
    2      -13.678498
    3      -13.677778
    4      -13.454175
    5      -11.926499
    6      -11.744507
    7      -11.743849
    8      -11.547007
    9      -10.058798
   10      -10.054459
   11       -9.901430
   12       -9.899988
   13       -9.896768
   14       -9.894596
   15       -9.731486
   16       -9.726905
   17       -6.321354
   18       -6.312766
   19       -6.211886
   20       -6.211229
   21       -6.202301
   22       -6.201903
   23       -6.094912
   24       -6.086363
   25       -4.530363
   26       -4.429294
   27       -4.428788
   28       -4.323001
   29       -2.918934
   30       -2.905867
   31       -2.850397
   32       -2.848249
   33       -2.836777
   34       -2.835356
   35       -2.789433
   36       -2.775624
   37       -2.762605
   38       -1.683342
   39       -1.681153
   40       -0.623436
   41       -0.580740
   42       -0.580344
   43       -0.537120
   44       -0.469140
   45       -0.313116
   46       -0.170448
   47       -0.119260
   48       -0.118788
   49       -0.067228
   50        0.529539
   51        0.531393
   52        1.000062
   53        1.033246
   54        1.033626
   55        1.067251
   56        1.657931
   57        1.661962
   58        1.726444
   59        2.492074
   60        2.494544
   61        2.497698
   62        2.500726
   63        3.394166
   64        3.403059
   65        7.241230
   66        7.244153
   67        7.651253
   68        7.653678
   69        7.657589
   70        7.660211
   71        8.211280
   72        8.215881
   73        9.528739
   74       10.039092
   75       10.042168
   76       10.716340
   77       10.735397
   78       12.595123
   79       12.870980
   80       12.871458
   81       12.927666
   82       13.315221
   83       13.318995
   84       13.369638
 
  0.1666667E+00  0.3333333E+00  0.0000000E+00  0.1388889E-01
    1      -13.388239
    2      -13.189567
    3      -13.188881
    4      -12.972036
    5      -12.411389
    6      -12.223826
    7      -12.223131
    8      -12.019669
    9      -11.451704
   10      -11.275336
   11      -11.274679
   12      -11.084448
   13       -8.758701
   14       -8.624468
   15       -8.624053
   16       -8.484885
   17       -6.845398
   18       -6.755746
   19       -6.753509
   20       -6.658563
   21       -4.525943
   22       -4.457603
   23       -4.456351
   24       -4.377814
   25       -4.369944
   26       -4.289998
   27       -4.288929
   28       -4.207914
   29       -3.387090
   30       -3.302945
   31       -3.301780
   32       -3.214589
   33       -2.326403
   34       -2.273358
   35       -2.271329
   36       -2.212588
   37       -2.193807
   38       -1.283908
   39       -1.235081
   40       -1.233136
   41       -1.175411
   42       -1.105099
   43       -1.103496
   44       -1.030846
   45       -0.786973
   46       -0.739961
   47       -0.739509
   48       -0.690954
   49        0.001382
   50        0.003301
   51        0.098271
   52        0.117082
   53        0.150418
   54        0.153408
   55        0.189059
   56        0.226468
   57        1.071848
   58        1.073693
   59        1.256170
   60        2.232771
   61        3.098060
   62        3.793275
   63        3.794506
   64        4.394422
   65        6.169308
   66        6.442573
   67        6.445079
   68        6.899820
   69        9.157001
   70        9.567681
   71        9.569116
   72       10.004675
   73       10.642148
   74       11.060192
   75       11.062822
   76       11.324505
   77       11.576134
   78       12.473909
   79       12.933348
   80       13.156656
   81       13.161709
   82       13.544151
   83       13.554653
   84       13.709050
 
  0.3333333E+00  0.3333333E+00  0.0000000E+00  0.1388889E-01
    1      -12.576506
    2      -12.573753
    3      -12.571202
    4      -12.388543
    5      -12.385191
    6      -12.385172
    7      -12.383523
    8      -12.382304
    9      -12.379510
   10      -12.180676
   11      -12.177925
   12      -12.175311
   13       -7.548701
   14       -7.410528
   15       -7.408983
   16       -7.400964
   17       -7.398427
   18       -7.392377
   19       -7.390384
   20       -7.255259
   21       -5.357570
   22       -5.357177
   23       -5.346879
   24       -5.345643
   25       -2.612118
   26       -2.608897
   27       -2.607021
   28       -2.569554
   29       -2.564550
   30       -2.564532
   31       -2.563905
   32       -2.563717
   33       -2.558311
   34       -2.524752
   35       -2.522131
   36       -2.518413
   37       -1.243122
   38       -1.238750
   39       -1.236231
   40       -1.222791
   41       -1.221690
   42       -1.218699
   43       -1.213581
   44       -1.212273
   45       -1.210075
   46       -1.209851
   47       -1.209826
   48       -1.203117
   49       -1.177000
   50       -1.175235
   51       -1.170643
   52       -0.180871
   53       -0.177074
   54       -0.176803
   55       -0.175515
   56       -0.174364
   57       -0.170856
   58        1.093348
   59        1.095816
   60        1.098623
   61        4.299354
   62        5.100574
   63        5.111498
   64        5.134249
   65        5.134819
   66        5.166814
   67        5.167720
   68        6.119172
   69       11.181535
   70       11.184396
   71       11.189804
   72       11.502107
   73       11.506134
   74       11.506520
   75       11.507533
   76       11.508165
   77       11.510969
   78       11.845604
   79       11.851820
   80       11.854834
   81       12.303659
   82       12.305057
   83       12.308896
   84       14.752723
 
  0.5000000E+00  0.3333333E+00  0.0000000E+00  0.1388889E-01
    1      -13.390150
    2      -13.191484
    3      -13.190775
    4      -12.973935
    5      -12.413275
    6      -12.225736
    7      -12.224988
    8      -12.021553
    9      -11.447873
   10      -11.271482
   11      -11.270877
   12      -11.080626
   13       -8.748633
   14       -8.614180
   15       -8.613534
   16       -8.474068
   17       -6.848763
   18       -6.758862
   19       -6.758250
   20       -6.663274
   21       -4.532371
   22       -4.464631
   23       -4.463403
   24       -4.385336
   25       -4.376347
   26       -4.297398
   27       -4.294835
   28       -4.214830
   29       -3.398872
   30       -3.315461
   31       -3.312250
   32       -3.225754
   33       -2.322217
   34       -2.270132
   35       -2.266301
   36       -2.208537
   37       -2.195855
   38       -1.292061
   39       -1.242612
   40       -1.240173
   41       -1.182292
   42       -1.107434
   43       -1.105921
   44       -1.032824
   45       -0.771832
   46       -0.726032
   47       -0.722864
   48       -0.675596
   49       -0.000780
   50        0.001138
   51        0.101982
   52        0.125548
   53        0.159648
   54        0.161426
   55        0.197797
   56        0.224340
   57        1.075414
   58        1.077499
   59        1.253627
   60        2.236358
   61        3.103455
   62        3.801119
   63        3.802588
   64        4.406832
   65        6.171059
   66        6.439188
   67        6.440949
   68        6.886563
   69        9.160254
   70        9.565039
   71        9.567711
   72        9.996630
   73       10.634995
   74       11.054276
   75       11.057474
   76       11.321772
   77       11.574205
   78       12.472024
   79       12.925215
   80       13.154986
   81       13.159908
   82       13.557155
   83       13.572070
   84       13.737209
 
 -0.3333333E+00  0.3333333E+00  0.0000000E+00  0.1388889E-01
    1      -13.883697
    2      -13.679453
    3      -13.678719
    4      -13.455118
    5      -11.930326
    6      -11.748371
    7      -11.747650
    8      -11.550847
    9      -10.051224
   10      -10.049361
   11       -9.893576
   12       -9.892041
   13       -9.891976
   14       -9.889735
   15       -9.723753
   16       -9.721837
   17       -6.320122
   18       -6.318122
   19       -6.211610
   20       -6.208698
   21       -6.208656
   22       -6.207637
   23       -6.094267
   24       -6.092331
   25       -4.540273
   26       -4.440028
   27       -4.437498
   28       -4.332534
   29       -2.917460
   30       -2.915584
   31       -2.848055
   32       -2.847947
   33       -2.847859
   34       -2.843885
   35       -2.790491
   36       -2.774576
   37       -2.772338
   38       -1.684398
   39       -1.682222
   40       -0.607427
   41       -0.565803
   42       -0.563152
   43       -0.521036
   44       -0.473052
   45       -0.314205
   46       -0.182270
   47       -0.132532
   48       -0.128247
   49       -0.078088
   50        0.525292
   51        0.527122
   52        1.012168
   53        1.043846
   54        1.047767
   55        1.079741
   56        1.664051
   57        1.666089
   58        1.721354
   59        2.499929
   60        2.500926
   61        2.501215
   62        2.505230
   63        3.403788
   64        3.406179
   65        7.243665
   66        7.246494
   67        7.649890
   68        7.655145
   69        7.655404
   70        7.656854
   71        8.205068
   72        8.207875
   73        9.521431
   74       10.032183
   75       10.035971
   76       10.713309
   77       10.733821
   78       12.620777
   79       12.900395
   80       12.901827
   81       12.943745
   82       13.323572
   83       13.328427
   84       13.384667
 
 -0.1666667E+00  0.3333333E+00  0.0000000E+00  0.1388889E-01
    1      -14.048604
    2      -13.842484
    3      -13.841748
    4      -13.615877
    5      -11.137353
    6      -11.130774
    7      -10.965351
    8      -10.964311
    9      -10.958503
   10      -10.956787
   11      -10.778610
   12      -10.771936
   13       -8.750775
   14       -8.658287
   15       -8.656318
   16       -8.586860
   17       -7.679520
   18       -7.645089
   19       -7.642152
   20       -7.568105
   21       -5.549278
   22       -5.541985
   23       -5.440263
   24       -5.439638
   25       -5.432886
   26       -5.431038
   27       -5.324171
   28       -5.317147
   29       -3.106286
   30       -3.034357
   31       -3.031711
   32       -2.989729
   33       -2.956205
   34       -1.876397
   35       -1.874212
   36       -1.424518
   37       -1.410290
   38       -1.372087
   39       -1.371760
   40       -1.358218
   41       -1.356523
   42       -1.317765
   43       -1.303449
   44       -0.495678
   45        0.437831
   46        0.443228
   47        0.453685
   48        0.478904
   49        0.484501