 vasp.5.3.5 31Mar14 (build Nov 02 2014 15:17:37) complex                        
  
 executed on        ion-Intel-MKL date 2016.08.31  08:29:12
 running on    6 total cores
 distrk:  each k-point on    6 cores,    1 groups
 distr:  one band on NCORES_PER_BAND=   1 cores,    6 groups


--------------------------------------------------------------------------------------------------------


 INCAR:
 POTCAR:   PAW_PBE C 08Apr2002                    

 ----------------------------------------------------------------------------- 
|                                                                             |
|           W    W    AA    RRRRR   N    N  II  N    N   GGGG   !!!           |
|           W    W   A  A   R    R  NN   N  II  NN   N  G    G  !!!           |
|           W    W  A    A  R    R  N N  N  II  N N  N  G       !!!           |
|           W WW W  AAAAAA  RRRRR   N  N N  II  N  N N  G  GGG   !            |
|           WW  WW  A    A  R   R   N   NN  II  N   NN  G    G                |
|           W    W  A    A  R    R  N    N  II  N    N   GGGG   !!!           |
|                                                                             |
|      For optimal performance we recommend to set                            |
|        NCORE= 4 - approx SQRT( number of cores)                             |
|      NCORE specifies how many cores store one orbital (NPAR=cpu/NCORE).     |
|      This setting can  greatly improve the performance of VASP for DFT.     |
|      The default, NPAR=number of cores might be grossly inefficient         |
|      on modern multi-core architectures or massively parallel machines.     |
|      Do your own testing !!!!                                               |
|      Unfortunately you need to use the default for GW and RPA calculations. |
|      (for HF NCORE is supported but not extensively tested yet)             |
|                                                                             |
 ----------------------------------------------------------------------------- 

 POTCAR:   PAW_PBE C 08Apr2002                    
   VRHFIN =C: s2p2                                                              
   LEXCH  = PE                                                                  
   EATOM  =   147.1560 eV,   10.8157 Ry                                         
                                                                                
   TITEL  = PAW_PBE C 08Apr2002                                                 
   LULTRA =        F    use ultrasoft PP ?                                      
   IUNSCR =        0    unscreen: 0-lin 1-nonlin 2-no                           
   RPACOR =     .000    partial core radius                                     
   POMASS =   12.011; ZVAL   =    4.000    mass and valenz                      
   RCORE  =    1.500    outmost cutoff radius                                   
   RWIGS  =    1.630; RWIGS  =     .863    wigner-seitz radius (au A)           
   ENMAX  =  400.000; ENMIN  =  300.000 eV                                      
   ICORE  =        2    local potential                                         
   LCOR   =        T    correct aug charges                                     
   LPAW   =        T    paw PP                                                  
   EAUG   =  644.873                                                            
   DEXC   =     .000                                                            
   RMAX   =    2.266    core radius for proj-oper                               
   RAUG   =    1.300    factor for augmentation sphere                          
   RDEP   =    1.501    radius for radial grids                                 
   RDEPT  =    1.300    core radius for aug-charge                              
   QCUT   =   -5.516; QGAM   =   11.032    optimization parameters              
                                                                                
   Description                                                                  
     l     E      TYP  RCUT    TYP  RCUT                                        
     0   .000     23  1.200                                                     
     0   .000     23  1.200                                                     
     1   .000     23  1.500                                                     
     1  2.500     23  1.500                                                     
     2   .000      7  1.500                                                     
  local pseudopotential read in
  atomic valenz-charges read in
  non local Contribution for L=           0  read in
    real space projection operators read in
  non local Contribution for L=           0  read in
    real space projection operators read in
  non local Contribution for L=           1  read in
    real space projection operators read in
  non local Contribution for L=           1  read in
    real space projection operators read in
    PAW grid and wavefunctions read in
 
   number of l-projection  operators is LMAX  =           4
   number of lm-projection operators is LMMAX =           8
 

 ----------------------------------------------------------------------------- 
|                                                                             |
|  ADVICE TO THIS USER RUNNING 'VASP/VAMP'   (HEAR YOUR MASTER'S VOICE ...):  |
|                                                                             |
|      You have a (more or less) 'large supercell' and for larger cells       |
|      it might be more efficient to use real space projection operators      |
|      So try LREAL= Auto  in the INCAR   file.                               |
|      Mind: If you want to do a very accurate calculations keep the          |
|      reciprocal projection scheme          (i.e. LREAL=.FALSE.)             |
|                                                                             |
 ----------------------------------------------------------------------------- 

 PAW_PBE C 08Apr2002                    :
 energy of atom  1       EATOM= -147.1560
 kinetic energy error for atom=    0.0057 (will be added to EATOM!!)
 
 
 POSCAR: C                                       
  positions in direct lattice
  No initial velocities read in
 exchange correlation table for  LEXCH =        8
   RHO(1)=    0.500       N(1)  =     2000
   RHO(2)=  100.500       N(2)  =     4000
 


--------------------------------------------------------------------------------------------------------


 ion  position               nearest neighbor table
   1  0.500  0.000  0.125-  18 1.42  19 1.42  20 1.42
   2  1.000  0.000  0.125-  20 1.42  17 1.42  19 1.42
   3  0.500  0.500  0.125-  17 1.42  20 1.42  18 1.42
   4  1.000  0.500  0.125-  19 1.42  18 1.42  17 1.43
   5  0.500  0.000  0.625-  22 1.42  23 1.42  24 1.42
   6  1.000  0.000  0.625-  21 1.42  24 1.42  23 1.42
   7  0.500  0.500  0.625-  24 1.42  21 1.42  22 1.42
   8  1.000  0.500  0.625-  23 1.42  22 1.42  21 1.42
   9  0.000  0.500  0.375-  27 1.42  26 1.42  28 1.42
  10  0.500  0.500  0.375-  28 1.42  25 1.42  27 1.42
  11  0.000  1.000  0.375-  25 1.42  28 1.42  26 1.42
  12  0.500  1.000  0.375-  26 1.42  27 1.42  25 1.42
  13  0.000  0.500  0.875-  31 1.42  30 1.42  32 1.42
  14  0.500  0.500  0.875-  32 1.42  29 1.42  31 1.42
  15  0.000  1.000  0.875-  29 1.42  32 1.42  30 1.42
  16  0.500  1.000  0.875-  30 1.42  31 1.42  29 1.42
  17  0.167  0.334  0.126-   3 1.42   2 1.42   4 1.43
  18  0.666  0.334  0.125-   1 1.42   4 1.42   3 1.42
  19  0.166  0.834  0.125-   4 1.42   1 1.42   2 1.42
  20  0.666  0.834  0.125-   3 1.42   2 1.42   1 1.42
  21  0.166  0.334  0.625-   6 1.42   7 1.42   8 1.42
  22  0.666  0.334  0.625-   5 1.42   8 1.42   7 1.42
  23  0.166  0.834  0.625-   8 1.42   5 1.42   6 1.42
  24  0.666  0.834  0.625-   7 1.42   6 1.42   5 1.42
  25  0.334  0.166  0.375-  11 1.42  10 1.42  12 1.42
  26  0.834  0.166  0.375-  12 1.42   9 1.42  11 1.42
  27  0.334  0.666  0.375-   9 1.42  12 1.42  10 1.42
  28  0.834  0.666  0.375-  10 1.42  11 1.42   9 1.42
  29  0.334  0.166  0.875-  15 1.42  14 1.42  16 1.42
  30  0.834  0.166  0.875-  16 1.42  13 1.42  15 1.42
  31  0.334  0.666  0.875-  13 1.42  16 1.42  14 1.42
  32  0.834  0.666  0.875-  14 1.42  15 1.42  13 1.42
 
  LATTYP: Found a base centered orthorhombic cell.
 ALAT       =     4.9295501972
 B/A-ratio  =     1.7336081796
 C/A-ratio  =     2.5829864569
  
  Lattice vectors:
  
 A1 = (   4.9328744980,  -0.0019192860,   0.0000000000)
 A2 = (  -2.4680993993,   4.2710349859,   0.0000000000)
 A3 = (   0.0000000000,   0.0000000000,  12.7329613980)


Analysis of symmetry for initial positions (statically):
=====================================================================
 Subroutine PRICEL returns:
 Original cell was already a primitive cell.
 

 Routine SETGRP: Setting up the symmetry group for a 
 base centered orthorhombic supercell.


 Subroutine GETGRP returns: Found  1 space group operations
 (whereof  1 operations were pure point group operations)
 out of a pool of  8 trial point group operations.


The static configuration has the point symmetry C_1 .


Analysis of symmetry for dynamics (positions and initial velocities):
=====================================================================
 Subroutine PRICEL returns:
 Original cell was already a primitive cell.
 

 Routine SETGRP: Setting up the symmetry group for a 
 base centered orthorhombic supercell.


 Subroutine GETGRP returns: Found  1 space group operations
 (whereof  1 operations were pure point group operations)
 out of a pool of  8 trial point group operations.


The dynamic configuration has the point symmetry C_1 .
 
 
 KPOINTS: B4C B11C-CBC                            

Automatic generation of k-mesh.
Space group operators:
 irot       det(A)        alpha          n_x          n_y          n_z        tau_x        tau_y        tau_z
    1     1.000000     0.000001     1.000000     0.000000     0.000000     0.000000     0.000000     0.000000
 
 Subroutine IBZKPT returns following result:
 ===========================================
 
 Found    163 irreducible k-points:
 
 Following reciprocal coordinates:
            Coordinates               Weight
  0.000000  0.000000  0.000000      1.000000
  0.111111  0.000000  0.000000      2.000000
  0.222222  0.000000  0.000000      2.000000
  0.333333  0.000000  0.000000      2.000000
  0.444444  0.000000  0.000000      2.000000
 -0.000000  0.111111  0.000000      2.000000
  0.111111  0.111111  0.000000      2.000000
  0.222222  0.111111  0.000000      2.000000
  0.333333  0.111111  0.000000      2.000000
  0.444444  0.111111  0.000000      2.000000
 -0.444444  0.111111  0.000000      2.000000
 -0.333333  0.111111  0.000000      2.000000
 -0.222222  0.111111  0.000000      2.000000
 -0.111111  0.111111  0.000000      2.000000
 -0.000000  0.222222  0.000000      2.000000
  0.111111  0.222222  0.000000      2.000000
  0.222222  0.222222  0.000000      2.000000
  0.333333  0.222222  0.000000      2.000000
  0.444444  0.222222  0.000000      2.000000
 -0.444444  0.222222  0.000000      2.000000
 -0.333333  0.222222  0.000000      2.000000
 -0.222222  0.222222  0.000000      2.000000
 -0.111111  0.222222  0.000000      2.000000
 -0.000000  0.333333  0.000000      2.000000
  0.111111  0.333333  0.000000      2.000000
  0.222222  0.333333  0.000000      2.000000
  0.333333  0.333333  0.000000      2.000000
  0.444444  0.333333  0.000000      2.000000
 -0.444444  0.333333  0.000000      2.000000
 -0.333333  0.333333  0.000000      2.000000
 -0.222222  0.333333  0.000000      2.000000
 -0.111111  0.333333  0.000000      2.000000
 -0.000000  0.444444  0.000000      2.000000
  0.111111  0.444444  0.000000      2.000000
  0.222222  0.444444  0.000000      2.000000
  0.333333  0.444444  0.000000      2.000000
  0.444444  0.444444  0.000000      2.000000
 -0.444444  0.444444  0.000000      2.000000
 -0.333333  0.444444  0.000000      2.000000
 -0.222222  0.444444  0.000000      2.000000
 -0.111111  0.444444  0.000000      2.000000
  0.000000  0.000000  0.250000      2.000000
  0.111111  0.000000  0.250000      2.000000
  0.222222  0.000000  0.250000      2.000000
  0.333333  0.000000  0.250000      2.000000
  0.444444  0.000000  0.250000      2.000000
 -0.444444  0.000000  0.250000      2.000000
 -0.333333 -0.000000  0.250000      2.000000
 -0.222222  0.000000  0.250000      2.000000
 -0.111111  0.000000  0.250000      2.000000
 -0.000000  0.111111  0.250000      2.000000
  0.111111  0.111111  0.250000      2.000000
  0.222222  0.111111  0.250000      2.000000
  0.333333  0.111111  0.250000      2.000000
  0.444444  0.111111  0.250000      2.000000
 -0.444444  0.111111  0.250000      2.000000
 -0.333333  0.111111  0.250000      2.000000
 -0.222222  0.111111  0.250000      2.000000
 -0.111111  0.111111  0.250000      2.000000
 -0.000000  0.222222  0.250000      2.000000
  0.111111  0.222222  0.250000      2.000000
  0.222222  0.222222  0.250000      2.000000
  0.333333  0.222222  0.250000      2.000000
  0.444444  0.222222  0.250000      2.000000
 -0.444444  0.222222  0.250000      2.000000
 -0.333333  0.222222  0.250000      2.000000
 -0.222222  0.222222  0.250000      2.000000
 -0.111111  0.222222  0.250000      2.000000
 -0.000000  0.333333  0.250000      2.000000
  0.111111  0.333333  0.250000      2.000000
  0.222222  0.333333  0.250000      2.000000
  0.333333  0.333333  0.250000      2.000000
  0.444444  0.333333  0.250000      2.000000
 -0.444444  0.333333  0.250000      2.000000
 -0.333333  0.333333  0.250000      2.000000
 -0.222222  0.333333  0.250000      2.000000
 -0.111111  0.333333  0.250000      2.000000
 -0.000000  0.444444  0.250000      2.000000
  0.111111  0.444444  0.250000      2.000000
  0.222222  0.444444  0.250000      2.000000
  0.333333  0.444444  0.250000      2.000000
  0.444444  0.444444  0.250000      2.000000
 -0.444444  0.444444  0.250000      2.000000
 -0.333333  0.444444  0.250000      2.000000
 -0.222222  0.444444  0.250000      2.000000
 -0.111111  0.444444  0.250000      2.000000
  0.000000 -0.444444  0.250000      2.000000
  0.111111 -0.444444  0.250000      2.000000
  0.222222 -0.444444  0.250000      2.000000
  0.333333 -0.444444  0.250000      2.000000
  0.444444 -0.444444  0.250000      2.000000
 -0.444444 -0.444444  0.250000      2.000000
 -0.333333 -0.444444  0.250000      2.000000
 -0.222222 -0.444444  0.250000      2.000000
 -0.111111 -0.444444  0.250000      2.000000
  0.000000 -0.333333  0.250000      2.000000
  0.111111 -0.333333  0.250000      2.000000
  0.222222 -0.333333  0.250000      2.000000
  0.333333 -0.333333  0.250000      2.000000
  0.444444 -0.333333  0.250000      2.000000
 -0.444444 -0.333333  0.250000      2.000000
 -0.333333 -0.333333  0.250000      2.000000
 -0.222222 -0.333333  0.250000      2.000000
 -0.111111 -0.333333  0.250000      2.000000
  0.000000 -0.222222  0.250000      2.000000
  0.111111 -0.222222  0.250000      2.000000
  0.222222 -0.222222  0.250000      2.000000
  0.333333 -0.222222  0.250000      2.000000
  0.444444 -0.222222  0.250000      2.000000
 -0.444444 -0.222222  0.250000      2.000000
 -0.333333 -0.222222  0.250000      2.000000
 -0.222222 -0.222222  0.250000      2.000000
 -0.111111 -0.222222  0.250000      2.000000
  0.000000 -0.111111  0.250000      2.000000
  0.111111 -0.111111  0.250000      2.000000
  0.222222 -0.111111  0.250000      2.000000
  0.333333 -0.111111  0.250000      2.000000
  0.444444 -0.111111  0.250000      2.000000
 -0.444444 -0.111111  0.250000      2.000000
 -0.333333 -0.111111  0.250000      2.000000
 -0.222222 -0.111111  0.250000      2.000000
 -0.111111 -0.111111  0.250000      2.000000
  0.000000  0.000000  0.500000      1.000000
  0.111111  0.000000  0.500000      2.000000
  0.222222  0.000000  0.500000      2.000000
  0.333333  0.000000  0.500000      2.000000
  0.444444  0.000000  0.500000      2.000000
 -0.000000  0.111111  0.500000      2.000000
  0.111111  0.111111  0.500000      2.000000
  0.222222  0.111111  0.500000      2.000000
  0.333333  0.111111  0.500000      2.000000
  0.444444  0.111111  0.500000      2.000000
 -0.444444  0.111111  0.500000      2.000000
 -0.333333  0.111111  0.500000      2.000000
 -0.222222  0.111111  0.500000      2.000000
 -0.111111  0.111111  0.500000      2.000000
 -0.000000  0.222222  0.500000      2.000000
  0.111111  0.222222  0.500000      2.000000
  0.222222  0.222222  0.500000      2.000000
  0.333333  0.222222  0.500000      2.000000
  0.444444  0.222222  0.500000      2.000000
 -0.444444  0.222222  0.500000      2.000000
 -0.333333  0.222222  0.500000      2.000000
 -0.222222  0.222222  0.500000      2.000000
 -0.111111  0.222222  0.500000      2.000000
 -0.000000  0.333333  0.500000      2.000000
  0.111111  0.333333  0.500000      2.000000
  0.222222  0.333333  0.500000      2.000000
  0.333333  0.333333  0.500000      2.000000
  0.444444  0.333333  0.500000      2.000000
 -0.444444  0.333333  0.500000      2.000000
 -0.333333  0.333333  0.500000      2.000000
 -0.222222  0.333333  0.500000      2.000000
 -0.111111  0.333333  0.500000      2.000000
 -0.000000  0.444444  0.500000      2.000000
  0.111111  0.444444  0.500000      2.000000
  0.222222  0.444444  0.500000      2.000000
  0.333333  0.444444  0.500000      2.000000
  0.444444  0.444444  0.500000      2.000000
 -0.444444  0.444444  0.500000      2.000000
 -0.333333  0.444444  0.500000      2.000000
 -0.222222  0.444444  0.500000      2.000000
 -0.111111  0.444444  0.500000      2.000000
 
 Following cartesian coordinates:
            Coordinates               Weight
  0.000000  0.000000  0.000000      1.000000
  0.022530  0.013019  0.000000      2.000000
  0.045059  0.026038  0.000000      2.000000
  0.067589  0.039058  0.000000      2.000000
  0.090119  0.052077  0.000000      2.000000
  0.000010  0.026021  0.000000      2.000000
  0.022540  0.039040  0.000000      2.000000
  0.045069  0.052059  0.000000      2.000000
  0.067599  0.065079  0.000000      2.000000
  0.090129  0.078098  0.000000      2.000000
 -0.090109 -0.026056  0.000000      2.000000
 -0.067579 -0.013037  0.000000      2.000000
 -0.045049 -0.000018  0.000000      2.000000
 -0.022520  0.013002  0.000000      2.000000
  0.000020  0.052042  0.000000      2.000000
  0.022550  0.065061  0.000000      2.000000
  0.045080  0.078080  0.000000      2.000000
  0.067609  0.091099  0.000000      2.000000
  0.090139  0.104119  0.000000      2.000000
 -0.090098 -0.000035  0.000000      2.000000
 -0.067569  0.012984  0.000000      2.000000
 -0.045039  0.026003  0.000000      2.000000
 -0.022509  0.039023  0.000000      2.000000
  0.000030  0.078063  0.000000      2.000000
  0.022560  0.091082  0.000000      2.000000
  0.045090  0.104101  0.000000      2.000000
  0.067619  0.117120  0.000000      2.000000
  0.090149  0.130139  0.000000      2.000000
 -0.090088  0.025986  0.000000      2.000000
 -0.067559  0.039005  0.000000      2.000000
 -0.045029  0.052024  0.000000      2.000000
 -0.022499  0.065043  0.000000      2.000000
  0.000040  0.104084  0.000000      2.000000
  0.022570  0.117103  0.000000      2.000000
  0.045100  0.130122  0.000000      2.000000
  0.067630  0.143141  0.000000      2.000000
  0.090159  0.156160  0.000000      2.000000
 -0.090078  0.052007  0.000000      2.000000
 -0.067549  0.065026  0.000000      2.000000
 -0.045019  0.078045  0.000000      2.000000
 -0.022489  0.091064  0.000000      2.000000
  0.000000  0.000000  0.019634      2.000000
  0.022530  0.013019  0.019634      2.000000
  0.045059  0.026038  0.019634      2.000000
  0.067589  0.039058  0.019634      2.000000
  0.090119  0.052077  0.019634      2.000000
 -0.090119 -0.052077  0.019634      2.000000
 -0.067589 -0.039058  0.019634      2.000000
 -0.045059 -0.026038  0.019634      2.000000
 -0.022530 -0.013019  0.019634      2.000000
  0.000010  0.026021  0.019634      2.000000
  0.022540  0.039040  0.019634      2.000000
  0.045069  0.052059  0.019634      2.000000
  0.067599  0.065079  0.019634      2.000000
  0.090129  0.078098  0.019634      2.000000
 -0.090109 -0.026056  0.019634      2.000000
 -0.067579 -0.013037  0.019634      2.000000
 -0.045049 -0.000018  0.019634      2.000000
 -0.022520  0.013002  0.019634      2.000000
  0.000020  0.052042  0.019634      2.000000
  0.022550  0.065061  0.019634      2.000000
  0.045080  0.078080  0.019634      2.000000
  0.067609  0.091099  0.019634      2.000000
  0.090139  0.104119  0.019634      2.000000
 -0.090098 -0.000035  0.019634      2.000000
 -0.067569  0.012984  0.019634      2.000000
 -0.045039  0.026003  0.019634      2.000000
 -0.022509  0.039023  0.019634      2.000000
  0.000030  0.078063  0.019634      2.000000
  0.022560  0.091082  0.019634      2.000000
  0.045090  0.104101  0.019634      2.000000
  0.067619  0.117120  0.019634      2.000000
  0.090149  0.130139  0.019634      2.000000
 -0.090088  0.025986  0.019634      2.000000
 -0.067559  0.039005  0.019634      2.000000
 -0.045029  0.052024  0.019634      2.000000
 -0.022499  0.065043  0.019634      2.000000
  0.000040  0.104084  0.019634      2.000000
  0.022570  0.117103  0.019634      2.000000
  0.045100  0.130122  0.019634      2.000000
  0.067630  0.143141  0.019634      2.000000
  0.090159  0.156160  0.019634      2.000000
 -0.090078  0.052007  0.019634      2.000000
 -0.067549  0.065026  0.019634      2.000000
 -0.045019  0.078045  0.019634      2.000000
 -0.022489  0.091064  0.019634      2.000000
 -0.000040 -0.104084  0.019634      2.000000
  0.022489 -0.091064  0.019634      2.000000
  0.045019 -0.078045  0.019634      2.000000
  0.067549 -0.065026  0.019634      2.000000
  0.090078 -0.052007  0.019634      2.000000
 -0.090159 -0.156160  0.019634      2.000000
 -0.067630 -0.143141  0.019634      2.000000
 -0.045100 -0.130122  0.019634      2.000000
 -0.022570 -0.117103  0.019634      2.000000
 -0.000030 -0.078063  0.019634      2.000000
  0.022499 -0.065043  0.019634      2.000000
  0.045029 -0.052024  0.019634      2.000000
  0.067559 -0.039005  0.019634      2.000000
  0.090088 -0.025986  0.019634      2.000000
 -0.090149 -0.130139  0.019634      2.000000
 -0.067619 -0.117120  0.019634      2.000000
 -0.045090 -0.104101  0.019634      2.000000
 -0.022560 -0.091082  0.019634      2.000000
 -0.000020 -0.052042  0.019634      2.000000
  0.022509 -0.039023  0.019634      2.000000
  0.045039 -0.026003  0.019634      2.000000
  0.067569 -0.012984  0.019634      2.000000
  0.090098  0.000035  0.019634      2.000000
 -0.090139 -0.104119  0.019634      2.000000
 -0.067609 -0.091099  0.019634      2.000000
 -0.045080 -0.078080  0.019634      2.000000
 -0.022550 -0.065061  0.019634      2.000000
 -0.000010 -0.026021  0.019634      2.000000
  0.022520 -0.013002  0.019634      2.000000
  0.045049  0.000018  0.019634      2.000000
  0.067579  0.013037  0.019634      2.000000
  0.090109  0.026056  0.019634      2.000000
 -0.090129 -0.078098  0.019634      2.000000
 -0.067599 -0.065079  0.019634      2.000000
 -0.045069 -0.052059  0.019634      2.000000
 -0.022540 -0.039040  0.019634      2.000000
  0.000000  0.000000  0.039268      1.000000
  0.022530  0.013019  0.039268      2.000000
  0.045059  0.026038  0.039268      2.000000
  0.067589  0.039058  0.039268      2.000000
  0.090119  0.052077  0.039268      2.000000
  0.000010  0.026021  0.039268      2.000000
  0.022540  0.039040  0.039268      2.000000
  0.045069  0.052059  0.039268      2.000000
  0.067599  0.065079  0.039268      2.000000
  0.090129  0.078098  0.039268      2.000000
 -0.090109 -0.026056  0.039268      2.000000
 -0.067579 -0.013037  0.039268      2.000000
 -0.045049 -0.000018  0.039268      2.000000
 -0.022520  0.013002  0.039268      2.000000
  0.000020  0.052042  0.039268      2.000000
  0.022550  0.065061  0.039268      2.000000
  0.045080  0.078080  0.039268      2.000000
  0.067609  0.091099  0.039268      2.000000
  0.090139  0.104119  0.039268      2.000000
 -0.090098 -0.000035  0.039268      2.000000
 -0.067569  0.012984  0.039268      2.000000
 -0.045039  0.026003  0.039268      2.000000
 -0.022509  0.039023  0.039268      2.000000
  0.000030  0.078063  0.039268      2.000000
  0.022560  0.091082  0.039268      2.000000
  0.045090  0.104101  0.039268      2.000000
  0.067619  0.117120  0.039268      2.000000
  0.090149  0.130139  0.039268      2.000000
 -0.090088  0.025986  0.039268      2.000000
 -0.067559  0.039005  0.039268      2.000000
 -0.045029  0.052024  0.039268      2.000000
 -0.022499  0.065043  0.039268      2.000000
  0.000040  0.104084  0.039268      2.000000
  0.022570  0.117103  0.039268      2.000000
  0.045100  0.130122  0.039268      2.000000
  0.067630  0.143141  0.039268      2.000000
  0.090159  0.156160  0.039268      2.000000
 -0.090078  0.052007  0.039268      2.000000
 -0.067549  0.065026  0.039268      2.000000
 -0.045019  0.078045  0.039268      2.000000
 -0.022489  0.091064  0.039268      2.000000
 
 TETIRR: Found    970 inequivalent tetrahedra from     1944


--------------------------------------------------------------------------------------------------------




 Dimension of arrays:
   k-points           NKPTS =    163   k-points in BZ     NKDIM =    163   number of bands    NBANDS=     84
   number of dos      NEDOS =    301   number of ions     NIONS =     32
   non local maximal  LDIM  =      4   non local SUM 2l+1 LMDIM =      8
   total plane-waves  NPLWV = 172800
   max r-space proj   IRMAX =      1   max aug-charges    IRDMAX=   7802
   dimension x,y,z NGX =    40 NGY =   40 NGZ =  108
   dimension x,y,z NGXF=    80 NGYF=   80 NGZF=  216
   support grid    NGXF=    80 NGYF=   80 NGZF=  216
   ions per type =              32
 NGX,Y,Z   is equivalent  to a cutoff of  13.48, 13.48, 14.10 a.u.
 NGXF,Y,Z  is equivalent  to a cutoff of  26.96, 26.96, 28.20 a.u.


 I would recommend the setting:
   dimension x,y,z NGX =    39 NGY =   39 NGZ =  102
 SYSTEM =  graphite                                
 POSCAR =  C                                       

 Startparameter for this run:
   NWRITE =      2    write-flag & timer
   PREC   = accura    normal or accurate (medium, high low for compatibility)
   ISTART =      0    job   : 0-new  1-cont  2-samecut
   ICHARG =      2    charge: 1-file 2-atom 10-const
   ISPIN  =      1    spin polarized calculation?
   LNONCOLLINEAR =      F non collinear calculations
   LSORBIT =      F    spin-orbit coupling
   INIWAV =      1    electr: 0-lowe 1-rand  2-diag
   LASPH  =      F    aspherical Exc in radial PAW
   METAGGA=      F    non-selfconsistent MetaGGA calc.

 Electronic Relaxation 1
   ENCUT  =  600.0 eV  44.10 Ry    6.64 a.u.   9.85  9.85 25.43*2*pi/ulx,y,z
   ENINI  =  600.0     initial cutoff
   ENAUG  =  644.9 eV  augmentation charge cutoff
   NELM   =    200;   NELMIN=  2; NELMDL=  0     # of ELM steps 
   EDIFF  = 0.1E-05   stopping-criterion for ELM
   LREAL  =      F    real-space projection
   NLSPLINE    = F    spline interpolate recip. space projectors
   LCOMPAT=      F    compatible to vasp.4.4
   GGA_COMPAT  = T    GGA compatible to vasp.4.4-vasp.4.6
   LMAXPAW     = -100 max onsite density
   LMAXMIX     =    2 max onsite mixed and CHGCAR
   VOSKOWN=      0    Vosko Wilk Nusair interpolation
   ROPT   =    0.00000
 Ionic relaxation
   EDIFFG = 0.1E-02   stopping-criterion for IOM
   NSW    =      0    number of steps for IOM
   NBLOCK =      1;   KBLOCK =      1    inner block; outer block 
   IBRION =     -1    ionic relax: 0-MD 1-quasi-New 2-CG
   NFREE  =      0    steps in history (QN), initial steepest desc. (CG)
   ISIF   =      2    stress and relaxation
   IWAVPR =     10    prediction:  0-non 1-charg 2-wave 3-comb
   ISYM   =      2    0-nonsym 1-usesym 2-fastsym
   LCORR  =      T    Harris-Foulkes like correction to forces

   POTIM  = 0.5000    time-step for ionic-motion
   TEIN   =    0.0    initial temperature
   TEBEG  =    0.0;   TEEND  =   0.0 temperature during run
   SMASS  =  -3.00    Nose mass-parameter (am)
   estimated Nose-frequenzy (Omega)   =  0.10E-29 period in steps =****** mass=  -0.556E-27a.u.
   SCALEE = 1.0000    scale energy and forces
   NPACO  =    256;   APACO  = 16.0  distance and # of slots for P.C.
   PSTRESS=    0.0 pullay stress

  Mass of Ions in am
   POMASS =  12.01
  Ionic Valenz
   ZVAL   =   4.00
  Atomic Wigner-Seitz radii
   RWIGS  =  -1.00
  virtual crystal weights 
   VCA    =   1.00
   NELECT =     128.0000    total number of electrons
   NUPDOWN=      -1.0000    fix difference up-down

 DOS related values:
   EMIN   =  10.00;   EMAX   =-10.00  energy-range for DOS
   EFERMI =   0.00
   ISMEAR =    -5;   SIGMA  =   0.20  broadening in eV -4-tet -1-fermi 0-gaus

 Electronic relaxation 2 (details)
   IALGO  =     38    algorithm
   LDIAG  =      T    sub-space diagonalisation (order eigenvalues)
   LSUBROT=      F    optimize rotation matrix (better conditioning)
   TURBO    =      0    0=normal 1=particle mesh
   IRESTART =      0    0=no restart 2=restart with 2 vectors
   NREBOOT  =      0    no. of reboots
   NMIN     =      0    reboot dimension
   EREF     =   0.00    reference energy to select bands
   IMIX   =      4    mixing-type and parameters
     AMIX     =   0.40;   BMIX     =  1.00
     AMIX_MAG =   1.60;   BMIX_MAG =  1.00
     AMIN     =   0.10
     WC   =   100.;   INIMIX=   1;  MIXPRE=   1;  MAXMIX= -45

 Intra band minimization:
   WEIMIN = 0.0000     energy-eigenvalue tresh-hold
   EBREAK =  0.30E-08  absolut break condition
   DEPER  =   0.30     relativ break condition  

   TIME   =   0.40     timestep for ELM

  volume/ion in A,a.u.               =       8.38        56.56
  Fermi-wavevector in a.u.,A,eV,Ry     =   1.279351  2.417624 22.269198  1.636740
  Thomas-Fermi vector in A             =   2.411842
 
 Write flags
   LWAVE  =      F    write WAVECAR
   LCHARG =      F    write CHGCAR
   LVTOT  =      F    write LOCPOT, total local potential
   LVHAR  =      F    write LOCPOT, Hartree potential only
   LELF   =      F    write electronic localiz. function (ELF)
   LORBIT =      0    0 simple, 1 ext, 2 COOP (PROOUT)


 Dipole corrections
   LMONO  =      F    monopole corrections only (constant potential shift)
   LDIPOL =      F    correct potential (dipole corrections)
   IDIPOL =      0    1-x, 2-y, 3-z, 4-all directions 
   EPSILON=  1.0000000 bulk dielectric constant

 Exchange correlation treatment:
   GGA     =    PE    GGA type
   LEXCH   =     8    internal setting for exchange type
   VOSKOWN=      0    Vosko Wilk Nusair interpolation
   LHFCALC =     F    Hartree Fock is set to
   LHFONE  =     F    Hartree Fock one center treatment
   AEXX    =    0.0000 exact exchange contribution

 Linear response parameters
   LEPSILON=     F    determine dielectric tensor
   LRPA    =     F    only Hartree local field effects (RPA)
   LNABLA  =     F    use nabla operator in PAW spheres
   LVEL    =     F    velocity operator in full k-point grid
   LINTERFAST=   F  fast interpolation
   KINTER  =     0    interpolate to denser k-point grid
   CSHIFT  =0.1000    complex shift for real part using Kramers Kronig
   OMEGAMAX=  -1.0    maximum frequency
   DEG_THRESHOLD= 0.2000000E-02 threshold for treating states as degnerate
   RTIME   =    0.100 relaxation time in fs

 Orbital magnetization related:
   ORBITALMAG=     F  switch on orbital magnetization
   LCHIMAG   =     F  perturbation theory with respect to B field
   DQ        =  0.001000  dq finite difference perturbation B field



--------------------------------------------------------------------------------------------------------


 Static calculation
 charge density and potential will be updated during run
 non-spin polarized calculation
 Variant of blocked Davidson
 Davidson routine will perform the subspace rotation
 perform sub-space diagonalisation
    after iterative eigenvector-optimisation
 modified Broyden-mixing scheme, WC =      100.0
 initial mixing is a Kerker type mixing with AMIX =  0.4000 and BMIX =      1.0000
 Hartree-type preconditioning will be used
 using additional bands           20
 reciprocal scheme for non local part
 calculate Harris-corrections to forces 
   (improved forces if not selfconsistent)
 use gradient corrections 
 use of overlap-Matrix (Vanderbilt PP)
 Fermi weights with tetrahedron method with Bloechl corrections


--------------------------------------------------------------------------------------------------------


  energy-cutoff  :      600.00
  volume of cell :      268.20
      direct lattice vectors                 reciprocal lattice vectors
     4.932874498 -0.001919286  0.000000000     0.202767147  0.117172881  0.000000000
    -2.468099399  4.271034986  0.000000000     0.000091118  0.234187941  0.000000000
     0.000000000  0.000000000 12.732961398     0.000000000  0.000000000  0.078536325

  length of vectors
     4.932874871  4.932874871 12.732961398     0.234187958  0.234187958  0.078536325


 
 k-points in units of 2pi/SCALE and weight: B4C B11C-CBC                            
   0.00000000  0.00000000  0.00000000       0.003
   0.02252968  0.01301921  0.00000000       0.006
   0.04505937  0.02603842  0.00000000       0.006
   0.06758905  0.03905763  0.00000000       0.006
   0.09011873  0.05207684  0.00000000       0.006
   0.00001012  0.02602088  0.00000000       0.006
   0.02253981  0.03904009  0.00000000       0.006
   0.04506949  0.05205930  0.00000000       0.006
   0.06759917  0.06507851  0.00000000       0.006
   0.09012886  0.07809772  0.00000000       0.006
  -0.09010861 -0.02605595  0.00000000       0.006
  -0.06757892 -0.01303674  0.00000000       0.006
  -0.04504924 -0.00001754  0.00000000       0.006
  -0.02251956  0.01300167  0.00000000       0.006
   0.00002025  0.05204176  0.00000000       0.006
   0.02254993  0.06506097  0.00000000       0.006
   0.04507961  0.07808018  0.00000000       0.006
   0.06760930  0.09109939  0.00000000       0.006
   0.09013898  0.10411860  0.00000000       0.006
  -0.09009848 -0.00003507  0.00000000       0.006
  -0.06756880  0.01298414  0.00000000       0.006
  -0.04503912  0.02600335  0.00000000       0.006
  -0.02250943  0.03902256  0.00000000       0.006
   0.00003037  0.07806265  0.00000000       0.006
   0.02256006  0.09108186  0.00000000       0.006
   0.04508974  0.10410106  0.00000000       0.006
   0.06761942  0.11712027  0.00000000       0.006
   0.09014910  0.13013948  0.00000000       0.006
  -0.09008836  0.02598581  0.00000000       0.006
  -0.06755868  0.03900502  0.00000000       0.006
  -0.04502899  0.05202423  0.00000000       0.006
  -0.02249931  0.06504344  0.00000000       0.006
   0.00004050  0.10408353  0.00000000       0.006
   0.02257018  0.11710274  0.00000000       0.006
   0.04509986  0.13012195  0.00000000       0.006
   0.06762955  0.14314116  0.00000000       0.006
   0.09015923  0.15616037  0.00000000       0.006
  -0.09007824  0.05200669  0.00000000       0.006
  -0.06754855  0.06502590  0.00000000       0.006
  -0.04501887  0.07804511  0.00000000       0.006
  -0.02248919  0.09106432  0.00000000       0.006
   0.00000000  0.00000000  0.01963408       0.006
   0.02252968  0.01301921  0.01963408       0.006
   0.04505937  0.02603842  0.01963408       0.006
   0.06758905  0.03905763  0.01963408       0.006
   0.09011873  0.05207684  0.01963408       0.006
  -0.09011873 -0.05207684  0.01963408       0.006
  -0.06758905 -0.03905763  0.01963408       0.006
  -0.04505937 -0.02603842  0.01963408       0.006
  -0.02252968 -0.01301921  0.01963408       0.006
   0.00001012  0.02602088  0.01963408       0.006
   0.02253981  0.03904009  0.01963408       0.006
   0.04506949  0.05205930  0.01963408       0.006
   0.06759917  0.06507851  0.01963408       0.006
   0.09012886  0.07809772  0.01963408       0.006
  -0.09010861 -0.02605595  0.01963408       0.006
  -0.06757892 -0.01303674  0.01963408       0.006
  -0.04504924 -0.00001754  0.01963408       0.006
  -0.02251956  0.01300167  0.01963408       0.006
   0.00002025  0.05204176  0.01963408       0.006
   0.02254993  0.06506097  0.01963408       0.006
   0.04507961  0.07808018  0.01963408       0.006
   0.06760930  0.09109939  0.01963408       0.006
   0.09013898  0.10411860  0.01963408       0.006
  -0.09009848 -0.00003507  0.01963408       0.006
  -0.06756880  0.01298414  0.01963408       0.006
  -0.04503912  0.02600335  0.01963408       0.006
  -0.02250943  0.03902256  0.01963408       0.006
   0.00003037  0.07806265  0.01963408       0.006
   0.02256006  0.09108186  0.01963408       0.006
   0.04508974  0.10410106  0.01963408       0.006
   0.06761942  0.11712027  0.01963408       0.006
   0.09014910  0.13013948  0.01963408       0.006
  -0.09008836  0.02598581  0.01963408       0.006
  -0.06755868  0.03900502  0.01963408       0.006
  -0.04502899  0.05202423  0.01963408       0.006
  -0.02249931  0.06504344  0.01963408       0.006
   0.00004050  0.10408353  0.01963408       0.006
   0.02257018  0.11710274  0.01963408       0.006
   0.04509986  0.13012195  0.01963408       0.006
   0.06762955  0.14314116  0.01963408       0.006
   0.09015923  0.15616037  0.01963408       0.006
  -0.09007824  0.05200669  0.01963408       0.006
  -0.06754855  0.06502590  0.01963408       0.006
  -0.04501887  0.07804511  0.01963408       0.006
  -0.02248919  0.09106432  0.01963408       0.006
  -0.00004050 -0.10408353  0.01963408       0.006
   0.02248919 -0.09106432  0.01963408       0.006
   0.04501887 -0.07804511  0.01963408       0.006
   0.06754855 -0.06502590  0.01963408       0.006
   0.09007824 -0.05200669  0.01963408       0.006
  -0.09015923 -0.15616037  0.01963408       0.006
  -0.06762955 -0.14314116  0.01963408       0.006
  -0.04509986 -0.13012195  0.01963408       0.006
  -0.02257018 -0.11710274  0.01963408       0.006
  -0.00003037 -0.07806265  0.01963408       0.006
   0.02249931 -0.06504344  0.01963408       0.006
   0.04502899 -0.05202423  0.01963408       0.006
   0.06755868 -0.03900502  0.01963408       0.006
   0.09008836 -0.02598581  0.01963408       0.006
  -0.09014910 -0.13013948  0.01963408       0.006
  -0.06761942 -0.11712027  0.01963408       0.006
  -0.04508974 -0.10410106  0.01963408       0.006
  -0.02256006 -0.09108186  0.01963408       0.006
  -0.00002025 -0.05204176  0.01963408       0.006
   0.02250943 -0.03902256  0.01963408       0.006
   0.04503912 -0.02600335  0.01963408       0.006
   0.06756880 -0.01298414  0.01963408       0.006
   0.09009848  0.00003507  0.01963408       0.006
  -0.09013898 -0.10411860  0.01963408       0.006
  -0.06760930 -0.09109939  0.01963408       0.006
  -0.04507961 -0.07808018  0.01963408       0.006
  -0.02254993 -0.06506097  0.01963408       0.006
  -0.00001012 -0.02602088  0.01963408       0.006
   0.02251956 -0.01300167  0.01963408       0.006
   0.04504924  0.00001754  0.01963408       0.006
   0.06757892  0.01303674  0.01963408       0.006
   0.09010861  0.02605595  0.01963408       0.006
  -0.09012886 -0.07809772  0.01963408       0.006
  -0.06759917 -0.06507851  0.01963408       0.006
  -0.04506949 -0.05205930  0.01963408       0.006
  -0.02253981 -0.03904009  0.01963408       0.006
   0.00000000  0.00000000  0.03926816       0.003
   0.02252968  0.01301921  0.03926816       0.006
   0.04505937  0.02603842  0.03926816       0.006
   0.06758905  0.03905763  0.03926816       0.006
   0.09011873  0.05207684  0.03926816       0.006
   0.00001012  0.02602088  0.03926816       0.006
   0.02253981  0.03904009  0.03926816       0.006
   0.04506949  0.05205930  0.03926816       0.006
   0.06759917  0.06507851  0.03926816       0.006
   0.09012886  0.07809772  0.03926816       0.006
  -0.09010861 -0.02605595  0.03926816       0.006
  -0.06757892 -0.01303674  0.03926816       0.006
  -0.04504924 -0.00001754  0.03926816       0.006
  -0.02251956  0.01300167  0.03926816       0.006
   0.00002025  0.05204176  0.03926816       0.006
   0.02254993  0.06506097  0.03926816       0.006
   0.04507961  0.07808018  0.03926816       0.006
   0.06760930  0.09109939  0.03926816       0.006
   0.09013898  0.10411860  0.03926816       0.006
  -0.09009848 -0.00003507  0.03926816       0.006
  -0.06756880  0.01298414  0.03926816       0.006
  -0.04503912  0.02600335  0.03926816       0.006
  -0.02250943  0.03902256  0.03926816       0.006
   0.00003037  0.07806265  0.03926816       0.006
   0.02256006  0.09108186  0.03926816       0.006
   0.04508974  0.10410106  0.03926816       0.006
   0.06761942  0.11712027  0.03926816       0.006
   0.09014910  0.13013948  0.03926816       0.006
  -0.09008836  0.02598581  0.03926816       0.006
  -0.06755868  0.03900502  0.03926816       0.006
  -0.04502899  0.05202423  0.03926816       0.006
  -0.02249931  0.06504344  0.03926816       0.006
   0.00004050  0.10408353  0.03926816       0.006
   0.02257018  0.11710274  0.03926816       0.006
   0.04509986  0.13012195  0.03926816       0.006
   0.06762955  0.14314116  0.03926816       0.006
   0.09015923  0.15616037  0.03926816       0.006
  -0.09007824  0.05200669  0.03926816       0.006
  -0.06754855  0.06502590  0.03926816       0.006
  -0.04501887  0.07804511  0.03926816       0.006
  -0.02248919  0.09106432  0.03926816       0.006
 
 k-points in reciprocal lattice and weights: B4C B11C-CBC                            
   0.00000000  0.00000000  0.00000000       0.003
   0.11111111  0.00000000  0.00000000       0.006
   0.22222222  0.00000000  0.00000000       0.006
   0.33333333  0.00000000  0.00000000       0.006
   0.44444444  0.00000000  0.00000000       0.006
  -0.00000000  0.11111111  0.00000000       0.006
   0.11111111  0.11111111  0.00000000       0.006
   0.22222222  0.11111111  0.00000000       0.006
   0.33333333  0.11111111  0.00000000       0.006
   0.44444444  0.11111111  0.00000000       0.006
  -0.44444444  0.11111111  0.00000000       0.006
  -0.33333333  0.11111111  0.00000000       0.006
  -0.22222222  0.11111111  0.00000000       0.006
  -0.11111111  0.11111111  0.00000000       0.006
  -0.00000000  0.22222222  0.00000000       0.006
   0.11111111  0.22222222  0.00000000       0.006
   0.22222222  0.22222222  0.00000000       0.006
   0.33333333  0.22222222  0.00000000       0.006
   0.44444444  0.22222222  0.00000000       0.006
  -0.44444444  0.22222222  0.00000000       0.006
  -0.33333333  0.22222222  0.00000000       0.006
  -0.22222222  0.22222222  0.00000000       0.006
  -0.11111111  0.22222222  0.00000000       0.006
  -0.00000000  0.33333333  0.00000000       0.006
   0.11111111  0.33333333  0.00000000       0.006
   0.22222222  0.33333333  0.00000000       0.006
   0.33333333  0.33333333  0.00000000       0.006
   0.44444444  0.33333333  0.00000000       0.006
  -0.44444444  0.33333333  0.00000000       0.006
  -0.33333333  0.33333333  0.00000000       0.006
  -0.22222222  0.33333333  0.00000000       0.006
  -0.11111111  0.33333333  0.00000000       0.006
  -0.00000000  0.44444444  0.00000000       0.006
   0.11111111  0.44444444  0.00000000       0.006
   0.22222222  0.44444444  0.00000000       0.006
   0.33333333  0.44444444  0.00000000       0.006
   0.44444444  0.44444444  0.00000000       0.006
  -0.44444444  0.44444444  0.00000000       0.006
  -0.33333333  0.44444444  0.00000000       0.006
  -0.22222222  0.44444444  0.00000000       0.006
  -0.11111111  0.44444444  0.00000000       0.006
   0.00000000  0.00000000  0.25000000       0.006
   0.11111111  0.00000000  0.25000000       0.006
   0.22222222  0.00000000  0.25000000       0.006
   0.33333333  0.00000000  0.25000000       0.006
   0.44444444  0.00000000  0.25000000       0.006
  -0.44444444  0.00000000  0.25000000       0.006
  -0.33333333 -0.00000000  0.25000000       0.006
  -0.22222222  0.00000000  0.25000000       0.006
  -0.11111111  0.00000000  0.25000000       0.006
  -0.00000000  0.11111111  0.25000000       0.006
   0.11111111  0.11111111  0.25000000       0.006
   0.22222222  0.11111111  0.25000000       0.006
   0.33333333  0.11111111  0.25000000       0.006
   0.44444444  0.11111111  0.25000000       0.006
  -0.44444444  0.11111111  0.25000000       0.006
  -0.33333333  0.11111111  0.25000000       0.006
  -0.22222222  0.11111111  0.25000000       0.006
  -0.11111111  0.11111111  0.25000000       0.006
  -0.00000000  0.22222222  0.25000000       0.006
   0.11111111  0.22222222  0.25000000       0.006
   0.22222222  0.22222222  0.25000000       0.006
   0.33333333  0.22222222  0.25000000       0.006
   0.44444444  0.22222222  0.25000000       0.006
  -0.44444444  0.22222222  0.25000000       0.006
  -0.33333333  0.22222222  0.25000000       0.006
  -0.22222222  0.22222222  0.25000000       0.006
  -0.11111111  0.22222222  0.25000000       0.006
  -0.00000000  0.33333333  0.25000000       0.006
   0.11111111  0.33333333  0.25000000       0.006
   0.22222222  0.33333333  0.25000000       0.006
   0.33333333  0.33333333  0.25000000       0.006
   0.44444444  0.33333333  0.25000000       0.006
  -0.44444444  0.33333333  0.25000000       0.006
  -0.33333333  0.33333333  0.25000000       0.006
  -0.22222222  0.33333333  0.25000000       0.006
  -0.11111111  0.33333333  0.25000000       0.006
  -0.00000000  0.44444444  0.25000000       0.006
   0.11111111  0.44444444  0.25000000       0.006
   0.22222222  0.44444444  0.25000000       0.006
   0.33333333  0.44444444  0.25000000       0.006
   0.44444444  0.44444444  0.25000000       0.006
  -0.44444444  0.44444444  0.25000000       0.006
  -0.33333333  0.44444444  0.25000000       0.006
  -0.22222222  0.44444444  0.25000000       0.006
  -0.11111111  0.44444444  0.25000000       0.006
   0.00000000 -0.44444444  0.25000000       0.006
   0.11111111 -0.44444444  0.25000000       0.006
   0.22222222 -0.44444444  0.25000000       0.006
   0.33333333 -0.44444444  0.25000000       0.006
   0.44444444 -0.44444444  0.25000000       0.006
  -0.44444444 -0.44444444  0.25000000       0.006
  -0.33333333 -0.44444444  0.25000000       0.006
  -0.22222222 -0.44444444  0.25000000       0.006
  -0.11111111 -0.44444444  0.25000000       0.006
   0.00000000 -0.33333333  0.25000000       0.006
   0.11111111 -0.33333333  0.25000000       0.006
   0.22222222 -0.33333333  0.25000000       0.006
   0.33333333 -0.33333333  0.25000000       0.006
   0.44444444 -0.33333333  0.25000000       0.006
  -0.44444444 -0.33333333  0.25000000       0.006
  -0.33333333 -0.33333333  0.25000000       0.006
  -0.22222222 -0.33333333  0.25000000       0.006
  -0.11111111 -0.33333333  0.25000000       0.006
   0.00000000 -0.22222222  0.25000000       0.006
   0.11111111 -0.22222222  0.25000000       0.006
   0.22222222 -0.22222222  0.25000000       0.006
   0.33333333 -0.22222222  0.25000000       0.006
   0.44444444 -0.22222222  0.25000000       0.006
  -0.44444444 -0.22222222  0.25000000       0.006
  -0.33333333 -0.22222222  0.25000000       0.006
  -0.22222222 -0.22222222  0.25000000       0.006
  -0.11111111 -0.22222222  0.25000000       0.006
   0.00000000 -0.11111111  0.25000000       0.006
   0.11111111 -0.11111111  0.25000000       0.006
   0.22222222 -0.11111111  0.25000000       0.006
   0.33333333 -0.11111111  0.25000000       0.006
   0.44444444 -0.11111111  0.25000000       0.006
  -0.44444444 -0.11111111  0.25000000       0.006
  -0.33333333 -0.11111111  0.25000000       0.006
  -0.22222222 -0.11111111  0.25000000       0.006
  -0.11111111 -0.11111111  0.25000000       0.006
   0.00000000  0.00000000  0.50000000       0.003
   0.11111111  0.00000000  0.50000000       0.006
   0.22222222  0.00000000  0.50000000       0.006
   0.33333333  0.00000000  0.50000000       0.006
   0.44444444  0.00000000  0.50000000       0.006
  -0.00000000  0.11111111  0.50000000       0.006
   0.11111111  0.11111111  0.50000000       0.006
   0.22222222  0.11111111  0.50000000       0.006
   0.33333333  0.11111111  0.50000000       0.006
   0.44444444  0.11111111  0.50000000       0.006
  -0.44444444  0.11111111  0.50000000       0.006
  -0.33333333  0.11111111  0.50000000       0.006
  -0.22222222  0.11111111  0.50000000       0.006
  -0.11111111  0.11111111  0.50000000       0.006
  -0.00000000  0.22222222  0.50000000       0.006
   0.11111111  0.22222222  0.50000000       0.006
   0.22222222  0.22222222  0.50000000       0.006
   0.33333333  0.22222222  0.50000000       0.006
   0.44444444  0.22222222  0.50000000       0.006
  -0.44444444  0.22222222  0.50000000       0.006
  -0.33333333  0.22222222  0.50000000       0.006
  -0.22222222  0.22222222  0.50000000       0.006
  -0.11111111  0.22222222  0.50000000       0.006
  -0.00000000  0.33333333  0.50000000       0.006
   0.11111111  0.33333333  0.50000000       0.006
   0.22222222  0.33333333  0.50000000       0.006
   0.33333333  0.33333333  0.50000000       0.006
   0.44444444  0.33333333  0.50000000       0.006
  -0.44444444  0.33333333  0.50000000       0.006
  -0.33333333  0.33333333  0.50000000       0.006
  -0.22222222  0.33333333  0.50000000       0.006
  -0.11111111  0.33333333  0.50000000       0.006
  -0.00000000  0.44444444  0.50000000       0.006
   0.11111111  0.44444444  0.50000000       0.006
   0.22222222  0.44444444  0.50000000       0.006
   0.33333333  0.44444444  0.50000000       0.006
   0.44444444  0.44444444  0.50000000       0.006
  -0.44444444  0.44444444  0.50000000       0.006
  -0.33333333  0.44444444  0.50000000       0.006
  -0.22222222  0.44444444  0.50000000       0.006
  -0.11111111  0.44444444  0.50000000       0.006
 
 position of ions in fractional coordinates (direct lattice) 
   0.49967330  0.00032672  0.12500000
   0.99967330  0.00032672  0.12500000
   0.49967330  0.50032672  0.12500000
   0.99967330  0.50032672  0.12500000
   0.49967330  0.00032672  0.62500000
   0.99967330  0.00032672  0.62500000
   0.49967330  0.50032672  0.62500000
   0.99967330  0.50032672  0.62500000
   0.00032672  0.49967330  0.37500000
   0.50032672  0.49967330  0.37500000
   0.00032672  0.99967330  0.37500000
   0.50032672  0.99967330  0.37500000
   0.00032672  0.49967330  0.87500000
   0.50032672  0.49967330  0.87500000
   0.00032672  0.99967330  0.87500000
   0.50032672  0.99967330  0.87500000
   0.16702479  0.33370753  0.12573233
   0.66629246  0.33370753  0.12500000
   0.16629246  0.83370753  0.12500000
   0.66629246  0.83370753  0.12500000
   0.16629246  0.33370753  0.62500000
   0.66629246  0.33370753  0.62500000
   0.16629246  0.83370753  0.62500000
   0.66629246  0.83370753  0.62500000
   0.33370753  0.16629246  0.37500000
   0.83370753  0.16629246  0.37500000
   0.33370753  0.66629246  0.37500000
   0.83370753  0.66629246  0.37500000
   0.33370753  0.16629246  0.87500000
   0.83370753  0.16629246  0.87500000
   0.33370753  0.66629246  0.87500000
   0.83370753  0.66629246  0.87500000
 
 position of ions in cartesian coordinates  (Angst):
   2.46401933  0.00043641  1.59162017
   4.93045658 -0.00052323  1.59162017
   1.22996963  2.13595390  1.59162017
   3.69640688  2.13499426  1.59162017
   2.46401933  0.00043641  7.95810087
   4.93045658 -0.00052323  7.95810087
   1.22996963  2.13595390  7.95810087
   3.69640688  2.13499426  7.95810087
  -1.23163172  2.13412154  4.77486052
   1.23480553  2.13316189  4.77486052
  -2.46568142  4.26963903  4.77486052
   0.00075583  4.26867939  4.77486052
  -1.23163172  2.13412154 11.14134122
   1.23480553  2.13316189 11.14134122
  -2.46568142  4.26963903 11.14134122
   0.00075583  4.26867939 11.14134122
   0.00028898  1.42495596  1.60094487
   2.46311374  1.42399773  1.59162017
  -1.23737320  3.56047486  1.59162017
   1.22906405  3.55951522  1.59162017
  -0.00332350  1.42495737  7.95810087
   2.46311374  1.42399773  7.95810087
  -1.23737320  3.56047486  7.95810087
   1.22906405  3.55951522  7.95810087
   1.23571103  0.70960044  4.77486052
   3.70214828  0.70864080  4.77486052
   0.00166133  2.84511794  4.77486052
   2.46809858  2.84415829  4.77486052
   1.23571103  0.70960044 11.14134122
   3.70214828  0.70864080 11.14134122
   0.00166133  2.84511794 11.14134122
   2.46809858  2.84415829 11.14134122
 


--------------------------------------------------------------------------------------------------------


 k-point  1 :   0.0000 0.0000 0.0000  plane waves:    8907
 k-point  2 :   0.1111 0.0000 0.0000  plane waves:    8935
 k-point  3 :   0.2222 0.0000 0.0000  plane waves:    8943
 k-point  4 :   0.3333 0.0000 0.0000  plane waves:    8957
 k-point  5 :   0.4444 0.0000 0.0000  plane waves:    8963
 k-point  6 :  -0.0000 0.1111 0.0000  plane waves:    8935
 k-point  7 :   0.1111 0.1111 0.0000  plane waves:    8912
 k-point  8 :   0.2222 0.1111 0.0000  plane waves:    8950
 k-point  9 :   0.3333 0.1111 0.0000  plane waves:    8948
 k-point 10 :   0.4444 0.1111 0.0000  plane waves:    8970
 k-point 11 :  -0.4444 0.1111 0.0000  plane waves:    8948
 k-point 12 :  -0.3333 0.1111 0.0000  plane waves:    8952
 k-point 13 :  -0.2222 0.1111 0.0000  plane waves:    8912
 k-point 14 :  -0.1111 0.1111 0.0000  plane waves:    8937
 k-point 15 :  -0.0000 0.2222 0.0000  plane waves:    8943
 k-point 16 :   0.1111 0.2222 0.0000  plane waves:    8950
 k-point 17 :   0.2222 0.2222 0.0000  plane waves:    8956
 k-point 18 :   0.3333 0.2222 0.0000  plane waves:    8958
 k-point 19 :   0.4444 0.2222 0.0000  plane waves:    8960
 k-point 20 :  -0.4444 0.2222 0.0000  plane waves:    8962
 k-point 21 :  -0.3333 0.2222 0.0000  plane waves:    8956
 k-point 22 :  -0.2222 0.2222 0.0000  plane waves:    8947
 k-point 23 :  -0.1111 0.2222 0.0000  plane waves:    8912
 k-point 24 :  -0.0000 0.3333 0.0000  plane waves:    8957
 k-point 25 :   0.1111 0.3333 0.0000  plane waves:    8948
 k-point 26 :   0.2222 0.3333 0.0000  plane waves:    8958
 k-point 27 :   0.3333 0.3333 0.0000  plane waves:    8958
 k-point 28 :   0.4444 0.3333 0.0000  plane waves:    8960
 k-point 29 :  -0.4444 0.3333 0.0000  plane waves:    8948
 k-point 30 :  -0.3333 0.3333 0.0000  plane waves:    8967
 k-point 31 :  -0.2222 0.3333 0.0000  plane waves:    8956
 k-point 32 :  -0.1111 0.3333 0.0000  plane waves:    8952
 k-point 33 :  -0.0000 0.4444 0.0000  plane waves:    8963
 k-point 34 :   0.1111 0.4444 0.0000  plane waves:    8970
 k-point 35 :   0.2222 0.4444 0.0000  plane waves:    8960
 k-point 36 :   0.3333 0.4444 0.0000  plane waves:    8960
 k-point 37 :   0.4444 0.4444 0.0000  plane waves:    8968
 k-point 38 :  -0.4444 0.4444 0.0000  plane waves:    8961
 k-point 39 :  -0.3333 0.4444 0.0000  plane waves:    8948
 k-point 40 :  -0.2222 0.4444 0.0000  plane waves:    8962
 k-point 41 :  -0.1111 0.4444 0.0000  plane waves:    8948
 k-point 42 :   0.0000 0.0000 0.2500  plane waves:    8913
 k-point 43 :   0.1111 0.0000 0.2500  plane waves:    8919
 k-point 44 :   0.2222 0.0000 0.2500  plane waves:    8956
 k-point 45 :   0.3333 0.0000 0.2500  plane waves:    8967
 k-point 46 :   0.4444 0.0000 0.2500  plane waves:    8956
 k-point 47 :  -0.4444 0.0000 0.2500  plane waves:    8956
 k-point 48 :  -0.3333-0.0000 0.2500  plane waves:    8967
 k-point 49 :  -0.2222 0.0000 0.2500  plane waves:    8956
 k-point 50 :  -0.1111 0.0000 0.2500  plane waves:    8919
 k-point 51 :  -0.0000 0.1111 0.2500  plane waves:    8919
 k-point 52 :   0.1111 0.1111 0.2500  plane waves:    8925
 k-point 53 :   0.2222 0.1111 0.2500  plane waves:    8952
 k-point 54 :   0.3333 0.1111 0.2500  plane waves:    8962
 k-point 55 :   0.4444 0.1111 0.2500  plane waves:    8966
 k-point 56 :  -0.4444 0.1111 0.2500  plane waves:    8960
 k-point 57 :  -0.3333 0.1111 0.2500  plane waves:    8956
 k-point 58 :  -0.2222 0.1111 0.2500  plane waves:    8927
 k-point 59 :  -0.1111 0.1111 0.2500  plane waves:    8915
 k-point 60 :  -0.0000 0.2222 0.2500  plane waves:    8956
 k-point 61 :   0.1111 0.2222 0.2500  plane waves:    8952
 k-point 62 :   0.2222 0.2222 0.2500  plane waves:    8955
 k-point 63 :   0.3333 0.2222 0.2500  plane waves:    8949
 k-point 64 :   0.4444 0.2222 0.2500  plane waves:    8947
 k-point 65 :  -0.4444 0.2222 0.2500  plane waves:    8949
 k-point 66 :  -0.3333 0.2222 0.2500  plane waves:    8953
 k-point 67 :  -0.2222 0.2222 0.2500  plane waves:    8963
 k-point 68 :  -0.1111 0.2222 0.2500  plane waves:    8927
 k-point 69 :  -0.0000 0.3333 0.2500  plane waves:    8967
 k-point 70 :   0.1111 0.3333 0.2500  plane waves:    8962
 k-point 71 :   0.2222 0.3333 0.2500  plane waves:    8949
 k-point 72 :   0.3333 0.3333 0.2500  plane waves:    8953
 k-point 73 :   0.4444 0.3333 0.2500  plane waves:    8948
 k-point 74 :  -0.4444 0.3333 0.2500  plane waves:    8962
 k-point 75 :  -0.3333 0.3333 0.2500  plane waves:    8966
 k-point 76 :  -0.2222 0.3333 0.2500  plane waves:    8953
 k-point 77 :  -0.1111 0.3333 0.2500  plane waves:    8956
 k-point 78 :  -0.0000 0.4444 0.2500  plane waves:    8956
 k-point 79 :   0.1111 0.4444 0.2500  plane waves:    8966
 k-point 80 :   0.2222 0.4444 0.2500  plane waves:    8947
 k-point 81 :   0.3333 0.4444 0.2500  plane waves:    8948
 k-point 82 :   0.4444 0.4444 0.2500  plane waves:    8972
 k-point 83 :  -0.4444 0.4444 0.2500  plane waves:    8957
 k-point 84 :  -0.3333 0.4444 0.2500  plane waves:    8962
 k-point 85 :  -0.2222 0.4444 0.2500  plane waves:    8949
 k-point 86 :  -0.1111 0.4444 0.2500  plane waves:    8960
 k-point 87 :   0.0000-0.4444 0.2500  plane waves:    8956
 k-point 88 :   0.1111-0.4444 0.2500  plane waves:    8960
 k-point 89 :   0.2222-0.4444 0.2500  plane waves:    8949
 k-point 90 :   0.3333-0.4444 0.2500  plane waves:    8962
 k-point 91 :   0.4444-0.4444 0.2500  plane waves:    8957
 k-point 92 :  -0.4444-0.4444 0.2500  plane waves:    8972
 k-point 93 :  -0.3333-0.4444 0.2500  plane waves:    8948
 k-point 94 :  -0.2222-0.4444 0.2500  plane waves:    8947
 k-point 95 :  -0.1111-0.4444 0.2500  plane waves:    8966
 k-point 96 :   0.0000-0.3333 0.2500  plane waves:    8967
 k-point 97 :   0.1111-0.3333 0.2500  plane waves:    8956
 k-point 98 :   0.2222-0.3333 0.2500  plane waves:    8953
 k-point 99 :   0.3333-0.3333 0.2500  plane waves:    8966
 k-point ** :   0.4444-0.3333 0.2500  plane waves:    8962
 k-point ** :  -0.4444-0.3333 0.2500  plane waves:    8948
 k-point ** :  -0.3333-0.3333 0.2500  plane waves:    8953
 k-point ** :  -0.2222-0.3333 0.2500  plane waves:    8949
 k-point ** :  -0.1111-0.3333 0.2500  plane waves:    8962
 k-point ** :   0.0000-0.2222 0.2500  plane waves:    8956
 k-point ** :   0.1111-0.2222 0.2500  plane waves:    8927
 k-point ** :   0.2222-0.2222 0.2500  plane waves:    8963
 k-point ** :   0.3333-0.2222 0.2500  plane waves:    8953
 k-point ** :   0.4444-0.2222 0.2500  plane waves:    8949
 k-point ** :  -0.4444-0.2222 0.2500  plane waves:    8947
 k-point ** :  -0.3333-0.2222 0.2500  plane waves:    8949
 k-point ** :  -0.2222-0.2222 0.2500  plane waves:    8955
 k-point ** :  -0.1111-0.2222 0.2500  plane waves:    8952
 k-point ** :   0.0000-0.1111 0.2500  plane waves:    8919
 k-point ** :   0.1111-0.1111 0.2500  plane waves:    8915
 k-point ** :   0.2222-0.1111 0.2500  plane waves:    8927
 k-point ** :   0.3333-0.1111 0.2500  plane waves:    8956
 k-point ** :   0.4444-0.1111 0.2500  plane waves:    8960
 k-point ** :  -0.4444-0.1111 0.2500  plane waves:    8966
 k-point ** :  -0.3333-0.1111 0.2500  plane waves:    8962
 k-point ** :  -0.2222-0.1111 0.2500  plane waves:    8952
 k-point ** :  -0.1111-0.1111 0.2500  plane waves:    8925
 k-point ** :   0.0000 0.0000 0.5000  plane waves:    8882
 k-point ** :   0.1111 0.0000 0.5000  plane waves:    8914
 k-point ** :   0.2222 0.0000 0.5000  plane waves:    8940
 k-point ** :   0.3333 0.0000 0.5000  plane waves:    8970
 k-point ** :   0.4444 0.0000 0.5000  plane waves:    8984
 k-point ** :  -0.0000 0.1111 0.5000  plane waves:    8914
 k-point ** :   0.1111 0.1111 0.5000  plane waves:    8938
 k-point ** :   0.2222 0.1111 0.5000  plane waves:    8942
 k-point ** :   0.3333 0.1111 0.5000  plane waves:    8952
 k-point ** :   0.4444 0.1111 0.5000  plane waves:    8964
 k-point ** :  -0.4444 0.1111 0.5000  plane waves:    8952
 k-point ** :  -0.3333 0.1111 0.5000  plane waves:    8938
 k-point ** :  -0.2222 0.1111 0.5000  plane waves:    8942
 k-point ** :  -0.1111 0.1111 0.5000  plane waves:    8920
 k-point ** :  -0.0000 0.2222 0.5000  plane waves:    8940
 k-point ** :   0.1111 0.2222 0.5000  plane waves:    8942
 k-point ** :   0.2222 0.2222 0.5000  plane waves:    8938
 k-point ** :   0.3333 0.2222 0.5000  plane waves:    8962
 k-point ** :   0.4444 0.2222 0.5000  plane waves:    8954
 k-point ** :  -0.4444 0.2222 0.5000  plane waves:    8942
 k-point ** :  -0.3333 0.2222 0.5000  plane waves:    8940
 k-point ** :  -0.2222 0.2222 0.5000  plane waves:    8950
 k-point ** :  -0.1111 0.2222 0.5000  plane waves:    8942
 k-point ** :  -0.0000 0.3333 0.5000  plane waves:    8970
 k-point ** :   0.1111 0.3333 0.5000  plane waves:    8952
 k-point ** :   0.2222 0.3333 0.5000  plane waves:    8962
 k-point ** :   0.3333 0.3333 0.5000  plane waves:    8950
 k-point ** :   0.4444 0.3333 0.5000  plane waves:    8958
 k-point ** :  -0.4444 0.3333 0.5000  plane waves:    8956
 k-point ** :  -0.3333 0.3333 0.5000  plane waves:    8972
 k-point ** :  -0.2222 0.3333 0.5000  plane waves:    8940
 k-point ** :  -0.1111 0.3333 0.5000  plane waves:    8938
 k-point ** :  -0.0000 0.4444 0.5000  plane waves:    8984
 k-point ** :   0.1111 0.4444 0.5000  plane waves:    8964
 k-point ** :   0.2222 0.4444 0.5000  plane waves:    8954
 k-point ** :   0.3333 0.4444 0.5000  plane waves:    8958
 k-point ** :   0.4444 0.4444 0.5000  plane waves:    8962
 k-point ** :  -0.4444 0.4444 0.5000  plane waves:    8984
 k-point ** :  -0.3333 0.4444 0.5000  plane waves:    8956
 k-point ** :  -0.2222 0.4444 0.5000  plane waves:    8942
 k-point ** :  -0.1111 0.4444 0.5000  plane waves:    8952

 maximum and minimum number of plane-waves per node :      8984     8882

 maximum number of plane-waves:      8984
 maximum index in each direction: 
   IXMAX=   10   IYMAX=   10   IZMAX=   25
   IXMIN=  -10   IYMIN=  -10   IZMIN=  -25

 WARNING: aliasing errors must be expected set NGX to  42 to avoid them
 WARNING: aliasing errors must be expected set NGY to  42 to avoid them
 NGZ is ok and might be reduce to 102
 aliasing errors are usually negligible using standard VASP settings
 and one can safely disregard these warnings

 serial   3D FFT for wavefunctions
 parallel 3D FFT for charge:
    minimum data exchange during FFTs selected (reduces bandwidth)


 total amount of memory used by VASP on root node   493455. kBytes
========================================================================

   base      :      30000. kBytes
   nonl-proj :      98364. kBytes
   fftplans  :       8783. kBytes
   grid      :      18621. kBytes
   one-center:         98. kBytes
   wavefun   :     337589. kBytes
 
     INWAV:  cpu time    0.00: real time    0.00
 Broyden mixing: mesh for mixing (old mesh)
   NGX = 19   NGY = 19   NGZ = 51
  (NGX  = 80   NGY  = 80   NGZ  =216)
  gives a total of  18411 points

 initial charge density was supplied:
 charge density of overlapping atoms calculated
 number of electron     128.0000000 magnetization 
 keeping initial charge density in first step


--------------------------------------------------------------------------------------------------------


 Maximum index for augmentation-charges         1508 (set IRDMAX)


--------------------------------------------------------------------------------------------------------


 First call to EWALD:  gamma=   0.275
 Maximum number of real-space cells 4x 4x 2
 Maximum number of reciprocal cells 2x 2x 5

 FEWALD executed in parallel
    FEWALD:  cpu time    0.00: real time    0.00


----------------------------------------- Iteration    1(   1)  ---------------------------------------


    POTLOK:  cpu time    0.22: real time    0.22
    SETDIJ:  cpu time    0.02: real time    0.02
     EDDAV:  cpu time  157.06: real time  157.16
 BZINTS: Fermi energy: 16.392102;128.000000 electrons
         Band energy: 110.223143;  BLOECHL correction: -0.121682
       DOS:  cpu time    0.22: real time    0.22
    --------------------------------------------
      LOOP:  cpu time  157.51: real time  157.64

 eigenvalue-minimisations  : 27384
 total energy-change (2. order) : 0.5701657E+03  (-0.7239826E+04)
 number of electron     128.0000000 magnetization 
 augmentation part      128.0000000 magnetization 

 Free energy of the ion-electron system (eV)
  ---------------------------------------------------
  alpha Z        PSCENC =       311.09060117
  Ewald energy   TEWEN  =     -3937.60948540
  -Hartree energ DENC   =     -1029.46292509
  -exchange      EXHF   =         0.00000000
  -V(xc)+E(xc)   XCENC  =       443.93053014
  PAW double counting   =      1210.60617908    -1247.42152856
  entropy T*S    EENTRO =         0.00000000
  eigenvalues    EBANDS =       110.22314270
  atomic energy  EATOM  =      4708.80920826
  ---------------------------------------------------
  free energy    TOTEN  =       570.16572230 eV

  energy without entropy =      570.16572230  energy(sigma->0) =      570.16572230


--------------------------------------------------------------------------------------------------------




----------------------------------------- Iteration    1(   2)  ---------------------------------------


     EDDAV:  cpu time  190.33: real time  190.43
 BZINTS: Fermi energy:  4.434172;128.000000 electrons
         Band energy:-725.099830;  BLOECHL correction: -0.000704
       DOS:  cpu time    0.16: real time    0.16
    --------------------------------------------
      LOOP:  cpu time  190.50: real time  190.60

 eigenvalue-minimisations  : 34056
 total energy-change (2. order) :-0.8353230E+03  (-0.8044283E+03)
 number of electron     128.0000000 magnetization 
 augmentation part      128.0000000 magnetization 

 Free energy of the ion-electron system (eV)
  ---------------------------------------------------
  alpha Z        PSCENC =       311.09060117
  Ewald energy   TEWEN  =     -3937.60948540
  -Hartree energ DENC   =     -1029.46292509
  -exchange      EXHF   =         0.00000000
  -V(xc)+E(xc)   XCENC  =       443.93053014
  PAW double counting   =      1210.60617908    -1247.42152856
  entropy T*S    EENTRO =         0.00000000
  eigenvalues    EBANDS =      -725.09982962
  atomic energy  EATOM  =      4708.80920826
  ---------------------------------------------------
  free energy    TOTEN  =      -265.15725002 eV

  energy without entropy =     -265.15725002  energy(sigma->0) =     -265.15725002


--------------------------------------------------------------------------------------------------------




----------------------------------------- Iteration    1(   3)  ---------------------------------------


     EDDAV:  cpu time  187.23: real time  187.32
 BZINTS: Fermi energy:  3.772622;128.000000 electrons
         Band energy:-771.874351;  BLOECHL correction:  0.000000
       DOS:  cpu time    0.07: real time    0.07
    --------------------------------------------
      LOOP:  cpu time  187.30: real time  187.39

 eigenvalue-minimisations  : 33276
 total energy-change (2. order) :-0.4677452E+02  (-0.4631220E+02)
 number of electron     128.0000000 magnetization 
 augmentation part      128.0000000 magnetization 

 Free energy of the ion-electron system (eV)
  ---------------------------------------------------
  alpha Z        PSCENC =       311.09060117
  Ewald energy   TEWEN  =     -3937.60948540
  -Hartree energ DENC   =     -1029.46292509
  -exchange      EXHF   =         0.00000000
  -V(xc)+E(xc)   XCENC  =       443.93053014
  PAW double counting   =      1210.60617908    -1247.42152856
  entropy T*S    EENTRO =         0.00000000
  eigenvalues    EBANDS =      -771.87435063
  atomic energy  EATOM  =      4708.80920826
  ---------------------------------------------------
  free energy    TOTEN  =      -311.93177103 eV

  energy without entropy =     -311.93177103  energy(sigma->0) =     -311.93177103


--------------------------------------------------------------------------------------------------------




----------------------------------------- Iteration    1(   4)  ---------------------------------------


     EDDAV:  cpu time  191.70: real time  191.80
 BZINTS: Fermi energy:  3.765079;128.000000 electrons
         Band energy:-772.736633;  BLOECHL correction: -0.000000
       DOS:  cpu time    0.08: real time    0.09
    --------------------------------------------
      LOOP:  cpu time  191.79: real time  191.89

 eigenvalue-minimisations  : 34416
 total energy-change (2. order) :-0.8622822E+00  (-0.8606747E+00)
 number of electron     128.0000000 magnetization 
 augmentation part      128.0000000 magnetization 

 Free energy of the ion-electron system (eV)
  ---------------------------------------------------
  alpha Z        PSCENC =       311.09060117
  Ewald energy   TEWEN  =     -3937.60948540
  -Hartree energ DENC   =     -1029.46292509
  -exchange      EXHF   =         0.00000000
  -V(xc)+E(xc)   XCENC  =       443.93053014
  PAW double counting   =      1210.60617908    -1247.42152856
  entropy T*S    EENTRO =         0.00000000
  eigenvalues    EBANDS =      -772.73663286
  atomic energy  EATOM  =      4708.80920826
  ---------------------------------------------------
  free energy    TOTEN  =      -312.79405326 eV

  energy without entropy =     -312.79405326  energy(sigma->0) =     -312.79405326


--------------------------------------------------------------------------------------------------------




----------------------------------------- Iteration    1(   5)  ---------------------------------------


     EDDAV:  cpu time  189.13: real time  189.22
 BZINTS: Fermi energy:  3.765108;128.000000 electrons
         Band energy:-772.760702;  BLOECHL correction: -0.000000
       DOS:  cpu time    0.08: real time    0.08
    CHARGE:  cpu time    7.00: real time    7.00
    MIXING:  cpu time    0.01: real time    0.01
    --------------------------------------------
      LOOP:  cpu time  196.21: real time  196.31

 eigenvalue-minimisations  : 34620
 total energy-change (2. order) :-0.2406912E-01  (-0.2405856E-01)
 number of electron     127.9999994 magnetization 
 augmentation part        3.3955430 magnetization 

 Broyden mixing:
  rms(total) = 0.22070E+01    rms(broyden)= 0.22068E+01
  rms(prec ) = 0.26413E+01
  weight for this iteration     100.00

 Free energy of the ion-electron system (eV)
  ---------------------------------------------------
  alpha Z        PSCENC =       311.09060117
  Ewald energy   TEWEN  =     -3937.60948540
  -Hartree energ DENC   =     -1029.46292509
  -exchange      EXHF   =         0.00000000
  -V(xc)+E(xc)   XCENC  =       443.93053014
  PAW double counting   =      1210.60617908    -1247.42152856
  entropy T*S    EENTRO =         0.00000000
  eigenvalues    EBANDS =      -772.76070198
  atomic energy  EATOM  =      4708.80920826
  ---------------------------------------------------
  free energy    TOTEN  =      -312.81812238 eV

  energy without entropy =     -312.81812238  energy(sigma->0) =     -312.81812238


--------------------------------------------------------------------------------------------------------




----------------------------------------- Iteration    1(   6)  ---------------------------------------


    POTLOK:  cpu time    0.19: real time    0.19
    SETDIJ:  cpu time    0.01: real time    0.01
     EDDAV:  cpu time  179.30: real time  179.40
 BZINTS: Fermi energy:  4.469517;128.000000 electrons
         Band energy:-639.388924;  BLOECHL correction: -0.000000
       DOS:  cpu time    0.08: real time    0.08
    CHARGE:  cpu time    8.51: real time    8.52
    MIXING:  cpu time    0.01: real time    0.01
    --------------------------------------------
      LOOP:  cpu time  188.11: real time  188.21

 eigenvalue-minimisations  : 31296
 total energy-change (2. order) : 0.1419664E+02  (-0.1465889E+01)
 number of electron     127.9999995 magnetization 
 augmentation part        3.2413567 magnetization 

 Broyden mixing:
  rms(total) = 0.11568E+01    rms(broyden)= 0.11568E+01
  rms(prec ) = 0.13730E+01
  weight for this iteration     100.00

 eigenvalues of (default mixing * dielectric matrix)
  average eigenvalue GAMMA=   2.0347
  2.0347

 Free energy of the ion-electron system (eV)
  ---------------------------------------------------
  alpha Z        PSCENC =       311.09060117
  Ewald energy   TEWEN  =     -3937.60948540
  -Hartree energ DENC   =     -1153.98098468
  -exchange      EXHF   =         0.00000000
  -V(xc)+E(xc)   XCENC  =       452.19340335
  PAW double counting   =      1641.12116120    -1680.85646625
  entropy T*S    EENTRO =         0.00000000
  eigenvalues    EBANDS =      -639.38892354
  atomic energy  EATOM  =      4708.80920826
  ---------------------------------------------------
  free energy    TOTEN  =      -298.62148589 eV

  energy without entropy =     -298.62148589  energy(sigma->0) =     -298.62148589


--------------------------------------------------------------------------------------------------------




----------------------------------------- Iteration    1(   7)  ---------------------------------------


    POTLOK:  cpu time    0.22: real time    0.22
    SETDIJ:  cpu time    0.02: real time    0.02
     EDDAV:  cpu time  178.25: real time  178.34
 BZINTS: Fermi energy:  5.147478;128.000000 electrons
         Band energy:-504.422770;  BLOECHL correction:  0.000000
       DOS:  cpu time    0.06: real time    0.06
    CHARGE:  cpu time    8.63: real time    8.63
    MIXING:  cpu time    0.01: real time    0.01
    --------------------------------------------
      LOOP:  cpu time  187.18: real time  187.28

 eigenvalue-minimisations  : 31140
 total energy-change (2. order) : 0.4445206E+01  (-0.1508314E+01)
 number of electron     127.9999996 magnetization 
 augmentation part        3.0783588 magnetization 

 Broyden mixing:
  rms(total) = 0.19000E+00    rms(broyden)= 0.18989E+00
  rms(prec ) = 0.20430E+00
  weight for this iteration     100.00

 eigenvalues of (default mixing * dielectric matrix)
  average eigenvalue GAMMA=   2.1625
  2.0925  2.2324

 Free energy of the ion-electron system (eV)
  ---------------------------------------------------
  alpha Z        PSCENC =       311.09060117
  Ewald energy   TEWEN  =     -3937.60948540
  -Hartree energ DENC   =     -1291.46692274
  -exchange      EXHF   =         0.00000000
  -V(xc)+E(xc)   XCENC  =       461.54086675
  PAW double counting   =      2178.63134697    -2220.74912402
  entropy T*S    EENTRO =         0.00000000
  eigenvalues    EBANDS =      -504.42277048
  atomic energy  EATOM  =      4708.80920826
  ---------------------------------------------------
  free energy    TOTEN  =      -294.17627949 eV

  energy without entropy =     -294.17627949  energy(sigma->0) =     -294.17627949


--------------------------------------------------------------------------------------------------------




----------------------------------------- Iteration    1(   8)  ---------------------------------------


    POTLOK:  cpu time    0.22: real time    0.22
    SETDIJ:  cpu time    0.02: real time    0.02
     EDDAV:  cpu time  177.45: real time  177.54
 BZINTS: Fermi energy:  5.122204;128.000000 electrons
         Band energy:-507.752598;  BLOECHL correction:  0.000000
       DOS:  cpu time    0.05: real time    0.05
    CHARGE:  cpu time    8.63: real time    8.63
    MIXING:  cpu time    0.01: real time    0.01
    --------------------------------------------
      LOOP:  cpu time  186.36: real time  186.46

 eigenvalue-minimisations  : 30996
 total energy-change (2. order) :-0.5263439E-01  (-0.3589965E-01)
 number of electron     127.9999996 magnetization 
 augmentation part        3.0729491 magnetization 

 Broyden mixing:
  rms(total) = 0.26077E-01    rms(broyden)= 0.26054E-01
  rms(prec ) = 0.32505E-01
  weight for this iteration     100.00

 eigenvalues of (default mixing * dielectric matrix)
  average eigenvalue GAMMA=   1.7805
  0.9023  2.4723  1.9669

 Free energy of the ion-electron system (eV)
  ---------------------------------------------------
  alpha Z        PSCENC =       311.09060117
  Ewald energy   TEWEN  =     -3937.60948540
  -Hartree energ DENC   =     -1288.80359433
  -exchange      EXHF   =         0.00000000
  -V(xc)+E(xc)   XCENC  =       461.40177935
  PAW double counting   =      2213.37058394    -2254.73540935
  entropy T*S    EENTRO =         0.00000000
  eigenvalues    EBANDS =      -507.75259752
  atomic energy  EATOM  =      4708.80920826
  ---------------------------------------------------
  free energy    TOTEN  =      -294.22891388 eV

  energy without entropy =     -294.22891388  energy(sigma->0) =     -294.22891388


--------------------------------------------------------------------------------------------------------




----------------------------------------- Iteration    1(   9)  ---------------------------------------


    POTLOK:  cpu time    0.22: real time    0.22
    SETDIJ:  cpu time    0.02: real time    0.02
     EDDAV:  cpu time  185.33: real time  185.42
 BZINTS: Fermi energy:  5.129672;128.000000 electrons
         Band energy:-505.830193;  BLOECHL correction:  0.000000
       DOS:  cpu time    0.06: real time    0.06
    CHARGE:  cpu time    8.48: real time    8.48
    MIXING:  cpu time    0.01: real time    0.01
    --------------------------------------------
      LOOP:  cpu time  194.11: real time  194.21

 eigenvalue-minimisations  : 32820
 total energy-change (2. order) :-0.1653252E-02  (-0.1275110E-02)
 number of electron     127.9999996 magnetization 
 augmentation part        3.0696375 magnetization 

 Broyden mixing:
  rms(total) = 0.11304E-01    rms(broyden)= 0.11301E-01
  rms(prec ) = 0.14472E-01
  weight for this iteration     100.00

 eigenvalues of (default mixing * dielectric matrix)
  average eigenvalue GAMMA=   1.7006
  2.4768  2.0017  0.9927  1.3310

 Free energy of the ion-electron system (eV)
  ---------------------------------------------------
  alpha Z        PSCENC =       311.09060117
  Ewald energy   TEWEN  =     -3937.60948540
  -Hartree energ DENC   =     -1290.90186348
  -exchange      EXHF   =         0.00000000
  -V(xc)+E(xc)   XCENC  =       461.55647278
  PAW double counting   =      2223.16220875    -2264.50751651
  entropy T*S    EENTRO =         0.00000000
  eigenvalues    EBANDS =      -505.83019271
  atomic energy  EATOM  =      4708.80920826
  ---------------------------------------------------
  free energy    TOTEN  =      -294.23056713 eV

  energy without entropy =     -294.23056713  energy(sigma->0) =     -294.23056713


--------------------------------------------------------------------------------------------------------




----------------------------------------- Iteration    1(  10)  ---------------------------------------


    POTLOK:  cpu time    0.22: real time    0.22
    SETDIJ:  cpu time    0.02: real time    0.02
     EDDAV:  cpu time  200.73: real time  200.83
 BZINTS: Fermi energy:  5.131122;128.000000 electrons
         Band energy:-505.417640;  BLOECHL correction:  0.000000
       DOS:  cpu time    0.06: real time    0.06
    CHARGE:  cpu time    8.60: real time    8.61
    MIXING:  cpu time    0.01: real time    0.01
    --------------------------------------------
      LOOP:  cpu time  209.63: real time  209.74

 eigenvalue-minimisations  : 36708
 total energy-change (2. order) :-0.7265865E-03  (-0.4326852E-03)
 number of electron     127.9999996 magnetization 
 augmentation part        3.0688984 magnetization 

 Broyden mixing:
  rms(total) = 0.73313E-02    rms(broyden)= 0.73273E-02
  rms(prec ) = 0.10436E-01
  weight for this iteration     100.00

 eigenvalues of (default mixing * dielectric matrix)
  average eigenvalue GAMMA=   1.6100
  2.6257  1.9673  1.9673  0.7448  0.7448

 Free energy of the ion-electron system (eV)
  ---------------------------------------------------
[...]
     79      13.1137      0.00000
     80      13.1154      0.00000
     81      13.2914      0.00000
     82      13.2928      0.00000
     83      13.4288      0.00000
     84      13.4334      0.00000

 k-point   162 :      -0.2222    0.4444    0.5000
  band No.  band energies     occupation 
      1     -13.6048      2.00000
      2     -13.6045      2.00000
      3     -13.3062      2.00000
      4     -13.3058      2.00000
      5     -11.6656      2.00000
      6     -11.6642      2.00000
      7     -11.6593      2.00000
      8     -11.6579      2.00000
      9     -11.4013      2.00000
     10     -11.4000      2.00000
     11     -11.3952      2.00000
     12     -11.3935      2.00000
     13      -8.3905      2.00000
     14      -8.3888      2.00000
     15      -8.2764      2.00000
     16      -8.2746      2.00000
     17      -7.4012      2.00000
     18      -7.3977      2.00000
     19      -7.3367      2.00000
     20      -7.3334      2.00000
     21      -4.4143      2.00000
     22      -4.4142      2.00000
     23      -4.4068      2.00000
     24      -4.4057      2.00000
     25      -4.2776      2.00000
     26      -4.2773      2.00000
     27      -4.2705      2.00000
     28      -4.2690      2.00000
     29      -4.1052      2.00000
     30      -4.1030      2.00000
     31      -3.9892      2.00000
     32      -3.9869      2.00000
     33      -2.2190      2.00000
     34      -2.2178      2.00000
     35      -1.4775      2.00000
     36      -1.4774      2.00000
     37      -1.4662      2.00000
     38      -1.4645      2.00000
     39      -1.3992      2.00000
     40      -1.3989      2.00000
     41      -1.3875      2.00000
     42      -1.3861      2.00000
     43      -0.5358      2.00000
     44      -0.5324      2.00000
     45      -0.4981      2.00000
     46      -0.4972      2.00000
     47      -0.4808      2.00000
     48      -0.4756      2.00000
     49       0.0595      2.00000
     50       0.0611      2.00000
     51       0.0654      2.00000
     52       0.0671      2.00000
     53       0.4389      2.00000
     54       0.4440      2.00000
     55       0.4728      2.00000
     56       0.4769      2.00000
     57       1.5790      2.00000
     58       1.5809      2.00000
     59       1.5855      2.00000
     60       1.5874      2.00000
     61       3.4668      2.00000
     62       3.4696      2.00000
     63       4.1049      2.00000
     64       4.1071      2.00000
     65       6.3956      0.00000
     66       6.4005      0.00000
     67       6.4113      0.00000
     68       6.4138      0.00000
     69       9.5136      0.00000
     70       9.5154      0.00000
     71       9.5207      0.00000
     72       9.5227      0.00000
     73      10.2362      0.00000
     74      10.2388      0.00000
     75      10.2393      0.00000
     76      10.2421      0.00000
     77      11.8308      0.00000
     78      11.8341      0.00000
     79      13.7012      0.00000
     80      13.7039      0.00000
     81      13.8394      0.00000
     82      13.8405      0.00000
     83      13.8575      0.00000
     84      13.8607      0.00000

 k-point   163 :      -0.1111    0.4444    0.5000
  band No.  band energies     occupation 
      1     -13.5314      2.00000
      2     -13.5311      2.00000
      3     -13.2341      2.00000
      4     -13.2336      2.00000
      5     -12.2289      2.00000
      6     -12.2286      2.00000
      7     -11.9545      2.00000
      8     -11.9541      2.00000
      9     -10.9642      2.00000
     10     -10.9639      2.00000
     11     -10.7130      2.00000
     12     -10.7125      2.00000
     13      -9.1617      2.00000
     14      -9.1613      2.00000
     15      -8.9521      2.00000
     16      -8.9515      2.00000
     17      -6.6565      2.00000
     18      -6.6546      2.00000
     19      -6.5088      2.00000
     20      -6.5071      2.00000
     21      -4.9988      2.00000
     22      -4.9971      2.00000
     23      -4.8652      2.00000
     24      -4.8635      2.00000
     25      -3.9976      2.00000
     26      -3.9958      2.00000
     27      -3.8879      2.00000
     28      -3.8859      2.00000
     29      -3.7424      2.00000
     30      -3.7421      2.00000
     31      -3.6103      2.00000
     32      -3.6099      2.00000
     33      -2.5415      2.00000
     34      -2.5397      2.00000
     35      -2.4508      2.00000
     36      -2.4489      2.00000
     37      -2.1315      2.00000
     38      -2.1303      2.00000
     39      -0.8703      2.00000
     40      -0.8690      2.00000
     41      -0.7911      2.00000
     42      -0.7897      2.00000
     43      -0.6198      2.00000
     44      -0.6191      2.00000
     45      -0.5957      2.00000
     46      -0.5945      2.00000
     47      -0.5547      2.00000
     48      -0.5540      2.00000
     49      -0.4252      2.00000
     50      -0.4237      2.00000
     51       0.5115      2.00000
     52       0.5132      2.00000
     53       0.5621      2.00000
     54       0.5636      2.00000
     55       0.8654      2.00000
     56       0.8663      2.00000
     57       0.9879      2.00000
     58       0.9893      2.00000
     59       2.2971      2.00000
     60       2.2984      2.00000
     61       2.8233      2.00000
     62       2.8245      2.00000
     63       3.8770      2.00000
     64       3.8787      2.00000
     65       6.6076      0.00000
     66       6.6105      0.00000
     67       7.1707      0.00000
     68       7.1724      0.00000
     69       8.5902      0.00000
     70       8.5921      0.00000
     71       9.2477      0.00000
     72       9.2490      0.00000
     73      10.4165      0.00000
     74      10.4193      0.00000
     75      11.1617      0.00000
     76      11.1636      0.00000
     77      11.9026      0.00000
     78      11.9062      0.00000
     79      13.0926      0.00000
     80      13.0939      0.00000
     81      13.2709      0.00000
     82      13.2718      0.00000
     83      13.4258      0.00000
     84      13.4297      0.00000


--------------------------------------------------------------------------------------------------------


 soft charge-density along one line, spin component           1
         0         1         2         3         4         5         6         7         8         9
 total charge-density along one line
 
 pseudopotential strength for first ion, spin component:           1
  9.744   0.004  -0.000  -0.000   0.000   0.000   0.000  -0.000
  0.004  -0.002   0.000  -0.000  -0.000   0.000   0.000   0.000
 -0.000   0.000  -3.919  -0.000   0.000  -0.015   0.000  -0.000
 -0.000  -0.000  -0.000  -3.913   0.000   0.000  -0.012  -0.000
  0.000  -0.000   0.000   0.000  -3.919  -0.000  -0.000  -0.015
  0.000   0.000  -0.015   0.000  -0.000  -0.763  -0.000   0.000
  0.000   0.000   0.000  -0.012  -0.000  -0.000  -0.763   0.000
 -0.000   0.000  -0.000  -0.000  -0.015   0.000   0.000  -0.763
 total augmentation occupancy for first ion, spin component:           1
  1.471  -1.107   0.000  -0.000  -0.000   0.000   0.000  -0.000
 -1.107   1.039  -0.000  -0.000   0.000  -0.000  -0.000   0.000
  0.000  -0.000   1.225  -0.000   0.000   0.225  -0.000  -0.000
 -0.000  -0.000  -0.000   0.926   0.000  -0.000   0.103   0.000
 -0.000   0.000   0.000   0.000   1.225  -0.000   0.000   0.225
  0.000  -0.000   0.225  -0.000  -0.000   0.047  -0.000  -0.000
  0.000  -0.000  -0.000   0.103   0.000  -0.000   0.013   0.000
 -0.000   0.000  -0.000   0.000   0.225  -0.000   0.000   0.047


------------------------ aborting loop because EDIFF is reached ----------------------------------------


    CHARGE:  cpu time    8.50: real time    8.50
    FORLOC:  cpu time    0.06: real time    0.06
    FORNL :  cpu time   52.30: real time   52.33
    STRESS:  cpu time   98.52: real time   98.57
    FORHAR:  cpu time    0.09: real time    0.09
    MIXING:  cpu time    0.01: real time    0.01
    OFIELD:  cpu time    0.00: real time    0.00

 ---------------------------------------------------------------------------------------------

         DFTD3 V3.0 Rev 1        
 IVDW         = 12
 DF pbe       
 parameters
 VDW_S6       =    1.0000
 VDW_S8       =    0.7875
 VDW_A1       =    0.4289
 VDW_A2       =    4.4407
 k1-k3        =   16.0000    1.3333   -4.0000
 VDW_RADIUS   =   50.2022 A
 VDW_CNRADIUS =   21.1671 A
 Edisp (eV)   -5.32117

 E6    (eV) :    -3.8028
 E8    (eV) :    -1.5184
 % E8        : 28.53
    FORVDW:  cpu time    0.29: real time    0.29

  FORCE on cell =-STRESS in cart. coord.  units (eV):
  Direction    XX          YY          ZZ          XY          YZ          ZX
  --------------------------------------------------------------------------------------
  Alpha Z   311.09060   311.09060   311.09060
  Ewald     366.75898   366.27015 -4670.65666     0.36779     0.00065    -0.00956
  Hartree  1111.93052  1111.92627  -931.88238     0.10437     0.00020    -0.00213
  E(xc)    -468.11408  -468.12104  -484.47991    -0.00305     0.00002    -0.00005
  Local   -3119.30961 -3118.90904  3693.54627    -0.39885    -0.00049     0.00903
  n-local  -112.32026  -112.43040  -103.02477    -0.08929     0.00028    -0.00055
  augment   -12.38224   -12.38139   -11.34426    -0.00052    -0.00000     0.00003
  Kinetic  1922.16693  1922.97828  2206.80230     0.58228    -0.00387     0.00891
  Fock        0.00000     0.00000     0.00000     0.00000     0.00000     0.00000
  vdW        -0.66306    -0.65227    -6.13423     0.00894    -0.00000    -0.00002
  -------------------------------------------------------------------------------------
  Total      -0.84221    -0.22885     3.91695     0.57168    -0.00321     0.00567
  in kB      -5.03116    -1.36708    23.39882     3.41504    -0.01917     0.03387
  external pressure =        5.67 kB  Pullay stress =        0.00 kB


 VOLUME and BASIS-vectors are now :
 -----------------------------------------------------------------------------
  energy-cutoff  :      600.00
  volume of cell :      268.20
      direct lattice vectors                 reciprocal lattice vectors
     4.932874498 -0.001919286  0.000000000     0.202767147  0.117172881  0.000000000
    -2.468099399  4.271034986  0.000000000     0.000091118  0.234187941  0.000000000
     0.000000000  0.000000000 12.732961398     0.000000000  0.000000000  0.078536325

  length of vectors
     4.932874871  4.932874871 12.732961398     0.234187958  0.234187958  0.078536325


 FORCES acting on ions
    electron-ion (+dipol)            ewald-force                    non-local-force                 convergence-correction
 -----------------------------------------------------------------------------------------------
   -.192E+00 0.651E-01 0.316E+00   0.187E+00 -.619E-01 -.314E+00   -.338E-02 0.256E-02 0.807E-02   -.276E-04 0.466E-04 0.111E-03
   0.134E+00 0.582E-01 0.836E+00   -.137E+00 -.541E-01 -.867E+00   0.231E-01 0.227E-02 0.743E-01   -.103E-03 0.526E-04 0.116E-03
   -.451E+00 -.274E+00 0.840E+00   0.505E+00 0.310E+00 -.872E+00   0.148E-01 -.226E-02 0.745E-01   -.676E-04 0.690E-04 0.115E-03
   -.461E+00 0.407E+00 0.832E+00   0.515E+00 -.437E+00 -.862E+00   0.137E-01 0.789E-02 0.740E-01   -.596E-04 0.260E-04 0.117E-03
   -.112E+00 0.650E-01 -.102E+00   0.107E+00 -.617E-01 0.100E+00   -.427E-02 0.258E-02 -.243E-02   -.266E-03 0.395E-04 0.171E-02
   -.112E+00 0.650E-01 -.103E+00   0.107E+00 -.617E-01 0.101E+00   -.426E-02 0.258E-02 -.234E-02   -.281E-03 0.421E-04 0.171E-02
   -.112E+00 0.649E-01 -.103E+00   0.107E+00 -.616E-01 0.101E+00   -.427E-02 0.257E-02 -.234E-02   -.278E-03 0.535E-04 0.171E-02
   -.112E+00 0.650E-01 -.103E+00   0.107E+00 -.617E-01 0.101E+00   -.427E-02 0.258E-02 -.234E-02   -.272E-03 0.490E-04 0.171E-02
   0.139E+00 -.774E-01 -.977E-01   -.133E+00 0.736E-01 0.979E-01   0.461E-02 -.269E-02 0.327E-02   -.808E-04 0.593E-04 -.207E-03
   0.863E-01 -.837E-01 -.117E+00   -.800E-01 0.800E-01 0.118E+00   0.466E-02 -.269E-02 0.308E-02   -.911E-04 0.632E-04 -.201E-03
   0.118E+00 -.352E-01 -.107E+00   -.112E+00 0.313E-01 0.108E+00   0.464E-02 -.273E-02 0.317E-02   -.861E-04 0.644E-04 -.204E-03
   0.109E+00 -.655E-01 -.761E-01   -.102E+00 0.617E-01 0.767E-01   0.455E-02 -.271E-02 0.194E-02   -.838E-04 0.589E-04 -.205E-03
   0.867E-01 -.470E-01 -.116E+00   -.804E-01 0.434E-01 0.118E+00   0.467E-02 -.262E-02 0.304E-02   -.817E-04 0.312E-04 -.167E-02
   0.139E+00 -.534E-01 -.960E-01   -.132E+00 0.500E-01 0.978E-01   0.463E-02 -.263E-02 0.319E-02   -.909E-04 0.298E-04 -.167E-02
   0.118E+00 -.949E-01 -.106E+00   -.112E+00 0.915E-01 0.108E+00   0.466E-02 -.258E-02 0.311E-02   -.874E-04 0.385E-04 -.167E-02
   0.109E+00 -.651E-01 -.749E-01   -.102E+00 0.616E-01 0.771E-01   0.454E-02 -.260E-02 0.189E-02   -.855E-04 0.319E-04 -.167E-02
   0.899E+00 -.616E-01 -.154E+01   -.102E+01 0.579E-01 0.159E+01   -.954E-01 -.260E-02 -.184E+00   -.125E-04 -.427E-04 -.414E-04
   -.998E-01 -.638E-01 0.377E+00   0.122E+00 0.611E-01 -.360E+00   0.230E-01 -.249E-02 -.231E-01   0.150E-03 -.445E-04 0.997E-04
   0.835E-01 0.420E-01 0.377E+00   -.861E-01 -.593E-01 -.360E+00   0.116E-01 -.897E-02 -.231E-01   0.684E-04 -.991E-04 0.102E-03
   0.840E-01 -.170E+00 0.377E+00   -.864E-01 0.182E+00 -.361E+00   0.115E-01 0.423E-02 -.231E-01   0.625E-04 0.684E-06 0.101E-03
   0.110E+00 -.641E-01 -.104E+00   -.106E+00 0.612E-01 0.102E+00   0.402E-02 -.244E-02 0.752E-03   0.270E-03 -.408E-04 0.170E-02
   0.110E+00 -.641E-01 -.102E+00   -.106E+00 0.612E-01 0.100E+00   0.402E-02 -.244E-02 0.485E-03   0.277E-03 -.396E-04 0.170E-02
   0.110E+00 -.640E-01 -.102E+00   -.106E+00 0.611E-01 0.100E+00   0.402E-02 -.244E-02 0.486E-03   0.270E-03 -.567E-04 0.170E-02
   0.110E+00 -.642E-01 -.102E+00   -.106E+00 0.613E-01 0.100E+00   0.402E-02 -.244E-02 0.484E-03   0.274E-03 -.487E-04 0.169E-02
   -.139E+00 0.833E-01 -.117E+00   0.133E+00 -.797E-01 0.118E+00   -.414E-02 0.246E-02 -.469E-03   0.848E-04 -.618E-04 -.181E-03
   -.855E-01 0.768E-01 -.976E-01   0.802E-01 -.731E-01 0.979E-01   -.461E-02 0.239E-02 0.722E-04   0.977E-04 -.632E-04 -.184E-03
   -.107E+00 0.337E-01 -.108E+00   0.101E+00 -.308E-01 0.108E+00   -.432E-02 0.284E-02 -.216E-03   0.954E-04 -.689E-04 -.184E-03
   -.116E+00 0.646E-01 -.765E-01   0.111E+00 -.612E-01 0.767E-01   -.453E-02 0.256E-02 -.501E-03   0.890E-04 -.609E-04 -.182E-03
   -.858E-01 0.523E-01 -.958E-01   0.806E-01 -.495E-01 0.976E-01   -.454E-02 0.263E-02 0.432E-04   0.746E-04 -.307E-04 -.165E-02
   -.138E+00 0.457E-01 -.116E+00   0.132E+00 -.429E-01 0.118E+00   -.408E-02 0.256E-02 -.558E-03   0.810E-04 -.297E-04 -.165E-02
   -.106E+00 0.947E-01 -.106E+00   0.101E+00 -.911E-01 0.108E+00   -.425E-02 0.219E-02 -.275E-03   0.743E-04 -.387E-04 -.165E-02
   -.116E+00 0.643E-01 -.753E-01   0.111E+00 -.612E-01 0.771E-01   -.447E-02 0.246E-02 -.570E-03   0.809E-04 -.363E-04 -.165E-02
 -----------------------------------------------------------------------------------------------
   0.120E-03 -.187E-04 0.943E-02   -.103E-13 0.472E-13 -.852E-13   -.116E-03 0.305E-04 -.893E-02   -.605E-05 -.617E-05 -.484E-03
 
 
 POSITION                                       TOTAL-FORCE (eV/Angst)
 -----------------------------------------------------------------------------------
      2.46402      0.00044      1.59162        -0.008636      0.005867      0.010055
      4.93046     -0.00052      1.59162         0.020022      0.006406      0.043629
      1.22997      2.13595      1.59162         0.067983      0.033543      0.043166
      3.69641      2.13499      1.59162         0.067302     -0.021366      0.044028
      2.46402      0.00044      7.95810        -0.009512      0.005953     -0.002675
      4.93046     -0.00052      7.95810        -0.009508      0.005953     -0.002639
      1.22997      2.13595      7.95810        -0.009512      0.005951     -0.002640
      3.69641      2.13499      7.95810        -0.009512      0.005956     -0.002636
     -1.23163      2.13412      4.77486         0.010779     -0.006496      0.003313
      1.23481      2.13316      4.77486         0.011013     -0.006344      0.003653
     -2.46568      4.26964      4.77486         0.010769     -0.006587      0.003475
      0.00076      4.26868      4.77486         0.010988     -0.006473      0.002312
     -1.23163      2.13412     11.14134         0.011045     -0.006223      0.003675
      1.23481      2.13316     11.14134         0.010829     -0.006016      0.003292
     -2.46568      4.26964     11.14134         0.010763     -0.005968      0.003471
      0.00076      4.26868     11.14134         0.011029     -0.006072      0.002329
      0.00029      1.42496      1.60094        -0.215912     -0.006390     -0.136115
      2.46311      1.42400      1.59162         0.047149     -0.005285     -0.006893
     -1.23737      3.56047      1.59162         0.009452     -0.027079     -0.006955
      1.22906      3.55952      1.59162         0.009554      0.016491     -0.006944
     -0.00332      1.42496      7.95810         0.008632     -0.005454      0.000549
      2.46311      1.42400      7.95810         0.008616     -0.005454      0.000330
     -1.23737      3.56047      7.95810         0.008620     -0.005452      0.000330
      1.22906      3.55952      7.95810         0.008621     -0.005458      0.000330
      1.23571      0.70960      4.77486        -0.010375      0.006099      0.000023
      3.70215      0.70864      4.77486        -0.009966      0.006053      0.000156
      0.00166      2.84512      4.77486        -0.010128      0.005728      0.000077
      2.46810      2.84416      4.77486        -0.010254      0.005949     -0.000488
      1.23571      0.70960     11.14134        -0.009738      0.005446      0.000188
      3.70215      0.70864     11.14134        -0.010154      0.005394      0.000003
      0.00166      2.84512     11.14134        -0.009897      0.005776      0.000081
      2.46810      2.84416     11.14134        -0.010064      0.005552     -0.000483
 -----------------------------------------------------------------------------------
    total drift:                               -0.000002      0.000006      0.000019


--------------------------------------------------------------------------------------------------------



  FREE ENERGIE OF THE ION-ELECTRON SYSTEM (eV)
  ---------------------------------------------------
  free  energy   TOTEN  =      -299.55269740 eV

  energy  without entropy=     -299.55269740  energy(sigma->0) =     -299.55269740
 


--------------------------------------------------------------------------------------------------------


    POTLOK:  cpu time    0.23: real time    0.23


--------------------------------------------------------------------------------------------------------


     LOOP+:  cpu time 3561.35: real time 3563.27
    4ORBIT:  cpu time    0.00: real time    0.00
 BZINTS: Fermi energy:  5.136887;128.000000 electrons
         Band energy:-504.854734;  BLOECHL correction:  0.000000

 total amount of memory used by VASP on root node   493455. kBytes
========================================================================

   base      :      30000. kBytes
   nonl-proj :      98364. kBytes
   fftplans  :       8783. kBytes
   grid      :      18621. kBytes
   one-center:         98. kBytes
   wavefun   :     337589. kBytes
 
  
  
 General timing and accounting informations for this job:
 ========================================================
  
                  Total CPU time used (sec):     3605.532
                            User time (sec):     3075.290
                          System time (sec):      530.241
                         Elapsed time (sec):     3607.770
  
                   Maximum memory used (kb):      597912.
                   Average memory used (kb):           0.
  
                          Minor page faults:     65495718
                          Major page faults:            0
                 Voluntary context switches:         1036
