  32  32   0   0
  0.3102054E+01  0.4934311E-09  0.4934311E-09  0.4708020E-09  0.5000000E-15
  1.000000000000000E-004
  CAR 
 graphite                                
     31.92773570    -13.04906617  301     22.38028911      1.00000000
    -13.049  0.0000E+00  0.0000E+00
    -12.899  0.0000E+00  0.0000E+00
    -12.749  0.0000E+00  0.0000E+00
    -12.599  0.0000E+00  0.0000E+00
    -12.449  0.0000E+00  0.0000E+00
    -12.299  0.0000E+00  0.0000E+00
    -12.150  0.0000E+00  0.0000E+00
    -12.000  0.0000E+00  0.0000E+00
    -11.850  0.0000E+00  0.0000E+00
    -11.700  0.0000E+00  0.0000E+00
    -11.550  0.0000E+00  0.0000E+00
    -11.400  0.0000E+00  0.0000E+00
    -11.250  0.0000E+00  0.0000E+00
    -11.100  0.0000E+00  0.0000E+00
    -10.950  0.6039E-01  0.1097E-02
    -10.800  0.3446E+00  0.3206E-01
    -10.650  0.6046E+00  0.1052E+00
    -10.500  0.7008E+00  0.2023E+00
    -10.350  0.7941E+00  0.3142E+00
    -10.201  0.8860E+00  0.4402E+00
    -10.051  0.9880E+00  0.5804E+00
     -9.901  0.1083E+01  0.7358E+00
     -9.751  0.1195E+01  0.9054E+00
     -9.601  0.1293E+01  0.1093E+01
     -9.451  0.1413E+01  0.1297E+01
     -9.301  0.1294E+01  0.1499E+01
     -9.151  0.1267E+01  0.1689E+01
     -9.001  0.1432E+01  0.1892E+01
     -8.851  0.1895E+01  0.2137E+01
     -8.701  0.2160E+01  0.2442E+01
     -8.551  0.2202E+01  0.2774E+01
     -8.401  0.1951E+01  0.3087E+01
     -8.252  0.1433E+01  0.3347E+01
     -8.102  0.1307E+01  0.3545E+01
     -7.952  0.1492E+01  0.3750E+01
     -7.802  0.1959E+01  0.4013E+01
     -7.652  0.1562E+01  0.4294E+01
     -7.502  0.1869E+01  0.4547E+01
     -7.352  0.2431E+01  0.4883E+01
     -7.202  0.2438E+01  0.5251E+01
     -7.052  0.2185E+01  0.5600E+01
     -6.902  0.2119E+01  0.5921E+01
     -6.752  0.1960E+01  0.6226E+01
     -6.602  0.1946E+01  0.6518E+01
     -6.452  0.2137E+01  0.6821E+01
     -6.303  0.2343E+01  0.7157E+01
     -6.153  0.2701E+01  0.7531E+01
     -6.003  0.2899E+01  0.7966E+01
     -5.853  0.3313E+01  0.8416E+01
     -5.703  0.3688E+01  0.8955E+01
     -5.553  0.3835E+01  0.9516E+01
     -5.403  0.3997E+01  0.1010E+02
     -5.253  0.3998E+01  0.1071E+02
     -5.103  0.2520E+01  0.1121E+02
     -4.953  0.1703E+01  0.1152E+02
     -4.803  0.1341E+01  0.1174E+02
     -4.653  0.1188E+01  0.1193E+02
     -4.503  0.2543E+01  0.1221E+02
     -4.354  0.3198E+01  0.1264E+02
     -4.204  0.2944E+01  0.1311E+02
     -4.054  0.2454E+01  0.1353E+02
     -3.904  0.2284E+01  0.1388E+02
     -3.754  0.2347E+01  0.1423E+02
     -3.604  0.2512E+01  0.1459E+02
     -3.454  0.2167E+01  0.1495E+02
     -3.304  0.2233E+01  0.1527E+02
     -3.154  0.2606E+01  0.1565E+02
     -3.004  0.3056E+01  0.1608E+02
     -2.854  0.3228E+01  0.1655E+02
     -2.704  0.3304E+01  0.1703E+02
     -2.554  0.3430E+01  0.1754E+02
     -2.405  0.3452E+01  0.1806E+02
     -2.255  0.3425E+01  0.1858E+02
     -2.105  0.3271E+01  0.1907E+02
     -1.955  0.3295E+01  0.1956E+02
     -1.805  0.3139E+01  0.2005E+02
     -1.655  0.2885E+01  0.2049E+02
     -1.505  0.2928E+01  0.2093E+02
     -1.355  0.3057E+01  0.2138E+02
     -1.205  0.3235E+01  0.2185E+02
     -1.055  0.3622E+01  0.2235E+02
     -0.905  0.4268E+01  0.2297E+02
     -0.755  0.4219E+01  0.2360E+02
     -0.605  0.4691E+01  0.2427E+02
     -0.456  0.4822E+01  0.2499E+02
     -0.306  0.4460E+01  0.2568E+02
     -0.156  0.4382E+01  0.2634E+02
     -0.006  0.3771E+01  0.2698E+02
      0.144  0.3237E+01  0.2749E+02
      0.294  0.3073E+01  0.2796E+02
      0.444  0.3560E+01  0.2844E+02
      0.594  0.3375E+01  0.2896E+02
      0.744  0.2798E+01  0.2945E+02
      0.894  0.2862E+01  0.2985E+02
      1.044  0.4607E+01  0.3044E+02
      1.194  0.5144E+01  0.3121E+02
      1.344  0.2669E+01  0.3171E+02
      1.493  0.3182E+01  0.3214E+02
      1.643  0.4244E+01  0.3270E+02
      1.793  0.4188E+01  0.3333E+02
      1.943  0.4030E+01  0.3395E+02
      2.093  0.4326E+01  0.3457E+02
      2.243  0.5251E+01  0.3528E+02
      2.393  0.5307E+01  0.3607E+02
      2.543  0.5361E+01  0.3688E+02
      2.693  0.4772E+01  0.3763E+02
      2.843  0.4774E+01  0.3834E+02
      2.993  0.5585E+01  0.3910E+02
      3.143  0.6161E+01  0.3998E+02
      3.293  0.5708E+01  0.4088E+02
      3.442  0.5382E+01  0.4170E+02
      3.592  0.5797E+01  0.4255E+02
      3.742  0.6631E+01  0.4348E+02
      3.892  0.6017E+01  0.4444E+02
      4.042  0.5825E+01  0.4532E+02
      4.192  0.5867E+01  0.4620E+02
      4.342  0.5607E+01  0.4705E+02
      4.492  0.6048E+01  0.4791E+02
      4.642  0.6675E+01  0.4888E+02
      4.792  0.5989E+01  0.4985E+02
      4.942  0.5017E+01  0.5067E+02
      5.092  0.5526E+01  0.5145E+02
      5.241  0.5725E+01  0.5229E+02
      5.391  0.4903E+01  0.5307E+02
      5.541  0.5848E+01  0.5387E+02
      5.691  0.5661E+01  0.5474E+02
      5.841  0.5075E+01  0.5556E+02
      5.991  0.4775E+01  0.5630E+02
      6.141  0.4806E+01  0.5702E+02
      6.291  0.3986E+01  0.5767E+02
      6.441  0.4315E+01  0.5829E+02
      6.591  0.3500E+01  0.5887E+02
      6.741  0.3277E+01  0.5938E+02
      6.891  0.3192E+01  0.5986E+02
      7.041  0.3378E+01  0.6035E+02
      7.190  0.4036E+01  0.6088E+02
      7.340  0.3497E+01  0.6147E+02
      7.490  0.3376E+01  0.6198E+02
      7.640  0.3178E+01  0.6248E+02
      7.790  0.2882E+01  0.6293E+02
      7.940  0.3079E+01  0.6338E+02
      8.090  0.3324E+01  0.6386E+02
      8.240  0.3292E+01  0.6436E+02
      8.390  0.3008E+01  0.6483E+02
      8.540  0.2744E+01  0.6526E+02
      8.690  0.2909E+01  0.6569E+02
      8.840  0.3119E+01  0.6614E+02
      8.990  0.3090E+01  0.6661E+02
      9.139  0.2744E+01  0.6705E+02
      9.289  0.2726E+01  0.6746E+02
      9.439  0.2790E+01  0.6787E+02
      9.589  0.2819E+01  0.6829E+02
      9.739  0.2861E+01  0.6872E+02
      9.889  0.3136E+01  0.6917E+02
     10.039  0.3600E+01  0.6967E+02
     10.189  0.3761E+01  0.7023E+02
     10.339  0.3557E+01  0.7078E+02
     10.489  0.3134E+01  0.7128E+02
     10.639  0.3038E+01  0.7174E+02
     10.789  0.2939E+01  0.7219E+02
     10.939  0.2822E+01  0.7262E+02
     11.088  0.2598E+01  0.7303E+02
     11.238  0.2457E+01  0.7341E+02
     11.388  0.2349E+01  0.7376E+02
     11.538  0.2345E+01  0.7411E+02
     11.688  0.2419E+01  0.7447E+02
     11.838  0.2465E+01  0.7484E+02
     11.988  0.2436E+01  0.7521E+02
     12.138  0.1983E+01  0.7554E+02
     12.288  0.1660E+01  0.7581E+02
     12.438  0.1533E+01  0.7605E+02
     12.588  0.1739E+01  0.7629E+02
     12.738  0.2461E+01  0.7661E+02
     12.888  0.2202E+01  0.7696E+02
     13.037  0.2161E+01  0.7729E+02
     13.187  0.2727E+01  0.7763E+02
     13.337  0.3216E+01  0.7809E+02
     13.487  0.3060E+01  0.7857E+02
     13.637  0.2598E+01  0.7898E+02
     13.787  0.2692E+01  0.7938E+02
     13.937  0.2814E+01  0.7979E+02
     14.087  0.2945E+01  0.8021E+02
     14.237  0.3764E+01  0.8073E+02
     14.387  0.4372E+01  0.8134E+02
     14.537  0.4818E+01  0.8205E+02
     14.687  0.4992E+01  0.8280E+02
     14.837  0.4759E+01  0.8353E+02
     14.986  0.4748E+01  0.8423E+02
     15.136  0.5145E+01  0.8498E+02
     15.286  0.5104E+01  0.8577E+02
     15.436  0.4453E+01  0.8649E+02
     15.586  0.3838E+01  0.8711E+02
     15.736  0.3305E+01  0.8764E+02
     15.886  0.3433E+01  0.8815E+02
     16.036  0.3607E+01  0.8869E+02
     16.186  0.3673E+01  0.8923E+02
     16.336  0.4847E+01  0.8988E+02
     16.486  0.5488E+01  0.9065E+02
     16.636  0.5446E+01  0.9148E+02
     16.786  0.6024E+01  0.9233E+02
     16.935  0.6046E+01  0.9325E+02
     17.085  0.6074E+01  0.9416E+02
     17.235  0.6040E+01  0.9507E+02
     17.385  0.6074E+01  0.9598E+02
     17.535  0.6314E+01  0.9691E+02
     17.685  0.6223E+01  0.9785E+02
     17.835  0.6187E+01  0.9877E+02
     17.985  0.6068E+01  0.9969E+02
     18.135  0.6628E+01  0.1006E+03
     18.285  0.6291E+01  0.1016E+03
     18.435  0.5783E+01  0.1025E+03
     18.585  0.5677E+01  0.1034E+03
     18.735  0.5902E+01  0.1042E+03
     18.884  0.5816E+01  0.1051E+03
     19.034  0.5671E+01  0.1060E+03
     19.184  0.5105E+01  0.1068E+03
     19.334  0.5728E+01  0.1076E+03
     19.484  0.6612E+01  0.1085E+03
     19.634  0.6506E+01  0.1095E+03
     19.784  0.6024E+01  0.1104E+03
     19.934  0.5791E+01  0.1113E+03
     20.084  0.7732E+01  0.1123E+03
     20.234  0.7425E+01  0.1134E+03
     20.384  0.8106E+01  0.1146E+03
     20.534  0.1010E+02  0.1159E+03
     20.684  0.1078E+02  0.1175E+03
     20.833  0.1012E+02  0.1191E+03
     20.983  0.1036E+02  0.1207E+03
     21.133  0.7448E+01  0.1220E+03
     21.283  0.6680E+01  0.1230E+03
     21.433  0.4804E+01  0.1238E+03
     21.583  0.4914E+01  0.1246E+03
     21.733  0.4796E+01  0.1253E+03
     21.883  0.4745E+01  0.1260E+03
     22.033  0.3726E+01  0.1266E+03
     22.183  0.3857E+01  0.1272E+03
     22.333  0.4280E+01  0.1278E+03
     22.483  0.5363E+01  0.1285E+03
     22.633  0.6291E+01  0.1294E+03
     22.782  0.6078E+01  0.1303E+03
     22.932  0.6316E+01  0.1313E+03
     23.082  0.5858E+01  0.1322E+03
     23.232  0.5766E+01  0.1330E+03
     23.382  0.6077E+01  0.1339E+03
     23.532  0.4980E+01  0.1348E+03
     23.682  0.3911E+01  0.1354E+03
     23.832  0.4446E+01  0.1360E+03
     23.982  0.5939E+01  0.1369E+03
     24.132  0.4214E+01  0.1376E+03
     24.282  0.4502E+01  0.1382E+03
     24.432  0.4886E+01  0.1389E+03
     24.582  0.5189E+01  0.1397E+03
     24.731  0.5540E+01  0.1405E+03
     24.881  0.5498E+01  0.1414E+03
     25.031  0.5404E+01  0.1422E+03
     25.181  0.6074E+01  0.1430E+03
     25.331  0.4843E+01  0.1439E+03
     25.481  0.4712E+01  0.1446E+03
     25.631  0.4376E+01  0.1452E+03
     25.781  0.5760E+01  0.1459E+03
     25.931  0.6356E+01  0.1469E+03
     26.081  0.5190E+01  0.1477E+03
     26.231  0.6229E+01  0.1486E+03
     26.381  0.7253E+01  0.1496E+03
     26.531  0.7746E+01  0.1507E+03
     26.680  0.8019E+01  0.1519E+03
     26.830  0.7431E+01  0.1531E+03
     26.980  0.8297E+01  0.1542E+03
     27.130  0.8689E+01  0.1555E+03
     27.280  0.9338E+01  0.1569E+03
     27.430  0.9659E+01  0.1583E+03
     27.580  0.9993E+01  0.1598E+03
     27.730  0.1048E+02  0.1613E+03
     27.880  0.8328E+01  0.1628E+03
     28.030  0.6606E+01  0.1639E+03
     28.180  0.5907E+01  0.1648E+03
     28.330  0.4521E+01  0.1656E+03
     28.480  0.3297E+01  0.1662E+03
     28.629  0.2680E+01  0.1666E+03
     28.779  0.2118E+01  0.1670E+03
     28.929  0.1984E+01  0.1673E+03
     29.079  0.1683E+01  0.1676E+03
     29.229  0.1253E+01  0.1678E+03
     29.379  0.4550E+00  0.1679E+03
     29.529  0.2657E+00  0.1680E+03
     29.679  0.1520E+00  0.1680E+03
     29.829  0.1133E-01  0.1680E+03
     29.979  0.0000E+00  0.1680E+03
     30.129  0.0000E+00  0.1680E+03
     30.279  0.0000E+00  0.1680E+03
     30.429  0.0000E+00  0.1680E+03
     30.578  0.0000E+00  0.1680E+03
     30.728  0.0000E+00  0.1680E+03
     30.878  0.0000E+00  0.1680E+03
     31.028  0.0000E+00  0.1680E+03
     31.178  0.0000E+00  0.1680E+03
     31.328  0.0000E+00  0.1680E+03
     31.478  0.0000E+00  0.1680E+03
     31.628  0.0000E+00  0.1680E+03
     31.778  0.0000E+00  0.1680E+03
     31.928  0.0000E+00  0.1680E+03
