   32   32    1    1
  0.3102054E+01  0.4934311E-09  0.4934311E-09  0.4708020E-09  0.5000000E-15
  1.000000000000000E-004
  CAR 
 graphite                                
    128    163     84
 
  0.0000000E+00  0.0000000E+00  0.0000000E+00  0.3086420E-02
    1      -11.004666
    2       -6.123739
    3       -6.116914
    4       -5.671294
    5       -5.669723
    6       -5.668573
    7       -3.945575
    8       -3.944197
    9       -3.943127
   10       -1.390182
   11       -1.375316
   12       -1.373447
   13       -1.372352
   14       -1.371037
   15       -1.360602
   16        1.945341
   17        1.946829
   18        1.953867
   19        1.955370
   20        1.961488
   21        1.963025
   22        3.087711
   23        3.921917
   24        3.923044
   25        3.924328
   26        5.816100
   27        5.818840
   28        5.820081
   29        8.629337
   30        8.632070
   31        9.940557
   32        9.943228
   33        9.954236
   34        9.955075
   35        9.964077
   36        9.966258
   37       13.697093
   38       13.703840
   39       13.718072
   40       13.724090
   41       14.187616
   42       14.192231
   43       14.198102
   44       14.610229
   45       14.619420
   46       16.252300
   47       17.377231
   48       17.381392
   49       17.383764
   50       17.545351
   51       17.552073
   52       17.554814
   53       17.556150
   54       17.557130
   55       17.563762
   56       19.781822
   57       19.785144
   58       19.786762
   59       20.087799
   60       20.097296
   61       20.104445
   62       20.162485
   63       20.178304
   64       21.193240
   65       21.434697
   66       21.442305
   67       21.448665
   68       22.538119
   69       23.905424
   70       23.916338
   71       23.923992
   72       23.933791
   73       24.902214
   74       24.905361
   75       24.910534
   76       26.482195
   77       26.485602
   78       27.547272
   79       29.408587
   80       29.436482
   81       29.437498
   82       29.438229
   83       29.438646
   84       29.464297
 
  0.1111111E+00  0.1387779E-16  0.0000000E+00  0.6172840E-02
    1      -10.928452
    2       -6.335607
    3       -6.047919
    4       -6.041156
    5       -5.834611
    6       -5.831889
    7       -3.645248
    8       -3.641742
    9       -3.144523
   10       -1.795567
   11       -1.787151
   12       -1.452324
   13       -1.443885
   14       -1.441228
   15       -1.433781
   16        2.146103
   17        2.152660
   18        2.158032
   19        2.161817
   20        2.500167
   21        2.510157
   22        3.150426
   23        3.590016
   24        3.592982
   25        4.008011
   26        5.704591
   27        5.810990
   28        5.812358
   29        8.104112
   30        8.326470
   31        9.535687
   32        9.545885
   33        9.552389
   34        9.558558
   35       10.024175
   36       10.039266
   37       13.220696
   38       13.239527
   39       13.518565
   40       13.537304
   41       14.221478
   42       14.591953
   43       14.600736
   44       14.742529
   45       15.040427
   46       16.319030
   47       17.489852
   48       17.495367
   49       17.569402
   50       17.604624
   51       17.612033
   52       18.055661
   53       18.063798
   54       18.064760
   55       18.071278
   56       19.203087
   57       19.567678
   58       19.570466
   59       20.092462
   60       20.105342
   61       20.430412
   62       20.440458
   63       20.754010
   64       21.362050
   65       21.372126
   66       21.397081
   67       21.445734
   68       22.392615
   69       23.976887
   70       23.991023
   71       24.260902
   72       24.276875
   73       24.638953
   74       24.645555
   75       25.029126
   76       27.088514
   77       27.091913
   78       27.544797
   79       29.204303
   80       29.223513
   81       29.224713
   82       29.240124
   83       29.253422
   84       29.273407
 
  0.2222222E+00  0.4163336E-16  0.0000000E+00  0.6172840E-02
    1      -10.700021
    2       -7.351259
    3       -6.130292
    4       -6.126531
    5       -5.821345
    6       -5.814335
    7       -2.942985
    8       -2.938721
    9       -2.626791
   10       -2.618742
   11       -1.727153
   12       -1.605612
   13       -1.597442
   14       -1.595475
   15       -1.587738
   16        2.685049
   17        2.691581
   18        2.696806
   19        2.700800
   20        2.745006
   21        2.748977
   22        3.335135
   23        3.731672
   24        3.742338
   25        4.260603
   26        5.393357
   27        5.792380
   28        5.794157
   29        6.806294
   30        7.609437
   31        8.572246
   32        8.582234
   33        8.587618
   34        8.594178
   35       10.253434
   36       10.268635
   37       12.003478
   38       12.020488
   39       13.032934
   40       13.050808
   41       14.312317
   42       14.911633
   43       15.605640
   44       15.615727
   45       16.092547
   46       16.514223
   47       17.767293
   48       17.774276
   49       17.803393
   50       17.809056
   51       18.090241
   52       18.572022
   53       19.313822
   54       19.325145
   55       19.325564
   56       19.331448
   57       19.362820
   58       19.366545
   59       19.807696
   60       19.816551
   61       20.975224
   62       20.983045
   63       21.210988
   64       21.215885
   65       21.222785
   66       21.609749
   67       21.977895
   68       22.151789
   69       23.969224
   70       23.975397
   71       24.388460
   72       24.404072
   73       25.245578
   74       25.261063
   75       25.404652
   76       27.246356
   77       28.510759
   78       28.514648
   79       28.538104
   80       28.549896
   81       28.551563
   82       28.571630
   83       28.750482
   84       28.769745
 
  0.3333333E+00  0.5551115E-16  0.0000000E+00  0.6172840E-02
    1      -10.320163
    2       -8.296139
    3       -6.370960
    4       -6.366960
    5       -5.446994
    6       -5.439900
    7       -3.490306
    8       -3.482557
    9       -2.049239
   10       -2.044782
   11       -1.754994
   12       -1.746733
   13       -1.745294
   14       -1.737626
   15       -0.122664
   16        1.661169
   17        1.665644
   18        3.434537
   19        3.441614
   20        3.446528
   21        3.451177
   22        3.633027
   23        4.676390
   24        4.958907
   25        5.148861
   26        5.251306
   27        5.262739
   28        5.771650
   29        5.773684
   30        6.766704
   31        7.441108
   32        7.451450
   33        7.455710
   34        7.462634
   35       10.404700
   36       10.419940
   37       10.626865
   38       10.642272
   39       12.396054
   40       12.413056
   41       14.453436
   42       14.919734
   43       16.785578
   44       16.793597
   45       16.801444
   46       17.434423
   47       18.016139
   48       18.036366
   49       18.043845
   50       18.231803
   51       18.237425
   52       18.840260
   53       19.304887
   54       19.312057
   55       19.347759
   56       19.356205
   57       20.756783
   58       20.765193
   59       20.778337
   60       20.890812
   61       20.901994
   62       20.903846
   63       20.908923
   64       21.346691
   65       21.963912
   66       21.976128
   67       22.504353
   68       23.113807
   69       23.177270
   70       23.182516
   71       25.164564
   72       25.182026
   73       26.025864
   74       26.642490
   75       26.701632
   76       26.716670
   77       27.322445
   78       27.334274
   79       27.430539
   80       27.437887
   81       27.440212
   82       27.460787
   83       28.000333
   84       28.019509
 
  0.4444444E+00  0.8326673E-16  0.0000000E+00  0.6172840E-02
    1       -9.790483
    2       -9.113660
    3       -6.499319
    4       -6.495233
    5       -4.926984
    6       -4.919709
    7       -4.269269
    8       -4.261809
    9       -1.842058
   10       -1.833602
   11       -1.832467
   12       -1.824901
   13       -1.145857
   14       -1.141526
   15        0.634596
   16        0.639274
   17        1.593297
   18        3.371536
   19        4.023368
   20        4.159842
   21        4.169313
   22        4.172736
   23        4.178480
   24        4.481512
   25        5.248330
   26        5.757892
   27        5.760429
   28        5.955967
   29        6.500591
   30        6.513217
   31        6.516076
   32        6.523706
   33        6.921050
   34        6.933474
   35        8.666037
   36        8.679754
   37       11.129547
   38       11.145222
   39       11.735022
   40       11.751393
   41       14.626671
   42       14.799868
   43       17.139385
   44       17.541836
   45       17.566865
   46       17.575183
   47       18.402079
   48       18.409111
   49       18.582018
   50       18.587312
   51       18.803755
   52       18.851187
   53       18.858038
   54       19.485813
   55       19.499376
   56       19.700452
   57       19.973853
   58       20.342823
   59       20.347038
   60       20.564513
   61       22.262033
   62       22.277376
   63       22.279819
   64       22.282346
   65       22.609782
   66       22.613274
   67       23.277002
   68       23.291714
   69       23.336329
   70       23.723469
   71       25.118964
   72       25.132357
   73       26.111454
   74       26.128827
   75       26.275331
   76       26.276606
   77       26.280175
   78       26.300797
   79       26.477032
   80       26.870032
   81       27.090685
   82       27.109571
   83       27.437128
   84       27.874668
 
  0.0000000E+00  0.1111111E+00  0.0000000E+00  0.6172840E-02
    1      -10.928450
    2       -6.335524
    3       -6.047983
    4       -6.041141
    5       -5.836030
    6       -5.830475
    7       -3.646668
    8       -3.640938
    9       -3.143905
   10       -1.795628
   11       -1.787448
   12       -1.452644
   13       -1.443395
   14       -1.440984
   15       -1.433716
   16        2.145714
   17        2.152508
   18        2.155730
   19        2.162226
   20        2.501385
   21        2.511321
   22        3.150400
   23        3.589883
   24        3.594105
   25        4.006919
   26        5.704525
   27        5.810557
   28        5.812862
   29        8.105892
   30        8.324668
   31        9.536903
   32        9.546103
   33        9.552332
   34        9.560279
   35       10.022704
   36       10.037191
   37       13.226305
   38       13.241795
   39       13.515943
   40       13.531559
   41       14.222467
   42       14.592058
   43       14.599667
   44       14.745748
   45       15.036885
   46       16.318934
   47       17.490065
   48       17.495126
   49       17.570093
   50       17.604160
   51       17.611400
   52       18.055808
   53       18.063842
   54       18.064981
   55       18.072107
   56       19.203783
   57       19.566360
   58       19.572028
   59       20.092128
   60       20.105331
   61       20.430226
   62       20.437364
   63       20.756679
   64       21.365843
   65       21.373628
   66       21.391463
   67       21.446650
   68       22.392623
   69       23.975120
   70       23.984296
   71       24.271667
   72       24.277717
   73       24.638908
   74       24.645464
   75       25.029300
   76       27.087550
   77       27.090389
   78       27.544442
   79       29.201007
   80       29.222995
   81       29.224475
   82       29.236742
   83       29.256635
   84       29.275425
 
  0.1111111E+00  0.1111111E+00  0.0000000E+00  0.6172840E-02
    1      -10.776111
    2       -6.794844
    3       -6.786588
    4       -5.896851
    5       -5.889967
    6       -5.475276
    7       -3.724322
    8       -2.423338
    9       -2.414870
   10       -2.148601
   11       -2.138894
   12       -2.135386
   13       -2.128926
   14       -1.191557
   15       -1.183225
   16        2.150765
   17        2.160615
   18        2.663416
   19        3.104852
   20        3.114537
   21        3.116097
   22        3.125131
   23        3.274646
   24        3.757966
   25        3.760431
   26        5.592251
   27        5.596383
   28        5.901022
   29        7.270549
   30        7.742399
   31        8.496470
   32        8.509832
   33        9.693330
   34        9.699656
   35        9.707315
   36        9.715901
   37       12.429902
   38       12.447629
   39       13.119546
   40       13.137540
   41       14.651244
   42       14.657685
   43       15.019951
   44       15.586438
   45       15.631178
   46       16.459189
   47       17.643221
   48       17.845006
   49       17.847672
   50       18.158774
   51       18.164155
   52       18.167860
   53       18.172212
   54       18.920893
   55       18.929658
   56       19.279756
   57       19.288691
   58       19.774455
   59       19.966319
   60       19.976080
   61       20.550257
   62       21.178217
   63       21.183733
   64       21.213716
   65       21.304233
   66       21.312178
   67       21.926467
   68       22.113606
   69       23.827965
   70       24.004181
   71       24.009642
   72       24.898229
   73       24.902308
   74       25.139117
   75       25.149580
   76       27.372859
   77       28.065296
   78       28.069971
   79       28.797199
   80       28.820154
   81       28.821241
   82       28.827105
   83       28.828972
   84       28.851436
 
  0.2222222E+00  0.1111111E+00  0.0000000E+00  0.6172840E-02
    1      -10.471961
    2       -7.783040
    3       -7.135073
    4       -5.596454
    5       -5.589520
    6       -5.438798
    7       -3.217724
    8       -3.012211
    9       -3.004312
   10       -2.421448
   11       -2.413462
   12       -1.547830
   13       -1.081726
   14       -1.073240
   15       -0.899884
   16        1.488127
   17        2.538216
   18        2.548158
   19        2.996809
   20        3.515327
   21        3.890294
   22        3.900880
   23        4.093732
   24        4.503163
   25        4.514247
   26        5.216039
   27        5.498652
   28        5.900190
   29        5.964925
   30        6.870629
   31        7.263939
   32        7.276054
   33        8.821312
   34        8.834198
   35       10.005041
   36       10.019625
   37       11.111669
   38       11.128257
   39       12.446393
   40       12.463836
   41       14.769334
   42       15.241347
   43       15.683509
   44       16.585164
   45       16.777471
   46       16.789307
   47       18.003506
   48       18.250876
   49       18.336166
   50       18.366817
   51       18.374303
   52       18.473772
   53       18.785601
   54       19.442963
   55       19.451464
   56       19.671209
   57       19.746553
   58       19.754063
   59       20.859265
   60       20.869990
   61       20.899769
   62       20.945367
   63       20.948430
   64       21.383700
   65       21.596709
   66       21.885898
   67       22.113954
   68       22.775055
   69       22.822924
   70       24.335850
   71       24.343876
   72       24.409998
   73       25.420605
   74       26.567706
   75       26.581051
   76       26.832702
   77       27.821577
   78       27.836249
   79       27.917015
   80       28.043862
   81       28.060826
   82       28.091640
   83       28.109801
   84       28.578400
 
  0.3333333E+00  0.1111111E+00  0.0000000E+00  0.6172840E-02
    1      -10.017141
    2       -8.665932
    3       -7.346744
    4       -5.527438
    5       -5.148951
    6       -5.141731
    7       -3.839526
    8       -3.831914
    9       -2.599417
   10       -2.591409
   11       -2.365341
   12       -1.066531
   13       -1.057937
   14       -0.609096
   15        0.288079
   16        0.754679
   17        2.023327
   18        3.185623
   19        3.195604
   20        3.860231
   21        4.239482
   22        4.586310
   23        4.724019
   24        4.735047
   25        4.756781
   26        5.433573
   27        6.000758
   28        6.003222
   29        6.093406
   30        6.106435
   31        6.112287
   32        6.122031
   33        7.826855
   34        7.838738
   35        9.500811
   36        9.515525
   37       10.456154
   38       10.470908
   39       11.715961
   40       11.732205
   41       14.924776
   42       15.225050
   43       16.786367
   44       17.018032
   45       17.745269
   46       17.826796
   47       17.976221
   48       18.465744
   49       18.643891
   50       18.660757
   51       18.667778
   52       18.903979
   53       19.262013
   54       19.408836
   55       19.415357
   56       19.575798
   57       20.303704
   58       20.336329
   59       20.676746
   60       20.904205
   61       20.929932
   62       20.938106
   63       21.910770
   64       22.464884
   65       22.474656
   66       22.743586
   67       22.756646
   68       22.994324
   69       23.613283
   70       23.876741
   71       25.091982
   72       25.104157
   73       25.775737
   74       26.186874
   75       26.251423
   76       26.491091
   77       26.502827
   78       26.874753
   79       26.983289
   80       26.998494
   81       27.142134
   82       27.158910
   83       27.259623
   84       28.244528
 
  0.4444444E+00  0.1111111E+00  0.0000000E+00  0.6172840E-02
    1       -9.418087
    2       -9.409558
    3       -7.417859
    4       -5.569590
    5       -4.566035
    6       -4.557554
    7       -4.553659
    8       -4.547370
    9       -2.660185
   10       -2.652198
   11       -1.708709
   12       -1.071357
   13       -1.062748
   14       -0.480336
   15        0.009081
   16        1.378563
   17        2.486149
   18        2.489581
   19        3.630711
   20        3.640264
   21        4.282799
   22        4.288501
   23        5.203260
   24        5.213292
   25        5.227935
   26        5.237573
   27        5.410505
   28        5.498197
   29        5.507806
   30        6.013286
   31        7.276895
   32        7.288404
   33        7.781306
   34        7.792845
   35        7.800408
   36        7.807482
   37       11.027770
   38       11.040572
   39       11.043076
   40       11.061223
   41       15.087688
   42       15.096871
   43       17.250836
   44       17.388929
   45       17.394519
   46       18.116311
   47       18.722155
   48       18.817245
   49       19.015998
   50       19.024764
   51       19.028417
   52       19.032646
   53       19.262774
   54       19.273610
   55       19.362784
   56       19.548366
   57       19.710208
   58       20.100449
   59       20.104627
   60       20.538843
   61       21.494482
   62       21.756310
   63       21.762728
   64       23.361005
   65       23.367893
   66       23.642647
   67       23.679926
   68       23.696529
   69       23.865938
   70       24.162332
   71       24.550412
   72       24.730297
   73       25.704835
   74       25.713090
   75       26.081366
   76       26.097328
   77       26.106556
   78       26.113738
   79       26.269718
   80       26.282127
   81       26.359593
   82       26.379955
   83       27.151988
   84       27.156069
 
 -0.4444444E+00  0.1111111E+00  0.0000000E+00  0.6172840E-02
    1      -10.017215
    2       -8.665816
    3       -7.346882
    4       -5.527350
    5       -5.149013
    6       -5.141818
    7       -3.839428
    8       -3.831795
    9       -2.599526
   10       -2.591503
   11       -2.363916
   12       -1.066405
   13       -1.057860
   14       -0.610547
   15        0.286470
   16        0.754598
   17        2.025010
   18        3.186939
   19        3.196850
   20        3.860093
   21        4.239206
   22        4.586436
   23        4.721945
   24        4.733166
   25        4.758229
   26        5.433575
   27        6.000374
   28        6.003539
   29        6.093055
   30        6.105490
   31        6.111813
   32        6.121413
   33        7.827882
   34        7.840188
   35        9.500864
   36        9.515120
   37       10.456240
   38       10.471121
   39       11.716210
   40       11.731573
   41       14.923912
   42       15.227010
   43       16.789391
   44       17.017320
   45       17.742043
   46       17.827476
   47       17.975233
   48       18.468879
   49       18.641746
   50       18.660362
   51       18.667876
   52       18.905183
   53       19.262486
   54       19.408992
   55       19.415503
   56       19.577554
   57       20.304446
   58       20.332639
   59       20.677891
   60       20.903608
   61       20.932629
   62       20.941571
   63       21.907366
   64       22.462212
   65       22.470999
   66       22.741576
   67       22.757079
   68       22.993158
   69       23.617588
   70       23.879418
   71       25.098194
   72       25.110319
   73       25.771045
   74       26.186510
   75       26.249748
   76       26.488720
   77       26.501716
   78       26.880824
   79       26.984785
   80       26.999198
   81       27.137458
   82       27.154612
   83       27.252466
   84       28.241122
 
 -0.3333333E+00  0.1111111E+00  0.0000000E+00  0.6172840E-02
    1      -10.472014
    2       -7.782896
    3       -7.135348
    4       -5.596512
    5       -5.589524
    6       -5.438711
    7       -3.215955
    8       -3.012125
    9       -3.004186
   10       -2.421764
   11       -2.413740
   12       -1.549404
   13       -1.081429
   14       -1.073017
   15       -0.900003
   16        1.486324
   17        2.539723
   18        2.549548
   19        2.998695
   20        3.515129
   21        3.888890
   22        3.899494
   23        4.093864
   24        4.503121
   25        4.514165
   26        5.216075
   27        5.498669
   28        5.899303
   29        5.964857
   30        6.871309
   31        7.262548
   32        7.274399
   33        8.822451
   34        8.835951
   35       10.005223
   36       10.019815
   37       11.112124
   38       11.127290
   39       12.447177
   40       12.462525
   41       14.768782
   42       15.244736
   43       15.687965
   44       16.582988
   45       16.777838
   46       16.783511
   47       18.007750
   48       18.247295
   49       18.336808
   50       18.366760
   51       18.374395
   52       18.474027
   53       18.785938
   54       19.447006
   55       19.455761
   56       19.673361
   57       19.747309
   58       19.754450
   59       20.854471
   60       20.864924
   61       20.897574
   62       20.943321
   63       20.953344
   64       21.378843
   65       21.596201
   66       21.888809
   67       22.113255
   68       22.778100
   69       22.818078
   70       24.341712
   71       24.349710
   72       24.414520
   73       25.420348
   74       26.565746
   75       26.573737
   76       26.829627
   77       27.819872
   78       27.835604
   79       27.911854
   80       28.043768
   81       28.060523
   82       28.089104
   83       28.106106
   84       28.570643
 
 -0.2222222E+00  0.1111111E+00  0.0000000E+00  0.6172840E-02
    1      -10.776143
    2       -6.791451
    3       -6.790211
    4       -5.896885
    5       -5.889974
    6       -5.475112
    7       -3.722658
    8       -2.420582
    9       -2.419433
   10       -2.147334
   11       -2.138194
   12       -2.136906
   13       -2.129796
   14       -1.191117
   15       -1.182925
   16        2.152284
   17        2.161954
   18        2.661574
   19        3.105435
   20        3.112879
   21        3.116381
   22        3.122575
   23        3.274879
   24        3.759654
   25        3.760720
   26        5.593460
   27        5.595227
   28        5.900958
   29        7.268525
   30        7.744192
   31        8.495237
   32        8.508085
   33        9.693699
   34        9.701186
   35        9.709021
   36        9.715083
   37       12.431037
   38       12.446299
   39       13.120457
   40       13.135630
   41       14.653670
   42       14.659904
   43       15.025697
   44       15.581548
   45       15.625991
   46       16.458758
   47       17.647778
   48       17.842133
   49       17.846474
   50       18.160880
   51       18.167498
   52       18.169065
   53       18.174814
   54       18.925101
   55       18.926201
   56       19.275394
   57       19.284151
   58       19.777248
   59       19.967636
   60       19.977424
   61       20.545993
   62       21.178074
   63       21.178884
   64       21.214695
   65       21.308843
   66       21.311892
   67       21.928158
   68       22.113243
   69       23.822449
   70       24.008046
   71       24.012953
   72       24.900043
   73       24.905772
   74       25.140584
   75       25.143352
   76       27.368854
   77       28.064200
   78       28.066799
   79       28.795330
   80       28.820550
   81       28.821435
   82       28.825967
   83       28.826666
   84       28.850601
 
 -0.1111111E+00  0.1111111E+00  0.0000000E+00  0.6172840E-02
    1      -10.928460
    2       -6.335919
    3       -6.048006
    4       -6.041096
    5       -5.834747
    6       -5.831381
    7       -3.644567
    8       -3.641578
    9       -3.145424
   10       -1.796052
   11       -1.787833
   12       -1.452923
   13       -1.442296
   14       -1.440188
   15       -1.434413
   16        2.147100
   17        2.152051
   18        2.156859
   19        2.162936
   20        2.499885
   21        2.509912
   22        3.150421
   23        3.589927
   24        3.592248
   25        4.008765
   26        5.704606
   27        5.809924
   28        5.813409
   29        8.103782
   30        8.326669
   31        9.537374
   32        9.544437
   33        9.551268
   34        9.559951
   35       10.023464
   36       10.038834
   37       13.225302
   38       13.243610
   39       13.513459
   40       13.532678
   41       14.227476
   42       14.589957
   43       14.596601
   44       14.750506
   45       15.032368
   46       16.318779
   47       17.493469
   48       17.496334
   49       17.565098
   50       17.609454
   51       17.616460
   52       18.054957
   53       18.060550
   54       18.063103
   55       18.068519
   56       19.203719
   57       19.567891
   58       19.572369
   59       20.092920
   60       20.106424
   61       20.426927
   62       20.436842
   63       20.758527
   64       21.365940
   65       21.375456
   66       21.389956
   67       21.446832
   68       22.392491
   69       23.969910
   70       23.984927
   71       24.270005
   72       24.284973
   73       24.637420
   74       24.641068
   75       25.035146
   76       27.085836
   77       27.089720
   78       27.542716
   79       29.199147
   80       29.223922
   81       29.224786
   82       29.233650
   83       29.256743
   84       29.277814
 
 -0.3388132E-20  0.2222222E+00  0.0000000E+00  0.6172840E-02
    1      -10.700012
    2       -7.351178
    3       -6.132298
    4       -6.124667
    5       -5.821321
    6       -5.814341
    7       -2.945021
    8       -2.937267
    9       -2.626768
   10       -2.618825
   11       -1.726208
   12       -1.606613
   13       -1.597510
   14       -1.594829
   15       -1.587349
   16        2.683912
   17        2.692081
   18        2.694280
   19        2.701812
   20        2.743987
   21        2.750627
   22        3.335341
   23        3.732794
   24        3.743377
   25        4.259496
   26        5.393290
   27        5.791686
   28        5.794930
   29        6.807857
   30        7.607772
   31        8.572439
   32        8.582849
   33        8.587138
   34        8.596335
   35       10.251869
   36       10.266430
   37       12.007668
   38       12.022606
   39       13.030425
   40       13.045860
   41       14.313353
   42       14.914420
   43       15.605074
   44       15.614910
   45       16.088385
   46       16.513991
   47       17.767187
   48       17.774387
   49       17.802918
   50       17.809067
   51       18.090218
   52       18.572535
   53       19.314804
   54       19.324279
   55       19.326738
   56       19.334078
   57       19.362587
   58       19.368173
   59       19.807207
   60       19.816259
   61       20.975032
   62       20.980397
   63       21.205823
   64       21.219735
   65       21.222251
   66       21.613213
   67       21.977914
   68       22.154423
   69       23.968884
   70       23.975736
   71       24.387472
   72       24.402174
   73       25.254624
   74       25.262226
   75       25.404785
   76       27.243984
   77       28.508499
   78       28.511980
   79       28.532731
   80       28.548871
   81       28.551626
   82       28.566156
   83       28.754219
   84       28.772182
 
  0.1111111E+00  0.2222222E+00  0.0000000E+00  0.6172840E-02
    1      -10.471954
    2       -7.782952
    3       -7.135184
    4       -5.596448
    5       -5.589516
    6       -5.438846
    7       -3.217690
    8       -3.012212
    9       -3.004363
   10       -2.421445
   11       -2.413394
   12       -1.548401
   13       -1.081628
   14       -1.073208
   15       -0.899361
   16        1.488108
   17        2.538208
   18        2.548114
   19        2.997688
   20        3.515244
   21        3.889136
   22        3.899912
   23        4.092667
   24        4.504439
   25        4.515411
   26        5.215950
   27        5.498700
   28        5.901162
   29        5.964935
   30        6.869539
   31        7.263936
   32        7.276010
   33        8.822521
   34        8.835702
   35       10.003599
   36       10.017635
   37       11.113945
   38       11.129126
   39       12.445423
   40       12.460889
   41       14.770448
   42       15.243269
   43       15.681991
   44       16.583228
   45       16.777144
   46       16.788315
   47       18.003476
   48       18.250798
   49       18.335954