   4   4   0   0
  0.6647258E+01  0.2467155E-09  0.2467155E-09  0.5044307E-09  0.5000000E-15
  1.000000000000000E-004
  CAR 
 graphite                                
     22.69924761    -14.85034470  301      7.50162294      1.00000000
    -14.850  0.0000E+00  0.0000E+00
    -14.725  0.0000E+00  0.0000E+00
    -14.600  0.0000E+00  0.0000E+00
    -14.475  0.0000E+00  0.0000E+00
    -14.350  0.0000E+00  0.0000E+00
    -14.225  0.0000E+00  0.0000E+00
    -14.099  0.0000E+00  0.0000E+00
    -13.974  0.0000E+00  0.0000E+00
    -13.849  0.0000E+00  0.0000E+00
    -13.724  0.0000E+00  0.0000E+00
    -13.599  0.0000E+00  0.0000E+00
    -13.474  0.0000E+00  0.0000E+00
    -13.348  0.0000E+00  0.0000E+00
    -13.223  0.0000E+00  0.0000E+00
    -13.098  0.0000E+00  0.0000E+00
    -12.973  0.0000E+00  0.0000E+00
    -12.848  0.5150E-06  0.4541E-09
    -12.723  0.4703E-03  0.3420E-04
    -12.597  0.7927E-03  0.1131E-03
    -12.472  0.9369E-03  0.2204E-03
    -12.347  0.1137E-02  0.3500E-03
    -12.222  0.1269E-02  0.5010E-03
    -12.097  0.1401E-02  0.6680E-03
    -11.972  0.1555E-02  0.8532E-03
    -11.846  0.1678E-02  0.1056E-02
    -11.721  0.1800E-02  0.1274E-02
    -11.596  0.1933E-02  0.1507E-02
    -11.471  0.2077E-02  0.1758E-02
    -11.346  0.2213E-02  0.2027E-02
    -11.221  0.2363E-02  0.2313E-02
    -11.095  0.2542E-02  0.2619E-02
    -10.970  0.2794E-02  0.2950E-02
    -10.845  0.3074E-02  0.3327E-02
    -10.720  0.3105E-02  0.3715E-02
    -10.595  0.3098E-02  0.4102E-02
    -10.470  0.3108E-02  0.4491E-02
    -10.344  0.3103E-02  0.4879E-02
    -10.219  0.3125E-02  0.5269E-02
    -10.094  0.3135E-02  0.5661E-02
     -9.969  0.3130E-02  0.6053E-02
     -9.844  0.3138E-02  0.6445E-02
     -9.719  0.3150E-02  0.6838E-02
     -9.593  0.3147E-02  0.7233E-02
     -9.468  0.3156E-02  0.7627E-02
     -9.343  0.3175E-02  0.8023E-02
     -9.218  0.3188E-02  0.8421E-02
     -9.093  0.3194E-02  0.8821E-02
     -8.968  0.3194E-02  0.9220E-02
     -8.842  0.3205E-02  0.9621E-02
     -8.717  0.3222E-02  0.1002E-01
     -8.592  0.3239E-02  0.1043E-01
     -8.467  0.3257E-02  0.1083E-01
     -8.342  0.3270E-02  0.1124E-01
     -8.217  0.3287E-02  0.1165E-01
     -8.091  0.3311E-02  0.1207E-01
     -7.966  0.3344E-02  0.1248E-01
     -7.841  0.3392E-02  0.1290E-01
     -7.716  0.3456E-02  0.1333E-01
     -7.591  0.3527E-02  0.1377E-01
     -7.466  0.3853E-02  0.1424E-01
     -7.340  0.3834E-02  0.1472E-01
     -7.215  0.3722E-02  0.1519E-01
     -7.090  0.3961E-02  0.1568E-01
     -6.965  0.3676E-02  0.1615E-01
     -6.840  0.3629E-02  0.1661E-01
     -6.715  0.3747E-02  0.1706E-01
     -6.589  0.3999E-02  0.1757E-01
     -6.464  0.4750E-02  0.1811E-01
     -6.339  0.2504E-02  0.1846E-01
     -6.214  0.2167E-02  0.1876E-01
     -6.089  0.2085E-02  0.1902E-01
     -5.964  0.1970E-02  0.1929E-01
     -5.838  0.1211E-02  0.1947E-01
     -5.713  0.1016E-02  0.1961E-01
     -5.588  0.2099E-02  0.1977E-01
     -5.463  0.2528E-02  0.2009E-01
     -5.338  0.2815E-02  0.2041E-01
     -5.213  0.3709E-02  0.2082E-01
     -5.087  0.2725E-02  0.2120E-01
     -4.962  0.3204E-02  0.2156E-01
     -4.837  0.4427E-02  0.2203E-01
     -4.712  0.5039E-02  0.2269E-01
     -4.587  0.4131E-02  0.2324E-01
     -4.462  0.4244E-02  0.2377E-01
     -4.336  0.4022E-02  0.2429E-01
     -4.211  0.4221E-02  0.2481E-01
     -4.086  0.3444E-02  0.2529E-01
     -3.961  0.3326E-02  0.2571E-01
     -3.836  0.3231E-02  0.2612E-01
     -3.711  0.3140E-02  0.2652E-01
     -3.585  0.3029E-02  0.2690E-01
     -3.460  0.2915E-02  0.2728E-01
     -3.335  0.2840E-02  0.2764E-01
     -3.210  0.2774E-02  0.2799E-01
     -3.085  0.2708E-02  0.2833E-01
     -2.960  0.2654E-02  0.2867E-01
     -2.834  0.2835E-02  0.2901E-01
     -2.709  0.3829E-02  0.2941E-01
     -2.584  0.3579E-02  0.2989E-01
     -2.459  0.3811E-02  0.3035E-01
     -2.334  0.3967E-02  0.3084E-01
     -2.209  0.4094E-02  0.3135E-01
     -2.083  0.4238E-02  0.3187E-01
     -1.958  0.4318E-02  0.3240E-01
     -1.833  0.4376E-02  0.3295E-01
     -1.708  0.4463E-02  0.3350E-01
     -1.583  0.4553E-02  0.3406E-01
     -1.458  0.4627E-02  0.3464E-01
     -1.332  0.4699E-02  0.3522E-01
     -1.207  0.4814E-02  0.3582E-01
     -1.082  0.4977E-02  0.3643E-01
     -0.957  0.5308E-02  0.3707E-01
     -0.832  0.5594E-02  0.3776E-01
     -0.707  0.5355E-02  0.3845E-01
     -0.581  0.5241E-02  0.3911E-01
     -0.456  0.5191E-02  0.3976E-01
     -0.331  0.5154E-02  0.4041E-01
     -0.206  0.5095E-02  0.4105E-01
     -0.081  0.5076E-02  0.4168E-01
      0.044  0.5730E-02  0.4235E-01
      0.169  0.6342E-02  0.4311E-01
      0.295  0.6768E-02  0.4393E-01
      0.420  0.6644E-02  0.4475E-01
      0.545  0.6641E-02  0.4559E-01
      0.670  0.6793E-02  0.4643E-01
      0.795  0.7458E-02  0.4731E-01
      0.920  0.8406E-02  0.4831E-01
      1.046  0.8875E-02  0.4941E-01
      1.171  0.8715E-02  0.5051E-01
      1.296  0.8253E-02  0.5157E-01
      1.421  0.8372E-02  0.5260E-01
      1.546  0.8243E-02  0.5365E-01
      1.671  0.7938E-02  0.5463E-01
      1.797  0.6685E-02  0.5549E-01
      1.922  0.6765E-02  0.5634E-01
      2.047  0.6661E-02  0.5718E-01
      2.172  0.6330E-02  0.5800E-01
      2.297  0.6069E-02  0.5878E-01
      2.422  0.6096E-02  0.5953E-01
      2.548  0.6016E-02  0.6029E-01
      2.673  0.5913E-02  0.6104E-01
      2.798  0.5663E-02  0.6177E-01
      2.923  0.5562E-02  0.6247E-01
      3.048  0.5894E-02  0.6319E-01
      3.173  0.5689E-02  0.6391E-01
      3.299  0.5784E-02  0.6463E-01
      3.424  0.5710E-02  0.6535E-01
      3.549  0.5571E-02  0.6605E-01
      3.674  0.5847E-02  0.6676E-01
      3.799  0.5815E-02  0.6750E-01
      3.924  0.5542E-02  0.6821E-01
      4.050  0.5281E-02  0.6889E-01
      4.175  0.5330E-02  0.6955E-01
      4.300  0.5843E-02  0.7026E-01
      4.425  0.5422E-02  0.7098E-01
      4.550  0.4374E-02  0.7159E-01
      4.675  0.3544E-02  0.7210E-01
      4.801  0.2961E-02  0.7249E-01
      4.926  0.2905E-02  0.7286E-01
      5.051  0.2854E-02  0.7322E-01
      5.176  0.2814E-02  0.7357E-01
      5.301  0.2798E-02  0.7392E-01
      5.426  0.2930E-02  0.7428E-01
      5.552  0.3245E-02  0.7466E-01
      5.677  0.4008E-02  0.7513E-01
      5.802  0.4478E-02  0.7567E-01
      5.927  0.4189E-02  0.7620E-01
      6.052  0.4043E-02  0.7672E-01
      6.177  0.4056E-02  0.7723E-01
      6.303  0.3976E-02  0.7773E-01
      6.428  0.2962E-02  0.7817E-01
      6.553  0.2456E-02  0.7851E-01
      6.678  0.2242E-02  0.7880E-01
      6.803  0.1984E-02  0.7907E-01
      6.928  0.1815E-02  0.7930E-01
      7.054  0.1801E-02  0.7954E-01
      7.179  0.1458E-02  0.7974E-01
      7.304  0.8537E-03  0.7990E-01
      7.429  0.4213E-03  0.7998E-01
      7.554  0.1927E-03  0.8001E-01
      7.679  0.1918E-03  0.8003E-01
      7.805  0.3009E-03  0.8006E-01
      7.930  0.4133E-03  0.8011E-01
      8.055  0.6923E-03  0.8019E-01
      8.180  0.6676E-03  0.8027E-01
      8.305  0.7334E-03  0.8036E-01
      8.430  0.8169E-03  0.8046E-01
      8.556  0.9271E-03  0.8057E-01
      8.681  0.1032E-02  0.8069E-01
      8.806  0.1175E-02  0.8083E-01
      8.931  0.1655E-02  0.8100E-01
      9.056  0.1861E-02  0.8122E-01
      9.181  0.2434E-02  0.8149E-01
      9.307  0.3624E-02  0.8189E-01
      9.432  0.3847E-02  0.8237E-01
      9.557  0.4140E-02  0.8287E-01
      9.682  0.4030E-02  0.8338E-01
      9.807  0.4492E-02  0.8390E-01
      9.932  0.4195E-02  0.8447E-01
     10.058  0.3653E-02  0.8496E-01
     10.183  0.3472E-02  0.8540E-01
     10.308  0.3191E-02  0.8582E-01
     10.433  0.3100E-02  0.8621E-01
     10.558  0.3403E-02  0.8662E-01
     10.683  0.3605E-02  0.8706E-01
     10.809  0.3140E-02  0.8748E-01
     10.934  0.2934E-02  0.8786E-01
     11.059  0.2921E-02  0.8822E-01
     11.184  0.2804E-02  0.8858E-01
     11.309  0.2635E-02  0.8892E-01
     11.434  0.2541E-02  0.8924E-01
     11.560  0.2444E-02  0.8955E-01
     11.685  0.2347E-02  0.8985E-01
     11.810  0.2297E-02  0.9014E-01
     11.935  0.2252E-02  0.9043E-01
     12.060  0.2209E-02  0.9071E-01
     12.185  0.2166E-02  0.9098E-01
     12.311  0.2122E-02  0.9125E-01
     12.436  0.2079E-02  0.9151E-01
     12.561  0.2027E-02  0.9177E-01
     12.686  0.1984E-02  0.9202E-01
     12.811  0.1953E-02  0.9227E-01
     12.936  0.1924E-02  0.9251E-01
     13.062  0.1897E-02  0.9275E-01
     13.187  0.1871E-02  0.9298E-01
     13.312  0.1846E-02  0.9322E-01
     13.437  0.1821E-02  0.9345E-01
     13.562  0.1796E-02  0.9367E-01
     13.687  0.1771E-02  0.9390E-01
     13.813  0.1756E-02  0.9412E-01
     13.938  0.2021E-02  0.9435E-01
     14.063  0.2421E-02  0.9462E-01
     14.188  0.2851E-02  0.9495E-01
     14.313  0.3057E-02  0.9532E-01
     14.438  0.3247E-02  0.9572E-01
     14.564  0.3410E-02  0.9614E-01
     14.689  0.3598E-02  0.9657E-01
     14.814  0.3804E-02  0.9704E-01
     14.939  0.3996E-02  0.9753E-01
     15.064  0.4243E-02  0.9804E-01
     15.189  0.4525E-02  0.9859E-01
     15.314  0.4807E-02  0.9917E-01
     15.440  0.5151E-02  0.9980E-01
     15.565  0.5541E-02  0.1005E+00
     15.690  0.7172E-02  0.1012E+00
     15.815  0.7370E-02  0.1023E+00
     15.940  0.6950E-02  0.1032E+00
     16.065  0.7786E-02  0.1041E+00
     16.191  0.8109E-02  0.1052E+00
     16.316  0.7601E-02  0.1062E+00
     16.441  0.8349E-02  0.1072E+00
     16.566  0.7031E-02  0.1081E+00
     16.691  0.6713E-02  0.1090E+00
     16.816  0.6487E-02  0.1098E+00
     16.942  0.6210E-02  0.1106E+00
     17.067  0.6509E-02  0.1114E+00
     17.192  0.6896E-02  0.1122E+00
     17.317  0.6990E-02  0.1131E+00
     17.442  0.6743E-02  0.1140E+00
     17.567  0.3647E-02  0.1146E+00
     17.693  0.3001E-02  0.1150E+00
     17.818  0.2789E-02  0.1154E+00
     17.943  0.2681E-02  0.1157E+00
     18.068  0.2651E-02  0.1161E+00
     18.193  0.3965E-02  0.1165E+00
     18.318  0.4118E-02  0.1170E+00
     18.444  0.3885E-02  0.1175E+00
     18.569  0.3003E-02  0.1180E+00
     18.694  0.2389E-02  0.1183E+00
     18.819  0.1968E-02  0.1186E+00
     18.944  0.1709E-02  0.1188E+00
     19.069  0.1392E-02  0.1190E+00
     19.195  0.1186E-02  0.1192E+00
     19.320  0.1017E-02  0.1193E+00
     19.445  0.1189E-02  0.1194E+00
     19.570  0.7644E-03  0.1195E+00
     19.695  0.9486E-03  0.1196E+00
     19.820  0.6445E-03  0.1198E+00
     19.946  0.5193E-03  0.1198E+00
     20.071  0.4000E-03  0.1199E+00
     20.196  0.3075E-03  0.1199E+00
     20.321  0.2419E-03  0.1200E+00
     20.446  0.1485E-03  0.1200E+00
     20.571  0.8090E-04  0.1200E+00
     20.697  0.6015E-07  0.1200E+00
     20.822  0.0000E+00  0.1200E+00
     20.947  0.0000E+00  0.1200E+00
     21.072  0.0000E+00  0.1200E+00
     21.197  0.0000E+00  0.1200E+00
     21.322  0.0000E+00  0.1200E+00
     21.448  0.0000E+00  0.1200E+00
     21.573  0.0000E+00  0.1200E+00
     21.698  0.0000E+00  0.1200E+00
     21.823  0.0000E+00  0.1200E+00
     21.948  0.0000E+00  0.1200E+00
     22.073  0.0000E+00  0.1200E+00
     22.199  0.0000E+00  0.1200E+00
     22.324  0.0000E+00  0.1200E+00
     22.449  0.0000E+00  0.1200E+00
     22.574  0.0000E+00  0.1200E+00
     22.699  0.0000E+00  0.1200E+00
