32   
4    

1    
  0.0043936103255391  -0.0000001980294981   0.0089831057139555
  -0.2744680400    0.0047886100   -0.1369032200
   0.0381603900    0.0031010300    0.0048275400
  -0.0101559400   -0.0247674100    0.0049099000
  -0.0103789600    0.0311819100    0.0047254500
  -0.0055166500    0.0032050400    0.0070622600
  -0.0048329800    0.0032161400    0.0083952700
  -0.0049997000    0.0030947100    0.0083934400
  -0.0049731400    0.0033024300    0.0083863600
   0.0064847000   -0.0041260500   -0.0079691200
   0.0032625700   -0.0040979700   -0.0095377200
   0.0048292300   -0.0013265600   -0.0087616000
   0.0039224400   -0.0031996200   -0.0034305500
   0.0034174000   -0.0022926500   -0.0099342900
   0.0065609800   -0.0022228700   -0.0083899800
   0.0049085000   -0.0049939000   -0.0091659300
   0.0040402000   -0.0031859200   -0.0034815000
   0.0068839800   -0.0020218200    0.0117167200
   0.0437554200   -0.0025490600    0.0332850200
   0.0978991800    0.0291358500    0.0337949100
   0.0994056000   -0.0342376100    0.0327078500
   0.0030773400   -0.0019780500   -0.0017607300
   0.0028215200   -0.0019923900   -0.0015354500
   0.0031104700   -0.0018225400   -0.0015476200
   0.0030896900   -0.0021228400   -0.0015104200
  -0.0068526500    0.0040444000    0.0069680800
   0.0024001600    0.0053567700    0.0081191600
  -0.0033774500   -0.0033035100    0.0075551700
  -0.0024739200    0.0020276100    0.0011069900
   0.0022709100   -0.0012540400    0.0075896100
  -0.0065686300    0.0000378700    0.0065469200
  -0.0032831400    0.0070541200    0.0070606100
  -0.0024195100    0.0019483100    0.0007768600

1    
 -0.0043936103255391   0.0000001980294981  -0.0089831057139555
   0.2633942000    0.0046644800    0.1368288500
  -0.0492265800    0.0030974200   -0.0048685600
  -0.0007108500    0.0311696000   -0.0047864600
  -0.0009007200   -0.0247706300   -0.0049317300
  -0.0055752800    0.0031902200   -0.0069728400
  -0.0062576200    0.0031961300   -0.0083076200
  -0.0061155200    0.0032799600   -0.0083100900
  -0.0060879400    0.0030743700   -0.0082952400
   0.0044864400   -0.0022698500    0.0084475000
   0.0076556600   -0.0023274800    0.0100159000
   0.0061358000   -0.0050388600    0.0092316800
   0.0070092600   -0.0032047600    0.0035472000
   0.0078253700   -0.0041357300    0.0094252100
   0.0046327200   -0.0041783800    0.0078787400
   0.0062814800   -0.0013717700    0.0086646100
   0.0071701800   -0.0032175800    0.0033317700
  -0.0003792100   -0.0016731800   -0.0119137600
  -0.0372410700   -0.0021616700   -0.0334782400
  -0.0928245800   -0.0338562400   -0.0329471200
  -0.0914637800    0.0295226400   -0.0339337300
   0.0035398300   -0.0018213500    0.0019281700
   0.0037925200   -0.0018450900    0.0017019100
   0.0035298600   -0.0019671100    0.0016920700
   0.0035049400   -0.0016671600    0.0017003900
   0.0001389700   -0.0001345300   -0.0065122400
  -0.0087126400   -0.0014216000   -0.0075608900
  -0.0031601200    0.0068727200   -0.0070548700
  -0.0040376600    0.0017723000   -0.0007466600
  -0.0090731900    0.0051348200   -0.0081374900
   0.0001668400    0.0038234300   -0.0069819900
  -0.0033056800   -0.0035331700   -0.0075358900
  -0.0041916500    0.0017980300   -0.0011186000

17   
  0.0043936103255391  -0.0000001980294981   0.0089831057139555
  -0.0021478100    0.0032218300    0.0057389300
   0.0346022000    0.0037497200    0.0273084800
   0.0902335200    0.0354296200    0.0267112000
   0.0889522700   -0.0280546900    0.0278425200
  -0.0057774200    0.0031785400   -0.0084995100
  -0.0061563300    0.0031987500   -0.0082751600
  -0.0057990200    0.0033929800   -0.0082774700
  -0.0057551400    0.0029576200   -0.0082606700
   0.0056572300   -0.0031978800    0.0115049000
   0.0079430300   -0.0018560400    0.0159874300
   0.0056333500   -0.0044631000    0.0137387900
   0.0063753400   -0.0031568400    0.0073000100
   0.0079107300   -0.0043924300    0.0157671500
   0.0057034400   -0.0032136300    0.0114066800
   0.0057814100   -0.0019039200    0.0135966800
   0.0064621300   -0.0031636900    0.0072986800
  -0.2626443600   -0.0037485100   -0.1561629600
   0.0485267600   -0.0021478600   -0.0019493100
   0.0063998500   -0.0265375700   -0.0020163600
   0.0065858000    0.0220274200   -0.0019034200
   0.0029084200   -0.0013214800    0.0015841300
   0.0032382800   -0.0013328000    0.0007613000
   0.0032340200   -0.0013346400    0.0007624700
   0.0032181700   -0.0013185200    0.0007552000
  -0.0055611300    0.0015144300    0.0023277200
  -0.0063676900    0.0015373100    0.0019215000
  -0.0059864400    0.0022189700    0.0021077000
  -0.0078907100    0.0017374000   -0.0021781400
  -0.0062516200    0.0020120700    0.0016502900
  -0.0055141300    0.0019129700    0.0019914900
  -0.0057989800    0.0013142200    0.0018170100
  -0.0077151900    0.0017397600   -0.0023573000

17   
 -0.0043936103255391   0.0000001980294981  -0.0089831057139555
  -0.0091576300    0.0032484000   -0.0055226000
  -0.0459096800    0.0038055600   -0.0270892900
  -0.1002071600   -0.0279878200   -0.0276569200
  -0.1016120600    0.0354979800   -0.0264677200
  -0.0053114200    0.0031660800    0.0082571000
  -0.0049238300    0.0031827200    0.0080317700
  -0.0053270100    0.0029377900    0.0080283400
  -0.0053164500    0.0033819100    0.0080238800
   0.0055071000   -0.0032301500   -0.0113981600
   0.0032972500   -0.0043950500   -0.0157697700
   0.0054239200   -0.0019122000   -0.0135959800
   0.0047526600   -0.0031820300   -0.0072984700
   0.0032728600   -0.0018536300   -0.0159482900
   0.0055393000   -0.0032081400   -0.0114820900
   0.0055907400   -0.0044772100   -0.0137072200
   0.0048453600   -0.0031833700   -0.0072677500
   0.2735978800   -0.0045375800    0.1565165300
  -0.0375699600   -0.0028099400    0.0023066200
   0.0043604100    0.0213587300    0.0022354400
   0.0045567300   -0.0272037800    0.0023984300
   0.0027163900   -0.0010589400   -0.0020374600
   0.0023650900   -0.0010573800   -0.0012127600
   0.0023808200   -0.0010393400   -0.0012131600
   0.0023719300   -0.0010632000   -0.0012096000
  -0.0026235800    0.0020685300   -0.0021610900
  -0.0018693000    0.0021724600   -0.0018048400
  -0.0023279300    0.0014695400   -0.0019860700
  -0.0004171500    0.0019014400    0.0021896500
  -0.0020999200    0.0017863400   -0.0016766800
  -0.0028881500    0.0017627200   -0.0020631200
  -0.0024664200    0.0024670400   -0.0018568500
  -0.0005508200    0.0019925400    0.0024381100
