# Thermal properties / unit cell (natom)

unit:
  temperature:   K
  free_energy:   kJ/mol
  entropy:       J/K/mol
  heat_capacity: J/K/mol

natom:     4
num_modes: 3888
num_integrated_modes: 3856

zero_point_energy:      66.8469612
high_T_entropy:        224.5860088

thermal_properties:
- temperature:         0.0000000
  free_energy:        66.8469612
  entropy:             0.0000000
  heat_capacity:       0.0000000
  energy:             66.8469612

- temperature:        10.0000000
  free_energy:        66.8468162
  entropy:             0.0548244
  heat_capacity:       0.1162806
  energy:             66.8473645

- temperature:        20.0000000
  free_energy:        66.8457166
  entropy:             0.1604144
  heat_capacity:       0.1825154
  energy:             66.8489249

- temperature:        30.0000000
  free_energy:        66.8436887
  entropy:             0.2428385
  heat_capacity:       0.2316272
  energy:             66.8509739

- temperature:        40.0000000
  free_energy:        66.8408740
  entropy:             0.3207405
  heat_capacity:       0.3235869
  energy:             66.8537036

- temperature:        50.0000000
  free_energy:        66.8372409
  entropy:             0.4084401
  heat_capacity:       0.4808457
  energy:             66.8576629

- temperature:        60.0000000
  free_energy:        66.8326382
  entropy:             0.5162068
  heat_capacity:       0.7251540
  energy:             66.8636106

- temperature:        70.0000000
  free_energy:        66.8268198
  entropy:             0.6530286
  heat_capacity:       1.0790872
  energy:             66.8725318

- temperature:        80.0000000
  free_energy:        66.8194533
  entropy:             0.8271078
  heat_capacity:       1.5617193
  energy:             66.8856220

- temperature:        90.0000000
  free_energy:        66.8101291
  entropy:             1.0456913
  heat_capacity:       2.1866871
  energy:             66.9042414

- temperature:       100.0000000
  free_energy:        66.7983708
  entropy:             1.3148345
  heat_capacity:       2.9609754
  energy:             66.9298543

- temperature:       110.0000000
  free_energy:        66.7836483
  entropy:             1.6391805
  heat_capacity:       3.8841985
  energy:             66.9639581

- temperature:       120.0000000
  free_energy:        66.7653927
  entropy:             2.0218150
  heat_capacity:       4.9489199
  energy:             67.0080105

- temperature:       130.0000000
  free_energy:        66.7430125
  entropy:             2.4642491
  heat_capacity:       6.1420168
  energy:             67.0633649

- temperature:       140.0000000
  free_energy:        66.7159081
  entropy:             2.9665332
  heat_capacity:       7.4466217
  energy:             67.1312228

- temperature:       150.0000000
  free_energy:        66.6834862
  entropy:             3.5274716
  heat_capacity:       8.8441156
  energy:             67.2126069

- temperature:       160.0000000
  free_energy:        66.6451703
  entropy:             4.1448871
  heat_capacity:      10.3158109
  energy:             67.3083523

- temperature:       170.0000000
  free_energy:        66.6004098
  entropy:             4.8158943
  heat_capacity:      11.8441643
  energy:             67.4191118

- temperature:       180.0000000
  free_energy:        66.5486849
  entropy:             5.5371501
  heat_capacity:      13.4135132
  energy:             67.5453720

- temperature:       190.0000000
  free_energy:        66.4895112
  entropy:             6.3050653
  heat_capacity:      15.0104120
  energy:             67.6874736

- temperature:       200.0000000
  free_energy:        66.4224403
  entropy:             7.1159709
  heat_capacity:      16.6236743
  energy:             67.8456345

- temperature:       210.0000000
  free_energy:        66.3470606
  entropy:             7.9662410
  heat_capacity:      18.2442241
  energy:             68.0199712

- temperature:       220.0000000
  free_energy:        66.2629960
  entropy:             8.8523776
  heat_capacity:      19.8648438
  energy:             68.2105191

- temperature:       230.0000000
  free_energy:        66.1699046
  entropy:             9.7710641
  heat_capacity:      21.4798796
  energy:             68.4172493

- temperature:       240.0000000
  free_energy:        66.0674766
  entropy:            10.7191947
  heat_capacity:      23.0849481
  energy:             68.6400833

- temperature:       250.0000000
  free_energy:        65.9554322
  entropy:            11.6938862
  heat_capacity:      24.6766683
  energy:             68.8789037

- temperature:       260.0000000
  free_energy:        65.8335192
  entropy:            12.6924777
  heat_capacity:      26.2524302
  energy:             69.1335634

- temperature:       270.0000000
  free_energy:        65.7015111
  entropy:            13.7125229
  heat_capacity:      27.8102058
  energy:             69.4038923

- temperature:       280.0000000
  free_energy:        65.5592047
  entropy:            14.7517767
  heat_capacity:      29.3483990
  energy:             69.6897022

- temperature:       290.0000000
  free_energy:        65.4064184
  entropy:            15.8081803
  heat_capacity:      30.8657312
  energy:             69.9907907

- temperature:       300.0000000
  free_energy:        65.2429903
  entropy:            16.8798451
  heat_capacity:      32.3611566
  energy:             70.3069438

- temperature:       310.0000000
  free_energy:        65.0687765
  entropy:            17.9650369
  heat_capacity:      33.8338017
  energy:             70.6379379

- temperature:       320.0000000
  free_energy:        64.8836498
  entropy:            19.0621613
  heat_capacity:      35.2829230
  energy:             70.9835414

- temperature:       330.0000000
  free_energy:        64.6874984
  entropy:            20.1697498
  heat_capacity:      36.7078794
  energy:             71.3435158

- temperature:       340.0000000
  free_energy:        64.4802244
  entropy:            21.2864475
  heat_capacity:      38.1081145
  energy:             71.7176166

- temperature:       350.0000000
  free_energy:        64.2617432
  entropy:            22.4110024
  heat_capacity:      39.4831455
  energy:             72.1055941

- temperature:       360.0000000
  free_energy:        64.0319821
  entropy:            23.5422556
  heat_capacity:      40.8325573
  energy:             72.5071941

- temperature:       370.0000000
  free_energy:        63.7908794
  entropy:            24.6791331
  heat_capacity:      42.1559998
  energy:             72.9221587

- temperature:       380.0000000
  free_energy:        63.5383840
  entropy:            25.8206383
  heat_capacity:      43.4531857
  energy:             73.3502266

- temperature:       390.0000000
  free_energy:        63.2744543
  entropy:            26.9658456
  heat_capacity:      44.7238902
  energy:             73.7911341

- temperature:       400.0000000
  free_energy:        62.9990576
  entropy:            28.1138948
  heat_capacity:      45.9679503
  energy:             74.2446155

- temperature:       410.0000000
  free_energy:        62.7121696
  entropy:            29.2639862
  heat_capacity:      47.1852637
  energy:             74.7104039

- temperature:       420.0000000
  free_energy:        62.4137736
  entropy:            30.4153761
  heat_capacity:      48.3757879
  energy:             75.1882315

- temperature:       430.0000000
  free_energy:        62.1038601
  entropy:            31.5673730
  heat_capacity:      49.5395383
  energy:             75.6778304

- temperature:       440.0000000
  free_energy:        61.7824262
  entropy:            32.7193342
  heat_capacity:      50.6765857
  energy:             76.1789333

- temperature:       450.0000000
  free_energy:        61.4494755
  entropy:            33.8706624
  heat_capacity:      51.7870541
  energy:             76.6912735

- temperature:       460.0000000
  free_energy:        61.1050169
  entropy:            35.0208030
  heat_capacity:      52.8711170
  energy:             77.2145863

- temperature:       470.0000000
  free_energy:        60.7490651
  entropy:            36.1692415
  heat_capacity:      53.9289948
  energy:             77.7486086

- temperature:       480.0000000
  free_energy:        60.3816394
  entropy:            37.3155009
  heat_capacity:      54.9609502
  energy:             78.2930798

- temperature:       490.0000000
  free_energy:        60.0027638
  entropy:            38.4591396
  heat_capacity:      55.9672854
  energy:             78.8477422

- temperature:       500.0000000
  free_energy:        59.6124667
  entropy:            39.5997491
  heat_capacity:      56.9483376
  energy:             79.4123412

- temperature:       510.0000000
  free_energy:        59.2107802
  entropy:            40.7369524
  heat_capacity:      57.9044755
  energy:             79.9866259

- temperature:       520.0000000
  free_energy:        58.7977402
  entropy:            41.8704016
  heat_capacity:      58.8360957
  energy:             80.5703490

- temperature:       530.0000000
  free_energy:        58.3733857
  entropy:            42.9997769
  heat_capacity:      59.7436189
  energy:             81.1632675

- temperature:       540.0000000
  free_energy:        57.9377592
  entropy:            44.1247840
  heat_capacity:      60.6274864
  energy:             81.7651425

- temperature:       550.0000000
  free_energy:        57.4909055
  entropy:            45.2451534
  heat_capacity:      61.4881570
  energy:             82.3757399

- temperature:       560.0000000
  free_energy:        57.0328724
  entropy:            46.3606384
  heat_capacity:      62.3261038
  energy:             82.9948299

- temperature:       570.0000000
  free_energy:        56.5637098
  entropy:            47.4710141
  heat_capacity:      63.1418113
  energy:             83.6221878

- temperature:       580.0000000
  free_energy:        56.0834698
  entropy:            48.5760756
  heat_capacity:      63.9357728
  energy:             84.2575937

- temperature:       590.0000000
  free_energy:        55.5922066
  entropy:            49.6756370
  heat_capacity:      64.7084879
  energy:             84.9008325

- temperature:       600.0000000
  free_energy:        55.0899760
  entropy:            50.7695305
  heat_capacity:      65.4604603
  energy:             85.5516943

- temperature:       610.0000000
  free_energy:        54.5768354
  entropy:            51.8576046
  heat_capacity:      66.1921957
  energy:             86.2099742

- temperature:       620.0000000
  free_energy:        54.0528438
  entropy:            52.9397237
  heat_capacity:      66.9042000
  energy:             86.8754724

- temperature:       630.0000000
  free_energy:        53.5180612
  entropy:            54.0157666
  heat_capacity:      67.5969778
  energy:             87.5479941

- temperature:       640.0000000
  free_energy:        52.9725490
  entropy:            55.0856258
  heat_capacity:      68.2710306
  energy:             88.2273496

- temperature:       650.0000000
  free_energy:        52.4163696
  entropy:            56.1492067
  heat_capacity:      68.9268560
  energy:             88.9133540

- temperature:       660.0000000
  free_energy:        51.8495861
  entropy:            57.2064265
  heat_capacity:      69.5649460
  energy:             89.6058276

- temperature:       670.0000000
  free_energy:        51.2722625
  entropy:            58.2572133
  heat_capacity:      70.1857865
  energy:             90.3045954

- temperature:       680.0000000
  free_energy:        50.6844635
  entropy:            59.3015058
  heat_capacity:      70.7898563
  energy:             91.0094874

- temperature:       690.0000000
  free_energy:        50.0862542
  entropy:            60.3392521
  heat_capacity:      71.3776261
  energy:             91.7203382

- temperature:       700.0000000
  free_energy:        49.4777004
  entropy:            61.3704096
  heat_capacity:      71.9495585
  energy:             92.4369871

- temperature:       710.0000000
  free_energy:        48.8588681
  entropy:            62.3949436
  heat_capacity:      72.5061067
  energy:             93.1592781

- temperature:       720.0000000
  free_energy:        48.2298237
  entropy:            63.4128275
  heat_capacity:      73.0477149
  energy:             93.8870595

- temperature:       730.0000000
  free_energy:        47.5906338
  entropy:            64.4240414
  heat_capacity:      73.5748175
  energy:             94.6201840

- temperature:       740.0000000
  free_energy:        46.9413652
  entropy:            65.4285726
  heat_capacity:      74.0878387
  energy:             95.3585089

- temperature:       750.0000000
  free_energy:        46.2820846
  entropy:            66.4264142
  heat_capacity:      74.5871928
  energy:             96.1018953

- temperature:       760.0000000
  free_energy:        45.6128592
  entropy:            67.4175649
  heat_capacity:      75.0732838
  energy:             96.8502085

- temperature:       770.0000000
  free_energy:        44.9337556
  entropy:            68.4020291
  heat_capacity:      75.5465052
  energy:             97.6033180

- temperature:       780.0000000
  free_energy:        44.2448408
  entropy:            69.3798156
  heat_capacity:      76.0072402
  energy:             98.3610970

- temperature:       790.0000000
  free_energy:        43.5461815
  entropy:            70.3509379
  heat_capacity:      76.4558618
  energy:             99.1234225

- temperature:       800.0000000
  free_energy:        42.8378442
  entropy:            71.3154135
  heat_capacity:      76.8927324
  energy:             99.8901751

- temperature:       810.0000000
  free_energy:        42.1198953
  entropy:            72.2732639
  heat_capacity:      77.3182045
  energy:            100.6612391

- temperature:       820.0000000
  free_energy:        41.3924010
  entropy:            73.2245138
  heat_capacity:      77.7326203
  energy:            101.4365023

- temperature:       830.0000000
  free_energy:        40.6554270
  entropy:            74.1691913
  heat_capacity:      78.1363119
  energy:            102.2158558

- temperature:       840.0000000
  free_energy:        39.9090389
  entropy:            75.1073273
  heat_capacity:      78.5296019
  energy:            102.9991939

- temperature:       850.0000000
  free_energy:        39.1533021
  entropy:            76.0389554
  heat_capacity:      78.9128030
  energy:            103.7864142

- temperature:       860.0000000
  free_energy:        38.3882814
  entropy:            76.9641115
  heat_capacity:      79.2862185
  energy:            104.5774173

- temperature:       870.0000000
  free_energy:        37.6140413
  entropy:            77.8828340
  heat_capacity:      79.6501424
  energy:            105.3721069

- temperature:       880.0000000
  free_energy:        36.8306460
  entropy:            78.7951630
  heat_capacity:      80.0048596
  energy:            106.1703895

- temperature:       890.0000000
  free_energy:        36.0381593
  entropy:            79.7011406
  heat_capacity:      80.3506463
  energy:            106.9721743

- temperature:       900.0000000
  free_energy:        35.2366443
  entropy:            80.6008103
  heat_capacity:      80.6877698
  energy:            107.7773735

- temperature:       910.0000000
  free_energy:        34.4261639
  entropy:            81.4942174
  heat_capacity:      81.0164892
  energy:            108.5859017

- temperature:       920.0000000
  free_energy:        33.6067806
  entropy:            82.3814082
  heat_capacity:      81.3370551
  energy:            109.3976761

- temperature:       930.0000000
  free_energy:        32.7785563
  entropy:            83.2624303
  heat_capacity:      81.6497106
  energy:            110.2126165

- temperature:       940.0000000
  free_energy:        31.9415524
  entropy:            84.1373323
  heat_capacity:      81.9546904
  energy:            111.0306448

- temperature:       950.0000000
  free_energy:        31.0958299
  entropy:            85.0061637
  heat_capacity:      82.2522223
  energy:            111.8516854

- temperature:       960.0000000
  free_energy:        30.2414492
  entropy:            85.8689749
  heat_capacity:      82.5425262
  energy:            112.6756651

- temperature:       970.0000000
  free_energy:        29.3784703
  entropy:            86.7258168
  heat_capacity:      82.8258154
  energy:            113.5025126

- temperature:       980.0000000
  free_energy:        28.5069526
  entropy:            87.5767409
  heat_capacity:      83.1022959
  energy:            114.3321587

- temperature:       990.0000000
  free_energy:        27.6269550
  entropy:            88.4217994
  heat_capacity:      83.3721672
  energy:            115.1645365

- temperature:      1000.0000000
  free_energy:        26.7385360
  entropy:            89.2610447
  heat_capacity:      83.6356225
  energy:            115.9995807
