  48  48   0   0
  0.8850952E+01  0.7153391E-09  0.9114130E-09  0.6516345E-09  0.5000000E-15
  1.000000000000000E-004
  CAR 
 benzene                                 
     11.07519208    -18.42195468  301     -0.96947618      1.00000000
    -18.422  0.0000E+00  0.0000E+00
    -18.324  0.0000E+00  0.0000E+00
    -18.225  0.0000E+00  0.0000E+00
    -18.127  0.0000E+00  0.0000E+00
    -18.029  0.0000E+00  0.0000E+00
    -17.930  0.0000E+00  0.0000E+00
    -17.832  0.0000E+00  0.0000E+00
    -17.734  0.0000E+00  0.0000E+00
    -17.635  0.0000E+00  0.0000E+00
    -17.537  0.0000E+00  0.0000E+00
    -17.439  0.0000E+00  0.0000E+00
    -17.340  0.0000E+00  0.0000E+00
    -17.242  0.0000E+00  0.0000E+00
    -17.144  0.0000E+00  0.0000E+00
    -17.045  0.0000E+00  0.0000E+00
    -16.947  0.0000E+00  0.0000E+00
    -16.849  0.0000E+00  0.0000E+00
    -16.750  0.0000E+00  0.0000E+00
    -16.652  0.0000E+00  0.0000E+00
    -16.554  0.0000E+00  0.0000E+00
    -16.455  0.0000E+00  0.0000E+00
    -16.357  0.5547E-01  0.1658E-02
    -16.259  0.3451E+00  0.1660E-01
    -16.161  0.4785E-01  0.3968E-01
    -16.062  0.0000E+00  0.4000E-01
    -15.964  0.0000E+00  0.4000E-01
    -15.866  0.0000E+00  0.4000E-01
    -15.767  0.0000E+00  0.4000E-01
    -15.669  0.0000E+00  0.4000E-01
    -15.571  0.0000E+00  0.4000E-01
    -15.472  0.0000E+00  0.4000E-01
    -15.374  0.0000E+00  0.4000E-01
    -15.276  0.0000E+00  0.4000E-01
    -15.177  0.0000E+00  0.4000E-01
    -15.079  0.0000E+00  0.4000E-01
    -14.981  0.0000E+00  0.4000E-01
    -14.882  0.0000E+00  0.4000E-01
    -14.784  0.0000E+00  0.4000E-01
    -14.686  0.0000E+00  0.4000E-01
    -14.587  0.0000E+00  0.4000E-01
    -14.489  0.0000E+00  0.4000E-01
    -14.391  0.0000E+00  0.4000E-01
    -14.292  0.0000E+00  0.4000E-01
    -14.194  0.0000E+00  0.4000E-01
    -14.096  0.0000E+00  0.4000E-01
    -13.997  0.0000E+00  0.4000E-01
    -13.899  0.0000E+00  0.4000E-01
    -13.801  0.0000E+00  0.4000E-01
    -13.702  0.5330E-02  0.4005E-01
    -13.604  0.6067E-01  0.4312E-01
    -13.506  0.1679E+00  0.6331E-01
    -13.407  0.3008E+00  0.8339E-01
    -13.309  0.3118E-01  0.1198E+00
    -13.211  0.0000E+00  0.1200E+00
    -13.112  0.0000E+00  0.1200E+00
    -13.014  0.0000E+00  0.1200E+00
    -12.916  0.0000E+00  0.1200E+00
    -12.817  0.0000E+00  0.1200E+00
    -12.719  0.0000E+00  0.1200E+00
    -12.621  0.0000E+00  0.1200E+00
    -12.523  0.0000E+00  0.1200E+00
    -12.424  0.0000E+00  0.1200E+00
    -12.326  0.0000E+00  0.1200E+00
    -12.228  0.0000E+00  0.1200E+00
    -12.129  0.0000E+00  0.1200E+00
    -12.031  0.0000E+00  0.1200E+00
    -11.933  0.0000E+00  0.1200E+00
    -11.834  0.0000E+00  0.1200E+00
    -11.736  0.0000E+00  0.1200E+00
    -11.638  0.0000E+00  0.1200E+00
    -11.539  0.0000E+00  0.1200E+00
    -11.441  0.0000E+00  0.1200E+00
    -11.343  0.0000E+00  0.1200E+00
    -11.244  0.0000E+00  0.1200E+00
    -11.146  0.0000E+00  0.1200E+00
    -11.048  0.0000E+00  0.1200E+00
    -10.949  0.0000E+00  0.1200E+00
    -10.851  0.0000E+00  0.1200E+00
    -10.753  0.0000E+00  0.1200E+00
    -10.654  0.0000E+00  0.1200E+00
    -10.556  0.0000E+00  0.1200E+00
    -10.458  0.0000E+00  0.1200E+00
    -10.359  0.0000E+00  0.1200E+00
    -10.261  0.0000E+00  0.1200E+00
    -10.163  0.0000E+00  0.1200E+00
    -10.064  0.0000E+00  0.1200E+00
     -9.966  0.2626E+00  0.1245E+00
     -9.868  0.2170E+00  0.1516E+00
     -9.769  0.3054E+00  0.1682E+00
     -9.671  0.1755E+00  0.1909E+00
     -9.573  0.3053E-01  0.1990E+00
     -9.474  0.0000E+00  0.2000E+00
     -9.376  0.0000E+00  0.2000E+00
     -9.278  0.0000E+00  0.2000E+00
     -9.180  0.0000E+00  0.2000E+00
     -9.081  0.0000E+00  0.2000E+00
     -8.983  0.0000E+00  0.2000E+00
     -8.885  0.0000E+00  0.2000E+00
     -8.786  0.0000E+00  0.2000E+00
     -8.688  0.0000E+00  0.2000E+00
     -8.590  0.0000E+00  0.2000E+00
     -8.491  0.0000E+00  0.2000E+00
     -8.393  0.0000E+00  0.2000E+00
     -8.295  0.1222E-01  0.2003E+00
     -8.196  0.2518E-01  0.2023E+00
     -8.098  0.3580E-01  0.2053E+00
     -8.000  0.5700E-01  0.2098E+00
     -7.901  0.8130E-01  0.2179E+00
     -7.803  0.1091E+00  0.2276E+00
     -7.705  0.4694E-01  0.2347E+00
     -7.606  0.2316E-01  0.2381E+00
     -7.508  0.9020E-02  0.2396E+00
     -7.410  0.3052E-03  0.2400E+00
     -7.311  0.0000E+00  0.2400E+00
     -7.213  0.0000E+00  0.2400E+00
     -7.115  0.0000E+00  0.2400E+00
     -7.016  0.0000E+00  0.2400E+00
     -6.918  0.0000E+00  0.2400E+00
     -6.820  0.0000E+00  0.2400E+00
     -6.721  0.0000E+00  0.2400E+00
     -6.623  0.0000E+00  0.2400E+00
     -6.525  0.1020E-01  0.2403E+00
     -6.426  0.3073E-01  0.2424E+00
     -6.328  0.7464E-01  0.2471E+00
     -6.230  0.1049E+00  0.2587E+00
     -6.131  0.9558E-01  0.2667E+00
     -6.033  0.5699E-01  0.2751E+00
     -5.935  0.5465E-01  0.2805E+00
     -5.837  0.3108E+00  0.3162E+00
     -5.738  0.0000E+00  0.3200E+00
     -5.640  0.5031E-02  0.3201E+00
     -5.542  0.2597E+00  0.3255E+00
     -5.443  0.1117E+00  0.3448E+00
     -5.345  0.6299E-01  0.3539E+00
     -5.247  0.3134E-01  0.3583E+00
     -5.148  0.6070E-01  0.3613E+00
     -5.050  0.1464E+00  0.3735E+00
     -4.952  0.1671E+00  0.3874E+00
     -4.853  0.2453E-01  0.3993E+00
     -4.755  0.0000E+00  0.4000E+00
     -4.657  0.0000E+00  0.4000E+00
     -4.558  0.0000E+00  0.4000E+00
     -4.460  0.0000E+00  0.4000E+00
     -4.362  0.0000E+00  0.4000E+00
     -4.263  0.2879E-01  0.4009E+00
     -4.165  0.7588E-01  0.4062E+00
     -4.067  0.1064E+00  0.4166E+00
     -3.968  0.1556E+00  0.4270E+00
     -3.870  0.5044E-01  0.4384E+00
     -3.772  0.1515E-02  0.4400E+00
     -3.673  0.0000E+00  0.4400E+00
     -3.575  0.1936E-03  0.4400E+00
     -3.477  0.4276E-02  0.4402E+00
     -3.378  0.4933E-01  0.4420E+00
     -3.280  0.2689E+00  0.4579E+00
     -3.182  0.1129E+00  0.4782E+00
     -3.083  0.2896E+00  0.4888E+00
     -2.985  0.2034E+00  0.5127E+00
     -2.887  0.1787E-01  0.5196E+00
     -2.788  0.0000E+00  0.5200E+00
     -2.690  0.0000E+00  0.5200E+00
     -2.592  0.0000E+00  0.5200E+00
     -2.493  0.0000E+00  0.5200E+00
     -2.395  0.0000E+00  0.5200E+00
     -2.297  0.0000E+00  0.5200E+00
     -2.199  0.0000E+00  0.5200E+00
     -2.100  0.0000E+00  0.5200E+00
     -2.002  0.0000E+00  0.5200E+00
     -1.904  0.0000E+00  0.5200E+00
     -1.805  0.0000E+00  0.5200E+00
     -1.707  0.4157E-01  0.5217E+00
     -1.609  0.7698E-01  0.5279E+00
     -1.510  0.1562E+00  0.5388E+00
     -1.412  0.6590E-01  0.5591E+00
     -1.314  0.2013E+00  0.5681E+00
     -1.215  0.1559E+00  0.5868E+00
     -1.117  0.6344E-01  0.5968E+00
     -1.019  0.6276E-02  0.5999E+00
     -0.920  0.0000E+00  0.6000E+00
     -0.822  0.0000E+00  0.6000E+00
     -0.724  0.0000E+00  0.6000E+00
     -0.625  0.0000E+00  0.6000E+00
     -0.527  0.0000E+00  0.6000E+00
     -0.429  0.0000E+00  0.6000E+00
     -0.330  0.0000E+00  0.6000E+00
     -0.232  0.0000E+00  0.6000E+00
     -0.134  0.0000E+00  0.6000E+00
     -0.035  0.0000E+00  0.6000E+00
      0.063  0.0000E+00  0.6000E+00
      0.161  0.0000E+00  0.6000E+00
      0.260  0.0000E+00  0.6000E+00
      0.358  0.0000E+00  0.6000E+00
      0.456  0.0000E+00  0.6000E+00
      0.555  0.0000E+00  0.6000E+00
      0.653  0.0000E+00  0.6000E+00
      0.751  0.0000E+00  0.6000E+00
      0.850  0.0000E+00  0.6000E+00
      0.948  0.0000E+00  0.6000E+00
      1.046  0.0000E+00  0.6000E+00
      1.144  0.0000E+00  0.6000E+00
      1.243  0.0000E+00  0.6000E+00
      1.341  0.0000E+00  0.6000E+00
      1.439  0.0000E+00  0.6000E+00
      1.538  0.0000E+00  0.6000E+00
      1.636  0.0000E+00  0.6000E+00
      1.734  0.0000E+00  0.6000E+00
      1.833  0.0000E+00  0.6000E+00
      1.931  0.0000E+00  0.6000E+00
      2.029  0.0000E+00  0.6000E+00
      2.128  0.0000E+00  0.6000E+00
      2.226  0.0000E+00  0.6000E+00
      2.324  0.0000E+00  0.6000E+00
      2.423  0.0000E+00  0.6000E+00
      2.521  0.0000E+00  0.6000E+00
      2.619  0.0000E+00  0.6000E+00
      2.718  0.0000E+00  0.6000E+00
      2.816  0.0000E+00  0.6000E+00
      2.914  0.0000E+00  0.6000E+00
      3.013  0.0000E+00  0.6000E+00
      3.111  0.0000E+00  0.6000E+00
      3.209  0.0000E+00  0.6000E+00
      3.308  0.8447E-02  0.6001E+00
      3.406  0.2085E+00  0.6088E+00
      3.504  0.9582E-01  0.6243E+00
      3.603  0.8943E-01  0.6346E+00
      3.701  0.0000E+00  0.6400E+00
      3.799  0.1542E+00  0.6491E+00
      3.898  0.1193E+00  0.6606E+00
      3.996  0.1103E+00  0.6737E+00
      4.094  0.1852E-01  0.6794E+00
      4.193  0.3366E-03  0.6800E+00
      4.291  0.0000E+00  0.6800E+00
      4.389  0.0000E+00  0.6800E+00
      4.487  0.0000E+00  0.6800E+00
      4.586  0.0000E+00  0.6800E+00
      4.684  0.0000E+00  0.6800E+00
      4.782  0.0000E+00  0.6800E+00
      4.881  0.0000E+00  0.6800E+00
      4.979  0.8891E-05  0.6800E+00
      5.077  0.6899E-03  0.6800E+00
      5.176  0.2424E-02  0.6802E+00
      5.274  0.4941E-02  0.6805E+00
      5.372  0.6910E-02  0.6811E+00
      5.471  0.7476E-02  0.6818E+00
      5.569  0.8936E-02  0.6826E+00
      5.667  0.1112E-01  0.6836E+00
      5.766  0.1365E-01  0.6848E+00
      5.864  0.1697E-01  0.6863E+00
      5.962  0.3083E-01  0.6885E+00
      6.061  0.4450E-01  0.6924E+00
      6.159  0.5254E-01  0.6973E+00
      6.257  0.3652E-01  0.7017E+00
      6.356  0.5369E-01  0.7070E+00
      6.454  0.4438E-01  0.7116E+00
      6.552  0.3037E-01  0.7153E+00
      6.651  0.1866E-01  0.7176E+00
      6.749  0.1226E-01  0.7191E+00
      6.847  0.1195E+00  0.7267E+00
      6.946  0.7413E-01  0.7377E+00
      7.044  0.7555E-01  0.7438E+00
      7.142  0.6289E-01  0.7510E+00
      7.241  0.5544E-01  0.7567E+00
      7.339  0.1091E+00  0.7635E+00
      7.437  0.1233E+00  0.7761E+00
      7.536  0.9671E-01  0.7875E+00
      7.634  0.5657E-01  0.7954E+00
      7.732  0.4758E-01  0.8005E+00
      7.831  0.4289E-01  0.8045E+00
      7.929  0.7135E-01  0.8104E+00
      8.027  0.5875E-01  0.8169E+00
      8.125  0.5436E-01  0.8230E+00
      8.224  0.8784E-01  0.8295E+00
      8.322  0.3603E-01  0.8357E+00
      8.420  0.2684E-01  0.8385E+00
      8.519  0.2933E-01  0.8408E+00
      8.617  0.5447E-01  0.8448E+00
      8.715  0.8285E-01  0.8520E+00
      8.814  0.3296E-01  0.8578E+00
      8.912  0.8553E-02  0.8597E+00
      9.010  0.6904E-03  0.8600E+00
      9.109  0.0000E+00  0.8600E+00
      9.207  0.0000E+00  0.8600E+00
      9.305  0.0000E+00  0.8600E+00
      9.404  0.0000E+00  0.8600E+00
      9.502  0.0000E+00  0.8600E+00
      9.600  0.0000E+00  0.8600E+00
      9.699  0.0000E+00  0.8600E+00
      9.797  0.0000E+00  0.8600E+00
      9.895  0.0000E+00  0.8600E+00
      9.994  0.0000E+00  0.8600E+00
     10.092  0.0000E+00  0.8600E+00
     10.190  0.0000E+00  0.8600E+00
     10.289  0.0000E+00  0.8600E+00
     10.387  0.0000E+00  0.8600E+00
     10.485  0.0000E+00  0.8600E+00
     10.584  0.0000E+00  0.8600E+00
     10.682  0.0000E+00  0.8600E+00
     10.780  0.0000E+00  0.8600E+00
     10.879  0.0000E+00  0.8600E+00
     10.977  0.0000E+00  0.8600E+00
     11.075  0.0000E+00  0.8600E+00
