   48   48  200    1
  0.8850952E+01  0.7153391E-09  0.9114130E-09  0.6516345E-09  0.5000000E-15
  1.000000000000000E-004
  CAR 
 benzene                                 
    120     27     86
 
  0.0000000E+00  0.0000000E+00  0.0000000E+00  0.1562500E-01
    1      -16.421955
    2      -16.258486
    3      -16.169448
    4      -16.142607
    5      -13.733186
    6      -13.534292
    7      -13.476897
    8      -13.427975
    9      -13.391803
   10      -13.336838
   11      -13.330986
   12      -13.293227
   13      -10.009496
   14       -9.981102
   15       -9.913021
   16       -9.847212
   17       -9.791238
   18       -9.757465
   19       -9.702915
   20       -9.477558
   21       -8.349795
   22       -7.845270
   23       -7.802124
   24       -7.388667
   25       -6.614833
   26       -6.366999
   27       -6.082310
   28       -5.999649
   29       -5.966683
   30       -5.951526
   31       -5.824191
   32       -5.823676
   33       -5.684937
   34       -5.670744
   35       -5.509739
   36       -5.107555
   37       -5.073842
   38       -5.034262
   39       -4.999064
   40       -4.762318
   41       -4.026600
   42       -3.885590
   43       -3.781908
   44       -3.735489
   45       -3.602562
   46       -3.496967
   47       -3.476155
   48       -3.322518
   49       -3.076690
   50       -3.072433
   51       -3.056950
   52       -2.820721
   53       -1.783242
   54       -1.751552
   55       -1.577605
   56       -1.514955
   57       -1.221801
   58       -1.142130
   59       -1.027696
   60       -0.978880
   61        3.378613
   62        3.413119
   63        3.525966
   64        3.683927
   65        3.740091
   66        3.816766
   67        4.032900
   68        4.210906
   69        4.966523
   70        6.051397
   71        6.135462
   72        6.941029
   73        7.072472
   74        7.153088
   75        7.174621
   76        7.367792
   77        7.504243
   78        7.517749
   79        7.685671
   80        7.692523
   81        7.713074
   82        8.062126
   83        8.392534
   84        8.438561
   85        8.467157
   86        8.951218
 
  0.2500000E+00  0.0000000E+00  0.0000000E+00  0.3125000E-01
    1      -16.387890
    2      -16.241842
    3      -16.209714
    4      -16.159904
    5      -13.691656
    6      -13.519997
    7      -13.465730
    8      -13.429068
    9      -13.427374
   10      -13.357139
   11      -13.331113
   12      -13.302318
   13       -9.943302
   14       -9.927933
   15       -9.911324
   16       -9.864159
   17       -9.784903
   18       -9.759796
   19       -9.746271
   20       -9.552445
   21       -8.320941
   22       -7.978806
   23       -7.752102
   24       -7.465927
   25       -6.567224
   26       -6.387959
   27       -5.961866
   28       -5.948681
   29       -5.934363
   30       -5.918833
   31       -5.818332
   32       -5.815058
   33       -5.546150
   34       -5.527449
   35       -5.523844
   36       -5.220102
   37       -5.064111
   38       -5.020996
   39       -5.016474
   40       -4.818330
   41       -4.243821
   42       -4.095910
   43       -3.914809
   44       -3.892408
   45       -3.433554
   46       -3.359379
   47       -3.328514
   48       -3.276528
   49       -3.070191
   50       -3.053090
   51       -3.023317
   52       -2.858006
   53       -1.682319
   54       -1.671067
   55       -1.580296
   56       -1.540489
   57       -1.213437
   58       -1.212935
   59       -1.111279
   60       -1.104120
   61        3.434601
   62        3.490388
   63        3.554333
   64        3.690067
   65        3.737765
   66        3.746398
   67        3.914433
   68        4.059975
   69        5.215664
   70        6.161224
   71        6.255378
   72        6.714310
   73        6.904197
   74        7.180654
   75        7.285084
   76        7.311563
   77        7.315434
   78        7.549334
   79        7.693172
   80        7.772463
   81        7.879868
   82        8.157259
   83        8.265765
   84        8.552591
   85        8.670952
   86        8.962081
 
  0.5000000E+00  0.0000000E+00  0.0000000E+00  0.1562500E-01
    1      -16.301875
    2      -16.301874
    3      -16.201237
    4      -16.201237
    5      -13.588896
    6      -13.588896
    7      -13.442589
    8      -13.442589
    9      -13.409159
   10      -13.409158
   11      -13.321190
   12      -13.321189
   13       -9.897038
   14       -9.897037
   15       -9.845936
   16       -9.845936
   17       -9.771260
   18       -9.771260
   19       -9.736130
   20       -9.736130
   21       -8.196937
   22       -8.196937
   23       -7.621051
   24       -7.621050
   25       -6.467420
   26       -6.467419
   27       -5.924243
   28       -5.924243
   29       -5.837158
   30       -5.837157
   31       -5.812416
   32       -5.812416
   33       -5.482875
   34       -5.482874
   35       -5.210652
   36       -5.210651
   37       -5.161653
   38       -5.161652
   39       -4.939547
   40       -4.939547
   41       -4.342897
   42       -4.342897
   43       -4.047643
   44       -4.047643
   45       -3.295464
   46       -3.295464
   47       -3.152379
   48       -3.152379
   49       -3.117230
   50       -3.117229
   51       -2.938797
   52       -2.938797
   53       -1.579482
   54       -1.579481
   55       -1.452678
   56       -1.452677
   57       -1.409370
   58       -1.409370
   59       -1.178312
   60       -1.178311
   61        3.573100
   62        3.573101
   63        3.638248
   64        3.638249
   65        3.727550
   66        3.727550
   67        3.795098
   68        3.795098
   69        5.870315
   70        5.870316
   71        6.312758
   72        6.312758
   73        7.007652
   74        7.007653
   75        7.415541
   76        7.415542
   77        7.485263
   78        7.485264
   79        7.709974
   80        7.709976
   81        8.328621
   82        8.328621
   83        8.337403
   84        8.337404
   85        8.568886
   86        8.568887
 
  0.0000000E+00  0.2500000E+00  0.0000000E+00  0.3125000E-01
    1      -16.400081
    2      -16.284759
    3      -16.165574
    4      -16.146575
    5      -13.671992
    6      -13.518868
    7      -13.464691
    8      -13.443486
    9      -13.383655
   10      -13.356176
   11      -13.351976
   12      -13.340862
   13       -9.978425
   14       -9.923270
   15       -9.907903
   16       -9.820990
   17       -9.795404
   18       -9.772819
   19       -9.735747
   20       -9.551892
   21       -8.246408
   22       -7.843931
   23       -7.811431
   24       -7.592294
   25       -6.524516
   26       -6.273185
   27       -6.118521
   28       -5.934046
   29       -5.929394
   30       -5.920287
   31       -5.844062
   32       -5.833993
   33       -5.664271
   34       -5.595141
   35       -5.484962
   36       -5.206067
   37       -5.118532
   38       -5.118201
   39       -5.070127
   40       -4.874788
   41       -4.008353
   42       -3.887115
   43       -3.853422
   44       -3.793339
   45       -3.439787
   46       -3.391685
   47       -3.381512
   48       -3.229425
   49       -3.115014
   50       -3.093854
   51       -3.079222
   52       -2.879820
   53       -1.791148
   54       -1.775890
   55       -1.510783
   56       -1.472454
   57       -1.268760
   58       -1.190401
   59       -1.037596
   60       -0.990489
   61        3.376176
   62        3.403427
   63        3.564741
   64        3.675831
   65        3.758762
   66        3.863654
   67        3.966793
   68        4.141216
   69        5.141745
   70        6.000364
   71        6.246625
   72        6.814199
   73        6.823540
   74        6.902149
   75        7.278973
   76        7.467185
   77        7.499967
   78        7.529754
   79        7.586113
   80        7.775634
   81        7.995279
   82        8.101223
   83        8.268631
   84        8.468033
   85        8.490153
   86        8.795289
 
  0.2500000E+00  0.2500000E+00  0.0000000E+00  0.6250000E-01
    1      -16.368105
    2      -16.265021
    3      -16.202553
    4      -16.167322
    5      -13.641245
    6      -13.512312
    7      -13.460658
    8      -13.451998
    9      -13.394743
   10      -13.394159
   11      -13.339417
   12      -13.331602
   13       -9.916924
   14       -9.902571
   15       -9.901410
   16       -9.841638
   17       -9.794384
   18       -9.772818
   19       -9.765472
   20       -9.613189
   21       -8.218494
   22       -7.938755
   23       -7.777483
   24       -7.624342
   25       -6.488115
   26       -6.301469
   27       -6.063348
   28       -5.978373
   29       -5.902994
   30       -5.870645
   31       -5.839222
   32       -5.830517
   33       -5.536096
   34       -5.522536
   35       -5.399549
   36       -5.333938
   37       -5.139814
   38       -5.023058
   39       -5.017237
   40       -4.875215
   41       -4.192877
   42       -4.076007
   43       -3.964484
   44       -3.932620
   45       -3.353899
   46       -3.286850
   47       -3.276686
   48       -3.214636
   49       -3.093709
   50       -3.081473
   51       -3.039826
   52       -2.916679
   53       -1.703849
   54       -1.671371
   55       -1.520528
   56       -1.489160
   57       -1.264236
   58       -1.227758
   59       -1.149491
   60       -1.113174
   61        3.420703
   62        3.490264
   63        3.566190
   64        3.676193
   65        3.753509
   66        3.803826
   67        3.883901
   68        4.018982
   69        5.377374
   70        6.141460
   71        6.340310
   72        6.811200
   73        6.824961
   74        6.908233
   75        7.060106
   76        7.291648
   77        7.373952
   78        7.624449
   79        7.716545
   80        7.745768
   81        7.960950
   82        8.089953
   83        8.187079
   84        8.464059
   85        8.686005
   86        8.778712
 
  0.5000000E+00  0.2500000E+00  0.0000000E+00  0.3125000E-01
    1      -16.287817
    2      -16.287816
    3      -16.216718
    4      -16.216717
    5      -13.566440
    6      -13.566440
    7      -13.442483
    8      -13.442483
    9      -13.420109
   10      -13.420109
   11      -13.331308
   12      -13.331307
   13       -9.879802
   14       -9.879802
   15       -9.845778
   16       -9.845778
   17       -9.779643
   18       -9.779643
   19       -9.760162
   20       -9.760162
   21       -8.109900
   22       -8.109899
   23       -7.699646
   24       -7.699645
   25       -6.394334
   26       -6.394333
   27       -6.000789
   28       -6.000788
   29       -5.861408
   30       -5.861407
   31       -5.829001
   32       -5.829000
   33       -5.478073
   34       -5.478072
   35       -5.263286
   36       -5.263285
   37       -5.109939
   38       -5.109939
   39       -4.904267
   40       -4.904267
   41       -4.292040
   42       -4.292040
   43       -4.099237
   44       -4.099237
   45       -3.248491
   46       -3.248490
   47       -3.134479
   48       -3.134479
   49       -3.123991
   50       -3.123990
   51       -2.982023
   52       -2.982022
   53       -1.543433
   54       -1.543432
   55       -1.429613
   56       -1.429612
   57       -1.413960
   58       -1.413959
   59       -1.236036
   60       -1.236035
   61        3.538942
   62        3.538942
   63        3.651927
   64        3.651928
   65        3.727418
   66        3.727418
   67        3.824440
   68        3.824440
   69        5.995461
   70        5.995462
   71        6.387884
   72        6.387885
   73        6.892416
   74        6.892417
   75        7.285997
   76        7.285998
   77        7.355826
   78        7.355826
   79        7.779326
   80        7.779327
   81        8.168136
   82        8.168137
   83        8.225785
   84        8.225786
   85        8.762687
   86        8.762688
 
  0.0000000E+00  0.5000000E+00  0.0000000E+00  0.1562500E-01
    1      -16.344578
    2      -16.344577
    3      -16.156097
    4      -16.156095
    5      -13.528250
    6      -13.528250
    7      -13.481224
    8      -13.481223
    9      -13.396502
   10      -13.396500
   11      -13.363052
   12      -13.363051
   13       -9.920280
   14       -9.920279
   15       -9.823395
   16       -9.823393
   17       -9.788796
   18       -9.788795
   19       -9.714023
   20       -9.714021
   21       -7.960451
   22       -7.960447
   23       -7.831364
   24       -7.831363
   25       -6.309471
   26       -6.309470
   27       -6.056036
   28       -6.056035
   29       -5.881812
   30       -5.881811
   31       -5.877005
   32       -5.877003
   33       -5.478153
   34       -5.478150
   35       -5.385416
   36       -5.385414
   37       -5.174699
   38       -5.174695
   39       -5.115641
   40       -5.115641
   41       -3.945639
   42       -3.945638
   43       -3.861215
   44       -3.861214
   45       -3.236881
   46       -3.236881
   47       -3.228364
   48       -3.228364
   49       -3.167543
   50       -3.167543
   51       -3.038682
   52       -3.038679
   53       -1.801794
   54       -1.801792
   55       -1.371854
   56       -1.371853
   57       -1.347564
   58       -1.347563
   59       -1.018521
   60       -1.018519
   61        3.381968
   62        3.381969
   63        3.635579
   64        3.635580
   65        3.841866
   66        3.841868
   67        3.991366
   68        3.991367
   69        5.599396
   70        5.599402
   71        6.494764
   72        6.494769
   73        6.758322
   74        6.758326
   75        7.418255
   76        7.418256
   77        7.582841
   78        7.582842
   79        7.633468
   80        7.633472
   81        8.103206
   82        8.103208
   83        8.306069
   84        8.306076
   85        8.708691
   86        8.708695
 
  0.2500000E+00  0.5000000E+00  0.0000000E+00  0.3125000E-01
    1      -16.318253
    2      -16.318251
    3      -16.185082
    4      -16.185080
    5      -13.523117
    6      -13.523117
    7      -13.490739
    8      -13.490738
    9      -13.387481
   10      -13.387480
   11      -13.362662
   12      -13.362662
   13       -9.896479
   14       -9.896478
   15       -9.828513
   16       -9.828511
   17       -9.796506
   18       -9.796505
   19       -9.741995
   20       -9.741994
   21       -7.946523
   22       -7.946520
   23       -7.850971
   24       -7.850970
   25       -6.283474
   26       -6.283473
   27       -6.098624
   28       -6.098624
   29       -5.871892
   30       -5.871891
   31       -5.868064
   32       -5.868063
   33       -5.467473
   34       -5.467472
   35       -5.377687
   36       -5.377685
   37       -5.099628
   38       -5.099624
   39       -5.013796
   40       -5.013796
   41       -4.079292
   42       -4.079291
   43       -4.010556
   44       -4.010555
   45       -3.217686
   46       -3.217685
   47       -3.166008
   48       -3.166007
   49       -3.118173
   50       -3.118172
   51       -3.062933
   52       -3.062931
   53       -1.697800
   54       -1.697798
   55       -1.377190
   56       -1.377189
   57       -1.368755
   58       -1.368754
   59       -1.137675
   60       -1.137674
   61        3.443989
   62        3.443990
   63        3.618954
   64        3.618956
   65        3.816356
   66        3.816358
   67        3.920992
   68        3.920992
   69        5.796408
   70        5.796414
   71        6.549137
   72        6.549140
   73        6.836636
   74        6.836640
   75        7.162797
   76        7.162801
   77        7.577817
   78        7.577818
   79        7.623348
   80        7.623348
   81        7.975030
   82        7.975031
   83        8.172825
   84        8.172831
   85        8.894737
   86        8.895138
 
  0.5000000E+00  0.5000000E+00  0.0000000E+00  0.1562500E-01
    1      -16.253015
    2      -16.253014
    3      -16.253013
    4      -16.253013
    5      -13.508914
    6      -13.508914
    7      -13.508914
    8      -13.508913
    9      -13.370612
   10      -13.370611
   11      -13.370610
   12      -13.370610
   13       -9.846127
   14       -9.846127
   15       -9.846126
   16       -9.846126
   17       -9.794226
   18       -9.794226
   19       -9.794226
   20       -9.794226
   21       -7.901490
   22       -7.901490
   23       -7.901488
   24       -7.901488
   25       -6.203376
   26       -6.203376
   27       -6.203376
   28       -6.203375
   29       -5.858961
   30       -5.858961
   31       -5.858960
   32       -5.858960
   33       -5.405324
   34       -5.405324
   35       -5.405323
   36       -5.405323
   37       -4.954827
   38       -4.954827
   39       -4.954825
   40       -4.954825
   41       -4.194670
   42       -4.194669
   43       -4.194668
   44       -4.194668
   45       -3.161159
   46       -3.161159
   47       -3.161158
   48       -3.161158
   49       -3.077854
   50       -3.077854
   51       -3.077853
   52       -3.077852
   53       -1.460935
   54       -1.460935
   55       -1.460934
   56       -1.460933
   57       -1.351747
   58       -1.351747
   59       -1.351746
   60       -1.351746
   61        3.564817
   62        3.564817
   63        3.564817
   64        3.564817
   65        3.811485
   66        3.811485
   67        3.811486
   68        3.811486
   69        6.278460
   70        6.278461
   71        6.278466
   72        6.278467
   73        6.941536
   74        6.941537
   75        6.941539
   76        6.941540
   77        7.593950
   78        7.593951
   79        7.593952
   80        7.593953
   81        8.009667
   82        8.009667
   83        8.009669
   84        8.009670
   85        8.963446
   86        8.963448
 
  0.0000000E+00  0.0000000E+00  0.2500000E+00  0.3125000E-01
    1      -16.383268
    2      -16.244625
    3      -16.185889
    4      -16.181588
    5      -13.680018
    6      -13.514598
    7      -13.474950
    8      -13.425810
    9      -13.387423
   10      -13.386803
   11      -13.352187
   12      -13.316724
   13       -9.993160
   14       -9.972481
   15       -9.871504
   16       -9.854784
   17       -9.815602
   18       -9.762709
   19       -9.687297
   20       -9.524600
   21       -8.325350
   22       -7.950502
   23       -7.776622
   24       -7.458899
   25       -6.487643
   26       -6.302868
   27       -6.088183
   28       -6.016932
   29       -5.950316
   30       -5.915980
   31       -5.853845
   32       -5.823188
   33       -5.575329
   34       -5.535304
   35       -5.506218
   36       -5.194116
   37       -5.050946
   38       -5.011952
   39       -5.001835
   40       -4.825682
   41       -4.200028
   42       -4.049379
   43       -3.956560
   44       -3.938130
   45       -3.439313
   46       -3.368086
   47       -3.312181
   48       -3.224332
   49       -3.064114
   50       -3.060606
   51       -2.986952
   52       -2.913363
   53       -1.667281
   54       -1.637789
   55       -1.559562
   56       -1.453915
   57       -1.297983
   58       -1.199024
   59       -1.126422
   60       -1.075582
   61        3.476526
   62        3.481336
   63        3.549902
   64        3.698905
   65        3.725328
   66        3.778087
   67        3.929234
   68        4.101571
   69        5.259603
   70        6.211834
   71        6.347553
   72        6.868660
   73        6.878817
   74        6.926117
   75        7.192728
   76        7.311883
   77        7.337743
   78        7.379783
   79        7.413486
   80        7.481011
   81        7.750362
   82        8.228558
   83        8.270384
   84        8.460071
   85        8.510428
   86        8.783627
 
  0.2500000E+00  0.0000000E+00  0.2500000E+00  0.6250000E-01
    1      -16.355258
    2      -16.235552
    3      -16.212770
    4      -16.193977
    5      -13.646449
    6      -13.499199
    7      -13.476803
    8      -13.429275
    9      -13.428854
   10      -13.381162
   11      -13.364034
   12      -13.321737
   13       -9.942763
   14       -9.927006
   15       -9.873994
   16       -9.851518
   17       -9.805556
   18       -9.762319
   19       -9.728265
   20       -9.590823
   21       -8.270147
   22       -7.891060
   23       -7.875870
   24       -7.527170
   25       -6.456304
   26       -6.326187
   27       -6.027549
   28       -5.963587
   29       -5.933904
   30       -5.909517
   31       -5.843426
   32       -5.831146
   33       -5.521232
   34       -5.515449
   35       -5.476467
   36       -5.156781
   37       -5.143164
   38       -5.084022
   39       -5.030900
   40       -4.878872
   41       -4.312249
   42       -4.097827
   43       -3.947625
   44       -3.815986
   45       -3.401553
   46       -3.293532
   47       -3.273949
   48       -3.219498
   49       -3.074972
   50       -3.065938
   51       -3.008177
   52       -2.935788
   53       -1.605449
   54       -1.580249
   55       -1.536855
   56       -1.468192
   57       -1.297631
   58       -1.237208
   59       -1.166766
   60       -1.164289
   61        3.452487
   62        3.452640
   63        3.588431
   64        3.618930
   65        3.747809
   66        3.783568
   67        3.832088
   68        4.044095
   69        5.407822
   70        6.250812
   71        6.276204
   72        6.603139
   73        6.866211
   74        6.989750
   75        7.130295
   76        7.248473
   77        7.287287
   78        7.413551
   79        7.438069
   80        7.745114
   81        7.754963
   82        8.092921
   83        8.221576
   84        8.345335
   85        8.662329
   86        8.710566
 
  0.5000000E+00  0.0000000E+00  0.2500000E+00  0.3125000E-01
    1      -16.285576
    2      -16.285576
    3      -16.214269
    4      -16.214268
    5      -13.560263
    6      -13.560262
    7      -13.460172
    8      -13.460171
    9      -13.411560
   10      -13.411560
   11      -13.346233
   12      -13.346233
   13       -9.890875
   14       -9.890874
   15       -9.812612
   16       -9.812612
   17       -9.802399
   18       -9.802399
   19       -9.735193
   20       -9.735192
   21       -8.108225
   22       -8.108225
   23       -7.699150
   24       -7.699150
   25       -6.383181
   26       -6.383181
   27       -5.948765
   28       -5.948764
   29       -5.909804
   30       -5.909804
   31       -5.830554
   32       -5.830554
   33       -5.423932
   34       -5.423931
   35       -5.342741
   36       -5.342740
   37       -5.230041
   38       -5.230041
   39       -4.995445
   40       -4.995444
   41       -4.142077
   42       -4.142076
   43       -3.953121
   44       -3.953120
   45       -3.260486
   46       -3.260485
   47       -3.160871
   48       -3.160871
   49       -3.146203
   50       -3.146203
   51       -2.994763
   52       -2.994763
   53       -1.523006
   54       -1.523005
   55       -1.430790
   56       -1.430790
   57       -1.374570
   58       -1.374570
   59       -1.217598
   60       -1.217598
   61        3.471495
   62        3.471496
   63        3.517317
   64        3.517317
   65        3.811418
   66        3.811419
   67        3.852757
   68        3.852758
   69        5.879271
   70        5.879272
   71        6.232103
   72        6.232104
   73        7.010136
   74        7.010137
   75        7.250271
   76        7.250271
   77        7.418851
   78        7.418851
   79        7.462769
   80        7.462770
   81        8.027122
   82        8.027122
   83        8.156568
   84        8.156568
   85        8.940033
   86        8.940033
 
  0.0000000E+00  0.2500000E+00  0.2500000E+00  0.6250000E-01
    1      -16.364387
    2      -16.266513
    3      -16.185159
    4      -16.182140
    5      -13.634932
    6      -13.518601
    7      -13.465263
    8      -13.443308
    9      -13.407927
   10      -13.387886
   11      -13.344417
   12      -13.336535
   13      -10.004347
   14       -9.935945
   15       -9.896757
   16       -9.825312
   17       -9.820920
   18       -9.759441
   19       -9.683140
   20       -9.566605
   21       -8.224591
   22       -7.920918
   23       -7.802196
   24       -7.628505
   25       -6.420588
   26       -6.249360
   27       -6.130861
   28       -5.976253
   29       -5.919751
   30       -5.907816
   31       -5.863635
   32       -5.835915
   33       -5.530557
   34       -5.497777
   35       -5.476514
   36       -5.316958
   37       -5.091429
   38       -5.046540
   39       -4.957473
   40       -4.928918
   41       -4.163004
   42       -4.060740
   43       -3.976730
   44       -3.953947
   45       -3.349427
   46       -3.336141
   47       -3.287023
   48       -3.151365
   49       -3.129602
   50       -3.075458
   51       -2.982820
   52       -2.914686
   53       -1.681420
   54       -1.677614
   55       -1.477997
   56       -1.448745
   57       -1.337970
   58       -1.229274
   59       -1.127316
   60       -1.077084
   61        3.408521
   62        3.423430
   63        3.634876
   64        3.696167
   65        3.703351
   66        3.745688
   67        3.988471
   68        4.092515
   69        5.424622
   70        6.195616
   71        6.458788
   72        6.689759
   73        6.807379
   74        6.999969
   75        7.099079
   76        7.289448
   77        7.295024
   78        7.342831
   79        7.480361
   80        7.517656
   81        7.938632
   82        8.047624
   83        8.273249
   84        8.421514
   85        8.475562
   86        8.663565
 
  0.2500000E+00  0.2500000E+00  0.2500000E+00  0.1250000E+00
    1      -16.338754
    2      -16.254194
    3      -16.209921
    4      -16.196629
    5      -13.616343
    6      -13.519039
    7      -13.490010
    8      -13.449795
    9      -13.418818
   10      -13.378358
   11      -13.349108
   12      -13.321730
   13       -9.970766
   14       -9.928702
   15       -9.901903
   16       -9.838897
   17       -9.798853
   18       -9.751209
   19       -9.698894
   20       -9.615460
   21       -8.172871
   22       -7.875864
   23       -7.858364
   24       -7.650197
   25       -6.404243
   26       -6.282451
   27       -6.118513
   28       -6.015453
   29       -5.901818
   30       -5.886048
   31       -5.853093
   32       -5.842454
   33       -5.547652
   34       -5.523916
   35       -5.489956
   36       -5.219569
   37       -5.123698
   38       -5.058968
   39       -4.967869
   40       -4.865420
   41       -4.301460
   42       -4.105258
   43       -3.926308
   44       -3.832697
   45       -3.373949
   46       -3.308527
   47       -3.250564
   48       -3.194487
   49       -3.101854
   50       -3.072810
   51       -2.999344
   52       -2.937627
   53       -1.631209
   54       -1.611411
   55       -1.460706
   56       -1.453106
   57       -1.337405
   58       -1.248196
   59       -1.192953
   60       -1.147285
   61        3.384158
   62        3.409728
   63        3.553250
   64        3.623936
   65        3.718687
   66        3.803800
   67        3.951312
   68        4.062186
   69        5.557289
   70        6.248870
   71        6.362077
   72        6.677564
   73        6.760478
   74        6.873182
   75        7.002939
   76        7.170918
   77        7.356623
   78        7.427478
   79        7.565435
   80        7.633282
   81        7.828057
   82        8.044045
   83        8.195769
   84        8.340767
   85        8.496625
   86        8.700831
 
  0.5000000E+00  0.2500000E+00  0.2500000E+00  0.6250000E-01
    1      -16.275393
    2      -16.275393
    3      -16.224976
    4      -16.224975
    5      -13.564536
    6      -13.564536
    7      -13.486689
    8      -13.486687
    9      -13.393682
   10      -13.393681
   11      -13.328772
   12      -13.328771
   13       -9.919063
   14       -9.919062
   15       -9.890957
   16       -9.890956
   17       -9.735639
   18       -9.735639
   19       -9.712490
   20       -9.712490
   21       -8.033217
   22       -8.033217
   23       -7.737333
   24       -7.737333
   25       -6.347792
   26       -6.347791
   27       -6.071241
   28       -6.071241
   29       -5.879851
   30       -5.879851
   31       -5.842249
   32       -5.842249
   33       -5.542626
   34       -5.542626
   35       -5.399430
   36       -5.399429
   37       -5.075325
   38       -5.075325
   39       -4.904453
   40       -4.904453
   41       -4.114916
   42       -4.114916
   43       -3.968750
   44       -3.968750
   45       -3.284425
   46       -3.284424
   47       -3.217274
   48       -3.217274
   49       -3.096565
   50       -3.096565
   51       -2.995819
   52       -2.995819
   53       -1.533249
   54       -1.533248
   55       -1.438773
   56       -1.438772
   57       -1.341633
   58       -1.341631
   59       -1.237866
   60       -1.237866
   61        3.402197
   62        3.402198
   63        3.477516
   64        3.477517
   65        3.857901
   66        3.857902
   67        3.924569
   68        3.924569
   69        5.990201
   70        5.990202
   71        6.292113
   72        6.292113
   73        6.869869
   74        6.869869
   75        7.162583
   76        7.162584
   77        7.370965
   78        7.370967
   79        7.584512
   80        7.584513
   81        7.882655
   82        7.882655
   83        8.301546
   84        8.301546
   85        8.631293
   86        8.631293
 
  0.0000000E+00  0.5000000E+00  0.2500000E+00  0.3125000E-01
    1      -16.316965
    2      -16.316963
    3      -16.183575
    4      -16.183573
    5      -13.543830
    6      -13.543830
    7      -13.462339
    8      -13.462339
    9      -13.425732
   10      -13.425731
   11      -13.337874
   12      -13.337874
   13       -9.964853
   14       -9.964852
   15       -9.885226
   16       -9.885225
   17       -9.743889
   18       -9.743889
   19       -9.657607