 running on    8 total cores
 distrk:  each k-point on    8 cores,    1 groups
 distr:  one band on    4 cores,    2 groups
 using from now: INCAR     
 vasp.5.3.5 31Mar14 (build Nov 02 2014 15:17:37) complex                        
  
 POSCAR found type information on POSCAR  C  H 
 POSCAR found :  2 types and      48 ions
 scaLAPACK will be used

 ----------------------------------------------------------------------------- 
|                                                                             |
|  ADVICE TO THIS USER RUNNING 'VASP/VAMP'   (HEAR YOUR MASTER'S VOICE ...):  |
|                                                                             |
|      You have a (more or less) 'large supercell' and for larger cells       |
|      it might be more efficient to use real space projection operators      |
|      So try LREAL= Auto  in the INCAR   file.                               |
|      Mind: If you want to do a very accurate calculations keep the          |
|      reciprocal projection scheme          (i.e. LREAL=.FALSE.)             |
|                                                                             |
 ----------------------------------------------------------------------------- 

 LDA part: xc-table for Pade appr. of Perdew
 POSCAR, INCAR and KPOINTS ok, starting setup
 WARNING: small aliasing (wrap around) errors must be expected
 FFT: planning ...
 WAVECAR not read
 WARNING: random wavefunctions but no delay for mixing, default for NELMDL
 entering main loop
       N       E                     dE             d eps       ncg     rms          rms(c)
DAV:   1     0.675863800025E+03    0.67586E+03   -0.61349E+04  4644   0.137E+03
DAV:   2    -0.253070761483E+03   -0.92893E+03   -0.90074E+03  5890   0.295E+02
DAV:   3    -0.329083259208E+03   -0.76012E+02   -0.75526E+02  5592   0.842E+01
DAV:   4    -0.330491537940E+03   -0.14083E+01   -0.14064E+01  5808   0.138E+01
DAV:   5    -0.330521725941E+03   -0.30188E-01   -0.30184E-01  5552   0.190E+00    0.372E+01
DAV:   6    -0.285625372697E+03    0.44896E+02   -0.53358E+01  4928   0.208E+01    0.181E+01
DAV:   7    -0.274432085240E+03    0.11193E+02   -0.35607E+01  5556   0.167E+01    0.457E+00
DAV:   8    -0.274366309771E+03    0.65775E-01   -0.20946E+00  5194   0.474E+00    0.112E+00
DAV:   9    -0.274323860065E+03    0.42450E-01   -0.27023E-01  5472   0.162E+00    0.350E-01
DAV:  10    -0.274330583198E+03   -0.67231E-02   -0.26663E-02  5292   0.553E-01    0.218E-01
DAV:  11    -0.274334686561E+03   -0.41034E-02   -0.66717E-03  4996   0.280E-01    0.653E-02
DAV:  12    -0.274335405944E+03   -0.71938E-03   -0.23389E-03  5154   0.146E-01    0.490E-02
DAV:  13    -0.274335332141E+03    0.73802E-04   -0.41330E-04  5666   0.666E-02    0.119E-02
DAV:  14    -0.274335343761E+03   -0.11620E-04   -0.63855E-05  5170   0.271E-02    0.602E-03
DAV:  15    -0.274335344458E+03   -0.69619E-06   -0.53378E-06  5416   0.711E-03
   1 F= -.27794692E+03 E0= -.27794692E+03  d E =-.277947E+03
 curvature:   0.00 expect dE= 0.000E+00 dE for cont linesearch  0.000E+00
 trial: gam= 0.00000 g(F)=  0.236E+03 g(S)=  0.000E+00 ort = 0.000E+00 (trialstep = 0.100E+01)
 search vector abs. value=  0.236E+03
 bond charge predicted
       N       E                     dE             d eps       ncg     rms          rms(c)
DAV:   1     0.117255584556E+03    0.39159E+03   -0.12018E+04  5368   0.343E+02    0.382E+01
DAV:   2     0.381660120275E+02   -0.79090E+02   -0.12819E+03  5448   0.116E+02    0.338E+01
DAV:   3     0.612913575610E+02    0.23125E+02   -0.44975E+01  5642   0.247E+01    0.188E+01
DAV:   4     0.667198972317E+02    0.54285E+01   -0.26730E+01  5170   0.191E+01    0.507E+00
DAV:   5     0.666287354115E+02   -0.91162E-01   -0.54810E+00  5352   0.853E+00    0.323E+00
DAV:   6     0.669129403637E+02    0.28420E+00   -0.76336E-01  5114   0.363E+00    0.811E-01
DAV:   7     0.668652645739E+02   -0.47676E-01   -0.23334E-01  5400   0.156E+00    0.863E-01
DAV:   8     0.668865985782E+02    0.21334E-01   -0.78805E-02  5260   0.103E+00    0.823E-02
DAV:   9     0.668855111533E+02   -0.10874E-02   -0.97652E-03  5242   0.300E-01    0.901E-02
DAV:  10     0.668855990983E+02    0.87945E-04   -0.28566E-04  5560   0.671E-02    0.382E-02
DAV:  11     0.668855546850E+02   -0.44413E-04   -0.13171E-04  5298   0.409E-02    0.705E-03
DAV:  12     0.668855458897E+02   -0.87953E-05   -0.90647E-06  5970   0.101E-02    0.315E-03
DAV:  13     0.668855421320E+02   -0.37577E-05   -0.13527E-06  3594   0.409E-03    0.157E-03
DAV:  14     0.668855427956E+02    0.66353E-06   -0.31358E-07  2850   0.180E-03
   2 F= 0.62816839E+02 E0= 0.62816839E+02  d E =0.340764E+03
 trial-energy change:  340.763757  1 .order  371.104977 -235.765658  977.975611
 step:   0.2200(harm=  0.1942)  dis= 0.12316  next Energy=  -304.202222 (dE=-0.263E+02)
 bond charge predicted
       N       E                     dE             d eps       ncg     rms          rms(c)
DAV:   1    -0.284118309986E+03   -0.35100E+03   -0.83064E+03  4860   0.317E+02    0.350E+01
DAV:   2    -0.295182683590E+03   -0.11064E+02   -0.55866E+02  5808   0.808E+01    0.228E+01
DAV:   3    -0.285626261286E+03    0.95564E+01   -0.65396E+01  5568   0.245E+01    0.802E+00
DAV:   4    -0.284919596994E+03    0.70666E+00   -0.77170E+00  5432   0.813E+00    0.399E+00
DAV:   5    -0.284662309724E+03    0.25729E+00   -0.96883E-01  5450   0.330E+00    0.128E+00
DAV:   6    -0.284666471730E+03   -0.41620E-02   -0.25764E-01  5618   0.174E+00    0.586E-01
DAV:   7    -0.284670260532E+03   -0.37888E-02   -0.54930E-02  5070   0.796E-01    0.270E-01
DAV:   8    -0.284667878449E+03    0.23821E-02   -0.64868E-03  5376   0.268E-01    0.104E-01
DAV:   9    -0.284668027564E+03   -0.14911E-03   -0.20513E-03  5128   0.152E-01    0.246E-02
DAV:  10    -0.284668031929E+03   -0.43647E-05   -0.94028E-05  5752   0.321E-02    0.161E-02
DAV:  11    -0.284668036882E+03   -0.49531E-05   -0.14711E-05  5138   0.139E-02    0.835E-03
DAV:  12    -0.284668036358E+03    0.52341E-06   -0.24212E-06  4530   0.567E-03
   3 F= -.28792002E+03 E0= -.28792002E+03  d E =-.997310E+01
 curvature:  -0.10 expect dE=-0.161E+02 dE for cont linesearch -0.396E+01
 ZBRENT: interpolating
 opt :   0.1553  next Energy=  -291.093021 (dE=-0.131E+02)
 bond charge predicted
       N       E                     dE             d eps       ncg     rms          rms(c)
DAV:   1    -0.288721414502E+03   -0.40534E+01   -0.64950E+01  5148   0.287E+01    0.284E+00
DAV:   2    -0.288720338634E+03    0.10759E-02   -0.17710E+00  5494   0.451E+00    0.201E+00
DAV:   3    -0.288655213001E+03    0.65126E-01   -0.40349E-01  5292   0.240E+00    0.402E-01
DAV:   4    -0.288649702522E+03    0.55105E-02   -0.93057E-02  5104   0.108E+00    0.188E-01
DAV:   5    -0.288649919565E+03   -0.21704E-03   -0.49590E-03  5962   0.242E-01    0.502E-02
DAV:   6    -0.288649886125E+03    0.33440E-04   -0.20162E-04  5346   0.538E-02    0.307E-02
DAV:   7    -0.288649895090E+03   -0.89649E-05   -0.15903E-04  5650   0.428E-02    0.124E-02
DAV:   8    -0.288649891940E+03    0.31498E-05   -0.17459E-05  5336   0.148E-02    0.528E-03
DAV:   9    -0.288649891448E+03    0.49200E-06   -0.43589E-06  5180   0.661E-03
   4 F= -.29203888E+03 E0= -.29203888E+03  d E =-.140920E+02
 curvature:  -0.08 expect dE=-0.542E+01 dE for cont linesearch -0.235E+00
 ZBRENT: interpolating
 opt :   0.1336  next Energy=  -292.358669 (dE=-0.144E+02)
 bond charge predicted
       N       E                     dE             d eps       ncg     rms          rms(c)
DAV:   1    -0.288898976344E+03   -0.24908E+00   -0.74514E+00  5062   0.979E+00    0.993E-01
DAV:   2    -0.288898535392E+03    0.44095E-03   -0.20665E-01  5430   0.154E+00    0.708E-01
DAV:   3    -0.288890903522E+03    0.76319E-02   -0.46904E-02  5324   0.815E-01    0.139E-01
DAV:   4    -0.288890181608E+03    0.72191E-03   -0.10059E-02  5102   0.357E-01    0.651E-02
DAV:   5    -0.288890225863E+03   -0.44255E-04   -0.56704E-04  5840   0.824E-02    0.167E-02
DAV:   6    -0.288890220189E+03    0.56741E-05   -0.22313E-05  5378   0.174E-02    0.103E-02
DAV:   7    -0.288890222130E+03   -0.19415E-05   -0.18263E-05  5632   0.145E-02    0.399E-03
DAV:   8    -0.288890221825E+03    0.30524E-06   -0.16884E-06  3058   0.490E-03
   5 F= -.29232186E+03 E0= -.29232186E+03  d E =-.143749E+02
 curvature:  -0.11 expect dE=-0.538E+01 dE for cont linesearch -0.501E-03
 trial: gam= 0.21157 g(F)=  0.509E+02 g(S)=  0.000E+00 ort = 0.106E+01 (trialstep = 0.827E+00)
 search vector abs. value=  0.619E+02
 bond charge predicted
       N       E                     dE             d eps       ncg     rms          rms(c)
DAV:   1    -0.305325401756E+03   -0.16435E+02   -0.21941E+03  4860   0.163E+02    0.162E+01
DAV:   2    -0.303152455249E+03    0.21729E+01   -0.63644E+01  5586   0.261E+01    0.812E+00
DAV:   3    -0.302192117392E+03    0.96034E+00   -0.10765E+01  5672   0.104E+01    0.209E+00
DAV:   4    -0.302260558617E+03   -0.68441E-01   -0.14356E+00  5380   0.336E+00    0.137E+00
DAV:   5    -0.302262490568E+03   -0.19320E-02   -0.71785E-02  5682   0.851E-01    0.422E-01
DAV:   6    -0.302263416444E+03   -0.92588E-03   -0.10824E-02  5564   0.335E-01    0.120E-01
DAV:   7    -0.302263430370E+03   -0.13925E-04   -0.24894E-03  5396   0.156E-01    0.501E-02
DAV:   8    -0.302263426156E+03    0.42136E-05   -0.35505E-04  5634   0.599E-02    0.133E-02
DAV:   9    -0.302263434974E+03   -0.88180E-05   -0.83211E-05  5296   0.287E-02    0.512E-03
DAV:  10    -0.302263434205E+03    0.76861E-06   -0.21966E-06  4330   0.527E-03
   6 F= -.30610017E+03 E0= -.30610017E+03  d E =-.137783E+02
 trial-energy change:  -13.778311  1 .order  -17.434667  -42.296399    7.427064
 step:   0.6393(harm=  0.7032)  dis= 0.17000  next Energy=  -306.984701 (dE=-0.147E+02)
 bond charge predicted
       N       E                     dE             d eps       ncg     rms          rms(c)
DAV:   1    -0.303259417006E+03   -0.99598E+00   -0.10713E+02  4652   0.364E+01    0.277E+00
DAV:   2    -0.303201629074E+03    0.57788E-01   -0.17541E+00  5326   0.474E+00    0.186E+00
DAV:   3    -0.303151848970E+03    0.49780E-01   -0.76530E-01  5302   0.266E+00    0.635E-01
DAV:   4    -0.303130910871E+03    0.20938E-01   -0.14570E-01  5056   0.114E+00    0.249E-01
DAV:   5    -0.303132302170E+03   -0.13913E-02   -0.45419E-03  5668   0.244E-01    0.996E-02
DAV:   6    -0.303131807429E+03    0.49474E-03   -0.16353E-03  5126   0.120E-01    0.174E-02
DAV:   7    -0.303131822236E+03   -0.14807E-04   -0.21841E-04  5802   0.463E-02    0.129E-02
DAV:   8    -0.303131820780E+03    0.14554E-05   -0.11339E-05  5644   0.113E-02    0.586E-03
DAV:   9    -0.303131820427E+03    0.35279E-06   -0.29611E-06  4202   0.658E-03
   7 F= -.30693602E+03 E0= -.30693602E+03  d E =-.146142E+02
 curvature:  -0.31 expect dE=-0.110E+01 dE for cont linesearch -0.746E-03
 trial: gam= 0.13847 g(F)=  0.354E+01 g(S)=  0.000E+00 ort = 0.385E+00 (trialstep = 0.789E+00)
 search vector abs. value=  0.483E+01
 bond charge predicted
       N       E                     dE             d eps       ncg     rms          rms(c)
DAV:   1    -0.301491793842E+03    0.16400E+01   -0.16433E+02  4710   0.462E+01    0.379E+00
DAV:   2    -0.301587124896E+03   -0.95331E-01   -0.45083E+00  5608   0.708E+00    0.270E+00
DAV:   3    -0.301480444187E+03    0.10668E+00   -0.70822E-01  5428   0.296E+00    0.835E-01
DAV:   4    -0.301470213242E+03    0.10231E-01   -0.15531E-01  5498   0.137E+00    0.517E-01
DAV:   5    -0.301468595307E+03    0.16179E-02   -0.18418E-02  5196   0.479E-01    0.116E-01
DAV:   6    -0.301468364981E+03    0.23033E-03   -0.24487E-03  5634   0.165E-01    0.520E-02
DAV:   7    -0.301468439211E+03   -0.74230E-04   -0.62637E-04  5506   0.817E-02    0.356E-02
DAV:   8    -0.301468402116E+03    0.37095E-04   -0.12705E-04  5794   0.377E-02    0.108E-02
DAV:   9    -0.301468405489E+03   -0.33731E-05   -0.30492E-05  5312   0.177E-02    0.178E-03
DAV:  10    -0.301468405695E+03   -0.20572E-06   -0.11024E-06  3736   0.384E-03
   8 F= -.30527424E+03 E0= -.30527424E+03  d E =0.166178E+01
 trial-energy change:    1.661783  1 .order    1.519049   -2.836287    5.874386
 step:   0.2405(harm=  0.2570)  dis= 0.02248  next Energy=  -307.364201 (dE=-0.428E+00)
 bond charge predicted
       N       E                     dE             d eps       ncg     rms          rms(c)
DAV:   1    -0.303570007521E+03   -0.21016E+01   -0.79183E+01  4720   0.318E+01    0.256E+00
DAV:   2    -0.303617053489E+03   -0.47046E-01   -0.20962E+00  5696   0.493E+00    0.187E+00
DAV:   3    -0.303563048518E+03    0.54005E-01   -0.31670E-01  5470   0.204E+00    0.559E-01
DAV:   4    -0.303559381256E+03    0.36673E-02   -0.71265E-02  5478   0.953E-01    0.364E-01
DAV:   5    -0.303558492154E+03    0.88910E-03   -0.87251E-03  5180   0.345E-01    0.721E-02
DAV:   6    -0.303558428703E+03    0.63451E-04   -0.13161E-03  5412   0.117E-01    0.360E-02
DAV:   7    -0.303558449092E+03   -0.20389E-04   -0.20736E-04  5560   0.473E-02    0.194E-02
DAV:   8    -0.303558442321E+03    0.67704E-05   -0.29403E-05  5722   0.199E-02    0.569E-03
DAV:   9    -0.303558443142E+03   -0.82109E-06   -0.12813E-05  5204   0.115E-02    0.274E-03
DAV:  10    -0.303558443335E+03   -0.19277E-06   -0.87476E-07  3148   0.318E-03
   9 F= -.30736227E+03 E0= -.30736227E+03  d E =-.426250E+00
 curvature:  -0.17 expect dE=-0.203E-01 dE for cont linesearch -0.178E-05
 trial: gam= 0.03945 g(F)=  0.118E+00 g(S)=  0.000E+00 ort =-0.705E-02 (trialstep = 0.679E+00)
 search vector abs. value=  0.125E+00
 bond charge predicted
       N       E                     dE             d eps       ncg     rms          rms(c)
DAV:   1    -0.303535633512E+03    0.22810E-01   -0.41767E+00  4704   0.742E+00    0.494E-01
DAV:   2    -0.303541239035E+03   -0.56055E-02   -0.95972E-02  5744   0.110E+00    0.414E-01
DAV:   3    -0.303539098436E+03    0.21406E-02   -0.10949E-02  5600   0.437E-01    0.120E-01
DAV:   4    -0.303538904208E+03    0.19423E-03   -0.27069E-03  5382   0.193E-01    0.701E-02
DAV:   5    -0.303538902678E+03    0.15300E-05   -0.36475E-04  5322   0.640E-02    0.145E-02
DAV:   6    -0.303538898391E+03    0.42876E-05   -0.45654E-05  5332   0.238E-02    0.690E-03
DAV:   7    -0.303538898101E+03    0.28941E-06   -0.71049E-06  5328   0.858E-03
  10 F= -.30734375E+03 E0= -.30734375E+03  d E =0.185230E-01
 trial-energy change:    0.018523  1 .order    0.018893   -0.079854    0.117641
 step:   0.2766(harm=  0.2747)  dis= 0.00353  next Energy=  -307.378550 (dE=-0.163E-01)
 bond charge predicted
       N       E                     dE             d eps       ncg     rms          rms(c)
DAV:   1    -0.303573126033E+03   -0.34228E-01   -0.14701E+00  4704   0.441E+00    0.292E-01
DAV:   2    -0.303575137377E+03   -0.20113E-02   -0.33821E-02  5704   0.653E-01    0.246E-01
DAV:   3    -0.303574380493E+03    0.75688E-03   -0.37969E-03  5576   0.258E-01    0.707E-02
DAV:   4    -0.303574317440E+03    0.63053E-04   -0.92766E-04  5370   0.114E-01    0.429E-02
DAV:   5    -0.303574318550E+03   -0.11107E-05   -0.12436E-04  5322   0.387E-02    0.882E-03
DAV:   6    -0.303574316788E+03    0.17628E-05   -0.17292E-05  5318   0.147E-02    0.415E-03
DAV:   7    -0.303574316904E+03   -0.11615E-06   -0.22235E-06  3108   0.511E-03
  11 F= -.30737854E+03 E0= -.30737854E+03  d E =-.162669E-01
 curvature:  -0.15 expect dE=-0.244E-02 dE for cont linesearch -0.175E-07
 trial: gam= 0.14366 g(F)=  0.167E-01 g(S)=  0.000E+00 ort = 0.123E-03 (trialstep = 0.599E+00)
 search vector abs. value=  0.193E-01
 bond charge predicted
       N       E                     dE             d eps       ncg     rms          rms(c)
DAV:   1    -0.303576180662E+03   -0.18639E-02   -0.40911E-01  4674   0.233E+00    0.143E-01
DAV:   2    -0.303576596119E+03   -0.41546E-03   -0.10010E-02  5752   0.341E-01    0.112E-01
DAV:   3    -0.303576427577E+03    0.16854E-03   -0.13850E-03  5508   0.136E-01    0.407E-02
DAV:   4    -0.303576423359E+03    0.42179E-05   -0.36040E-04  5316   0.661E-02    0.295E-02
DAV:   5    -0.303576418378E+03    0.49806E-05   -0.41294E-05  5136   0.278E-02    0.471E-03
DAV:   6    -0.303576418256E+03    0.12201E-06   -0.97285E-06  5188   0.993E-03
  12 F= -.30738159E+03 E0= -.30738159E+03  d E =-.305129E-02
 trial-energy change:   -0.003051  1 .order   -0.003053   -0.010035    0.003929
 step:   0.4304(harm=  0.4304)  dis= 0.00267  next Energy=  -307.382145 (dE=-0.361E-02)
 bond charge predicted
       N       E                     dE             d eps       ncg     rms          rms(c)
DAV:   1    -0.303577226097E+03   -0.80772E-03   -0.32339E-02  4674   0.654E-01    0.411E-02
DAV:   2    -0.303577252395E+03   -0.26297E-04   -0.78299E-04  5728   0.960E-02    0.317E-02
DAV:   3    -0.303577235552E+03    0.16842E-04   -0.11660E-04  5524   0.394E-02    0.115E-02
DAV:   4    -0.303577235005E+03    0.54738E-06   -0.31176E-05  5292   0.195E-02    0.839E-03
DAV:   5    -0.303577233003E+03    0.20019E-05   -0.34052E-06  4572   0.804E-03    0.134E-03
DAV:   6    -0.303577233127E+03   -0.12391E-06   -0.72349E-07  2676   0.285E-03
  13 F= -.30738214E+03 E0= -.30738214E+03  d E =-.360000E-02
 curvature:  -0.25 expect dE=-0.345E-02 dE for cont linesearch -0.843E-08
 trial: gam= 0.82626 g(F)=  0.139E-01 g(S)=  0.000E+00 ort =-0.256E-04 (trialstep = 0.404E+00)
 search vector abs. value=  0.271E-01
 bond charge predicted
       N       E                     dE             d eps       ncg     rms          rms(c)
DAV:   1    -0.303582237485E+03   -0.50045E-02   -0.87112E-02  4668   0.104E+00    0.832E-02
DAV:   2    -0.303582303235E+03   -0.65750E-04   -0.10666E-03  5824   0.114E-01    0.528E-02
DAV:   3    -0.303582293521E+03    0.97143E-05   -0.10533E-04  5520   0.396E-02    0.964E-03
DAV:   4    -0.303582292958E+03    0.56292E-06   -0.17356E-05  5514   0.144E-02    0.489E-03
DAV:   5    -0.303582292734E+03    0.22465E-06   -0.37519E-06  4486   0.661E-03
  14 F= -.30738717E+03 E0= -.30738717E+03  d E =-.502895E-02
 ZBRENT: can't locate minimum, use default step
 trial-energy change:   -0.005029  1 .order   -0.005031   -0.005605   -0.004458
 step:   1.6170(harm=  1.9758)  dis= 0.01585  next Energy=  -307.395836 (dE=-0.137E-01)
 bond charge predicted
       N       E                     dE             d eps       ncg     rms          rms(c)
DAV:   1    -0.303590070854E+03   -0.77779E-02   -0.78342E-01  4656   0.311E+00    0.250E-01
DAV:   2    -0.303590673454E+03   -0.60260E-03   -0.96156E-03  5824   0.342E-01    0.158E-01
DAV:   3    -0.303590600015E+03    0.73439E-04   -0.95120E-04  5536   0.119E-01    0.291E-02
DAV:   4    -0.303590595655E+03    0.43602E-05   -0.15768E-04  5506   0.434E-02    0.147E-02
DAV:   5    -0.303590594262E+03    0.13929E-05   -0.35130E-05  5620   0.198E-02    0.496E-03
DAV:   6    -0.303590594239E+03    0.23410E-07   -0.43998E-06  4776   0.735E-03
  15 F= -.30739537E+03 E0= -.30739537E+03  d E =-.132345E-01
 curvature:  -1.83 expect dE=-0.837E-02 dE for cont linesearch -0.416E-03
 ZBRENT: extrapolating
 opt :   1.9690  next Energy=  -307.395811 (dE=-0.137E-01)
 bond charge predicted
       N       E                     dE             d eps       ncg     rms          rms(c)
DAV:   1    -0.303591021619E+03   -0.42736E-03   -0.66157E-02  4662   0.903E-01    0.725E-02
DAV:   2    -0.303591072847E+03   -0.51228E-04   -0.82765E-04  5824   0.100E-01    0.461E-02
DAV:   3    -0.303591065115E+03    0.77324E-05   -0.81578E-05  5514   0.349E-02    0.848E-03
DAV:   4    -0.303591064706E+03    0.40866E-06   -0.13531E-05  5506   0.127E-02    0.429E-03
DAV:   5    -0.303591064535E+03    0.17074E-06   -0.28187E-06  4176   0.578E-03
  16 F= -.30739582E+03 E0= -.30739582E+03  d E =-.136758E-01
 curvature:  -1.92 expect dE=-0.118E-01 dE for cont linesearch -0.165E-07
 trial: gam= 0.43651 g(F)=  0.614E-02 g(S)=  0.000E+00 ort = 0.152E-04 (trialstep = 0.717E+00)
 search vector abs. value=  0.113E-01
 bond charge predicted
       N       E                     dE             d eps       ncg     rms          rms(c)
DAV:   1    -0.303591576516E+03   -0.51181E-03   -0.31354E-01  4644   0.203E+00    0.129E-01
DAV:   2    -0.303591858326E+03   -0.28181E-03   -0.51738E-03  5832   0.243E-01    0.937E-02
DAV:   3    -0.303591767072E+03    0.91254E-04   -0.46394E-04  5544   0.803E-02    0.221E-02
DAV:   4    -0.303591766972E+03    0.10020E-06   -0.83560E-05  5578   0.302E-02    0.105E-02
DAV:   5    -0.303591769429E+03   -0.24575E-05   -0.10098E-05  5460   0.105E-02    0.362E-03
DAV:   6    -0.303591769041E+03    0.38823E-06   -0.84607E-07  2876   0.356E-03
  17 F= -.30739683E+03 E0= -.30739683E+03  d E =-.101107E-02
 trial-energy change:   -0.001011  1 .order   -0.000987   -0.004405    0.002431
 step:   0.4656(harm=  0.4621)  dis= 0.00237  next Energy=  -307.397252 (dE=-0.144E-02)
 bond charge predicted
       N       E                     dE             d eps       ncg     rms          rms(c)
DAV:   1    -0.303592285704E+03   -0.51627E-03   -0.38497E-02  4644   0.710E-01    0.457E-02
DAV:   2    -0.303592315307E+03   -0.29604E-04   -0.62758E-04  5832   0.849E-02    0.330E-02
DAV:   3    -0.303592300238E+03    0.15070E-04   -0.59364E-05  5536   0.286E-02    0.774E-03
DAV:   4    -0.303592299833E+03    0.40432E-06   -0.10770E-05  5538   0.109E-02    0.378E-03
DAV:   5    -0.303592299568E+03    0.26566E-06   -0.11388E-06  2912   0.380E-03
  18 F= -.30739725E+03 E0= -.30739725E+03  d E =-.143386E-02
 curvature:  -0.43 expect dE=-0.232E-02 dE for cont linesearch -0.105E-07
 trial: gam= 0.89349 g(F)=  0.545E-02 g(S)=  0.000E+00 ort =-0.167E-04 (trialstep = 0.522E+00)
 search vector abs. value=  0.144E-01
 bond charge predicted
       N       E                     dE             d eps       ncg     rms          rms(c)
DAV:   1    -0.303593755540E+03   -0.14557E-02   -0.22155E-01  4644   0.170E+00    0.102E-01
DAV:   2    -0.303593897374E+03   -0.14183E-03   -0.25050E-03  5832   0.171E-01    0.709E-02
DAV:   3    -0.303593853460E+03    0.43914E-04   -0.21618E-04  5632   0.548E-02    0.128E-02
DAV:   4    -0.303593853063E+03    0.39680E-06   -0.38519E-05  5544   0.198E-02    0.648E-03
DAV:   5    -0.303593853155E+03   -0.91913E-07   -0.54840E-06  5468   0.738E-03
  19 F= -.30739858E+03 E0= -.30739858E+03  d E =-.132828E-02
 trial-energy change:   -0.001328  1 .order   -0.001327   -0.002835    0.000181
 step:   0.4907(harm=  0.4907)  dis= 0.00248  next Energy=  -307.398582 (dE=-0.133E-02)
 bond charge predicted
       N       E                     dE             d eps       ncg     rms          rms(c)
DAV:   1    -0.303593844989E+03    0.80747E-05   -0.79742E-04  4656   0.102E-01    0.616E-03
DAV:   2    -0.303593845093E+03   -0.10376E-06   -0.88551E-06  5832   0.103E-02
  20 F= -.30739858E+03 E0= -.30739858E+03  d E =-.133362E-02
 curvature:  -0.65 expect dE=-0.916E-03 dE for cont linesearch -0.216E-08
 trial: gam= 0.24914 g(F)=  0.140E-02 g(S)=  0.000E+00 ort =-0.692E-05 (trialstep = 0.516E+00)
 search vector abs. value=  0.230E-02
 bond charge predicted
       N       E                     dE             d eps       ncg     rms          rms(c)
DAV:   1    -0.303594492547E+03   -0.64756E-03   -0.39493E-02  4716   0.710E-01    0.424E-02
DAV:   2    -0.303594528794E+03   -0.36246E-04   -0.70467E-04  5720   0.897E-02    0.321E-02
DAV:   3    -0.303594513383E+03    0.15410E-04   -0.72649E-05  5578   0.321E-02    0.745E-03
DAV:   4    -0.303594513387E+03   -0.36634E-08   -0.15237E-05  5260   0.120E-02    0.401E-03
DAV:   5    -0.303594512979E+03    0.40782E-06   -0.83317E-07  2904   0.316E-03
  21 F= -.30739894E+03 E0= -.30739894E+03  d E =-.353820E-03
 trial-energy change:   -0.000354  1 .order   -0.000357   -0.000724    0.000010
 step:   0.5085(harm=  0.5085)  dis= 0.00085  next Energy=  -307.398939 (dE=-0.357E-03)
 bond charge predicted
       N       E                     dE             d eps       ncg     rms          rms(c)
DAV:   1    -0.303594508582E+03    0.48048E-05   -0.72175E-06  4608   0.969E-03    0.660E-04
DAV:   2    -0.303594508591E+03   -0.84656E-08   -0.12922E-07  2556   0.132E-03
  22 F= -.30739894E+03 E0= -.30739894E+03  d E =-.353885E-03
 curvature:  -0.42 expect dE=-0.611E-03 dE for cont linesearch -0.884E-08
 trial: gam= 1.03942 g(F)=  0.147E-02 g(S)=  0.000E+00 ort = 0.698E-05 (trialstep = 0.298E+00)
 search vector abs. value=  0.396E-02
 bond charge predicted
       N       E                     dE             d eps       ncg     rms          rms(c)
DAV:   1    -0.303594851913E+03   -0.34333E-03   -0.13706E-02  4644   0.430E-01    0.275E-02
DAV:   2    -0.303594864959E+03   -0.13045E-04   -0.19807E-04  5762   0.466E-02    0.189E-02
DAV:   3    -0.303594863349E+03    0.16092E-05   -0.95670E-06  5550   0.127E-02    0.450E-03
DAV:   4    -0.303594863868E+03   -0.51869E-06   -0.23121E-06  3570   0.464E-03
  23 F= -.30739932E+03 E0= -.30739932E+03  d E =-.380224E-03
 trial-energy change:   -0.000380  1 .order   -0.000377   -0.000439   -0.000315
 step:   1.0544(harm=  1.0544)  dis= 0.00213  next Energy=  -307.399713 (dE=-0.777E-03)
 bond charge predicted
       N       E                     dE             d eps       ncg     rms          rms(c)
DAV:   1    -0.303595148214E+03   -0.28486E-03   -0.88272E-02  4644   0.109E+00    0.698E-02
DAV:   2    -0.303595230288E+03   -0.82074E-04   -0.12812E-03  5776   0.119E-01    0.481E-02
DAV:   3    -0.303595216143E+03    0.14145E-04   -0.61845E-05  5564   0.322E-02    0.115E-02
DAV:   4    -0.303595218557E+03   -0.24142E-05   -0.15392E-05  5650   0.118E-02    0.411E-03
DAV:   5    -0.303595218387E+03    0.16985E-06   -0.14821E-06  3026   0.496E-03
  24 F= -.30739973E+03 E0= -.30739973E+03  d E =-.797273E-03
 curvature:  -1.42 expect dE=-0.900E-03 dE for cont linesearch -0.223E-06
 trial: gam= 0.43071 g(F)=  0.635E-03 g(S)=  0.000E+00 ort = 0.249E-04 (trialstep = 0.449E+00)
 search vector abs. value=  0.139E-02
 bond charge predicted
       N       E                     dE             d eps       ncg     rms          rms(c)
DAV:   1    -0.303595381018E+03   -0.16246E-03   -0.13547E-02  4644   0.418E-01    0.290E-02
DAV:   2    -0.303595392035E+03   -0.11017E-04   -0.28031E-04  5648   0.581E-02    0.211E-02
DAV:   3    -0.303595386519E+03    0.55163E-05   -0.41114E-05  5674   0.247E-02    0.694E-03
DAV:   4    -0.303595385734E+03    0.78486E-06   -0.99460E-06  5228   0.112E-02
  25 F= -.30739991E+03 E0= -.30739991E+03  d E =-.173556E-03
 trial-energy change:   -0.000174  1 .order   -0.000173   -0.000290   -0.000057
 step:   0.5584(harm=  0.5584)  dis= 0.00094  next Energy=  -307.399914 (dE=-0.180E-03)
 bond charge predicted
       N       E                     dE             d eps       ncg     rms          rms(c)
DAV:   1    -0.303595391376E+03   -0.48572E-05   -0.79214E-04  4656   0.101E-01    0.697E-03
DAV:   2    -0.303595391870E+03   -0.49391E-06   -0.15731E-05  5648   0.139E-02    0.499E-03
DAV:   3    -0.303595391448E+03    0.42143E-06   -0.23335E-06  3768   0.606E-03
  26 F= -.30739991E+03 E0= -.30739991E+03  d E =-.180765E-03
 curvature:  -0.60 expect dE=-0.383E-03 dE for cont linesearch -0.106E-08
 trial: gam= 1.02364 g(F)=  0.636E-03 g(S)=  0.000E+00 ort =-0.157E-05 (trialstep = 0.314E+00)
 search vector abs. value=  0.209E-02
 bond charge predicted
       N       E                     dE             d eps       ncg     rms          rms(c)
DAV:   1    -0.303595495694E+03   -0.10382E-03   -0.91667E-03  4656   0.338E-01    0.243E-02
DAV:   2    -0.303595502319E+03   -0.66248E-05   -0.14926E-04  5632   0.415E-02    0.168E-02
DAV:   3    -0.303595498630E+03    0.36893E-05   -0.13130E-05  5542   0.142E-02    0.271E-03
DAV:   4    -0.303595498685E+03   -0.55471E-07   -0.27877E-06  3520   0.518E-03
  27 F= -.30740008E+03 E0= -.30740008E+03  d E =-.165093E-03
 trial-energy change:   -0.000165  1 .order   -0.000164   -0.000199   -0.000129
 step:   0.8957(harm=  0.8957)  dis= 0.00210  next Energy=  -307.400199 (dE=-0.284E-03)
 bond charge predicted
       N       E                     dE             d eps       ncg     rms          rms(c)
DAV:   1    -0.303595502263E+03   -0.36336E-05   -0.31574E-02  4656   0.627E-01    0.439E-02
DAV:   2    -0.303595526925E+03   -0.24662E-04   -0.51520E-04  5624   0.770E-02    0.305E-02
DAV:   3    -0.303595515656E+03    0.11269E-04   -0.45076E-05  5550   0.262E-02    0.505E-03
DAV:   4    -0.303595515826E+03   -0.16963E-06   -0.97320E-06  5208   0.965E-03
  28 F= -.30740020E+03 E0= -.30740020E+03  d E =-.289661E-03
 curvature:  -1.48 expect dE=-0.249E-02 dE for cont linesearch -0.332E-08
 trial: gam= 2.62850 g(F)=  0.169E-02 g(S)=  0.000E+00 ort = 0.217E-05 (trialstep = 0.557E-01)
 search vector abs. value=  0.161E-01
 bond charge predicted
       N       E                     dE             d eps       ncg     rms          rms(c)
DAV:   1    -0.303595574125E+03   -0.58468E-04   -0.21113E-03  4656   0.160E-01    0.116E-02
DAV:   2    -0.303595575550E+03   -0.14256E-05   -0.32108E-05  5506   0.192E-02    0.783E-03
DAV:   3    -0.303595574841E+03    0.70898E-06   -0.29596E-06  4502   0.648E-03
  29 F= -.30740030E+03 E0= -.30740030E+03  d E =-.925912E-04
 ZBRENT: can't locate minimum, use default step
 trial-energy change:   -0.000093  1 .order   -0.000092   -0.000094   -0.000090
 step:   0.2227(harm=  1.1201)  dis= 0.00138  next Energy=  -307.401153 (dE=-0.948E-03)
 bond charge predicted
       N       E                     dE             d eps       ncg     rms          rms(c)
DAV:   1    -0.303595720378E+03   -0.14483E-03   -0.18856E-02  4656   0.478E-01    0.351E-02
DAV:   2    -0.303595731470E+03   -0.11092E-04   -0.27815E-04  5458   0.571E-02    0.236E-02
DAV:   3    -0.303595725936E+03    0.55341E-05   -0.28839E-05  5354   0.201E-02    0.378E-03
DAV:   4    -0.303595725857E+03    0.78660E-07   -0.60109E-06  4806   0.752E-03
  30 F= -.30740055E+03 E0= -.30740055E+03  d E =-.344142E-03
 curvature:  -1.54 expect dE=-0.168E-02 dE for cont linesearch -0.176E-03
 ZBRENT: increasing intervall
 opt :   0.5569  next Energy=  -307.400916 (dE=-0.712E-03)
 bond charge predicted
       N       E                     dE             d eps       ncg     rms          rms(c)
DAV:   1    -0.303595882643E+03   -0.15671E-03   -0.75301E-02  4656   0.955E-01    0.697E-02
DAV:   2    -0.303595926088E+03   -0.43445E-04   -0.11211E-03  5468   0.114E-01    0.469E-02
DAV:   3    -0.303595904316E+03    0.21772E-04   -0.11865E-04  5330   0.406E-02    0.767E-03
DAV:   4    -0.303595903903E+03    0.41296E-06   -0.24737E-05  5340   0.153E-02    0.492E-03
DAV:   5    -0.303595903705E+03    0.19835E-06   -0.25746E-06  3938   0.566E-03
  31 F= -.30740093E+03 E0= -.30740093E+03  d E =-.723133E-03
 curvature:  -3.23 expect dE=-0.218E-02 dE for cont linesearch -0.157E-03
 ZBRENT: increasing intervall
 opt :   1.2251  next Energy=  -307.401205 (dE=-0.100E-02)
 bond charge predicted
       N       E                     dE             d eps       ncg     rms          rms(c)
DAV:   1    -0.303595664905E+03    0.23900E-03   -0.30054E-01  4656   0.191E+00    0.140E-01
DAV:   2    -0.303595839039E+03   -0.17413E-03   -0.44685E-03  5462   0.228E-01    0.938E-02
DAV:   3    -0.303595754375E+03    0.84664E-04   -0.47073E-04  5330   0.809E-02    0.152E-02
DAV:   4    -0.303595752782E+03    0.15930E-05   -0.98239E-05  5340   0.304E-02    0.977E-03
DAV:   5    -0.303595752251E+03    0.53182E-06   -0.11007E-05  5730   0.112E-02    0.273E-03
DAV:   6    -0.303595752104E+03    0.14659E-06   -0.11856E-06  2824   0.388E-03
  32 F= -.30740118E+03 E0= -.30740118E+03  d E =-.973388E-03
 curvature:  -5.72 expect dE=-0.808E-02 dE for cont linesearch -0.550E-05
 trial: gam= 0.97533 g(F)=  0.141E-02 g(S)=  0.000E+00 ort =-0.125E-03 (trialstep = 0.283E+00)
 search vector abs. value=  0.165E-01
 bond charge predicted
       N       E                     dE             d eps       ncg     rms          rms(c)
DAV:   1    -0.303596119600E+03   -0.36735E-03   -0.55772E-02  4656   0.822E-01    0.598E-02
DAV:   2    -0.303596155020E+03   -0.35420E-04   -0.84117E-04  5410   0.984E-02    0.404E-02
DAV:   3    -0.303596137874E+03    0.17146E-04   -0.74562E-05  5440   0.331E-02    0.554E-03
DAV:   4    -0.303596138220E+03   -0.34610E-06   -0.16853E-05  5284   0.120E-02    0.384E-03
DAV:   5    -0.303596137973E+03    0.24714E-06   -0.10137E-06  2854   0.390E-03
  33 F= -.30740150E+03 E0= -.30740150E+03  d E =-.323298E-03
 ZBRENT: can't locate minimum, use default step
 trial-energy change:   -0.000323  1 .order   -0.000322   -0.000366   -0.000279
 step:   1.1314(harm=  1.1983)  dis= 0.00637  next Energy=  -307.401952 (dE=-0.774E-03)
 bond charge predicted
       N       E                     dE             d eps       ncg     rms          rms(c)
DAV:   1    -0.303596606834E+03   -0.46861E-03   -0.50123E-01  4656   0.247E+00    0.179E-01
DAV:   2    -0.303596923296E+03   -0.31646E-03   -0.75156E-03  5434   0.294E-01    0.121E-01
DAV:   3    -0.303596775628E+03    0.14767E-03   -0.67098E-04  5426   0.990E-02    0.166E-02
DAV:   4    -0.303596778417E+03   -0.27882E-05   -0.15118E-04  5312   0.359E-02    0.115E-02
DAV:   5    -0.303596776678E+03    0.17386E-05   -0.10373E-05  5772   0.117E-02    0.157E-03
DAV:   6    -0.303596776828E+03   -0.15015E-06   -0.17975E-06  3248   0.386E-03
  34 F= -.30740195E+03 E0= -.30740195E+03  d E =-.773787E-03
 curvature:  -7.62 expect dE=-0.235E-01 dE for cont linesearch -0.311E-05
 trial: gam= 1.94059 g(F)=  0.308E-02 g(S)=  0.000E+00 ort = 0.821E-04 (trialstep = 0.114E+00)
 search vector abs. value=  0.656E-01
 bond charge predicted
       N       E                     dE             d eps       ncg     rms          rms(c)
DAV:   1    -0.303597076573E+03   -0.29989E-03   -0.35982E-02  4656   0.662E-01    0.483E-02
DAV:   2    -0.303597099826E+03   -0.23254E-04   -0.53687E-04  5500   0.785E-02    0.324E-02
DAV:   3    -0.303597091031E+03    0.87955E-05   -0.45036E-05  5438   0.258E-02    0.433E-03
DAV:   4    -0.303597091306E+03   -0.27535E-06   -0.10264E-05  5120   0.916E-03    0.303E-03
DAV:   5    -0.303597091305E+03    0.12842E-08   -0.55920E-07  2724   0.297E-03
  35 F= -.30740229E+03 E0= -.30740229E+03  d E =-.339218E-03
 ZBRENT: can't locate minimum, use default step
 trial-energy change:   -0.000339  1 .order   -0.000336   -0.000369   -0.000303
 step:   0.4558(harm=  0.6372)  dis= 0.00448  next Energy=  -307.402984 (dE=-0.103E-02)
 bond charge predicted
       N       E                     dE             d eps       ncg     rms          rms(c)
DAV:   1    -0.303597532498E+03   -0.44119E-03   -0.32385E-01  4644   0.199E+00    0.145E-01
DAV:   2    -0.303597736357E+03   -0.20386E-03   -0.48274E-03  5524   0.235E-01    0.971E-02
DAV:   3    -0.303597647538E+03    0.88819E-04   -0.40366E-04  5440   0.771E-02    0.130E-02
DAV:   4    -0.303597650050E+03   -0.25126E-05   -0.91797E-05  5368   0.274E-02    0.906E-03
DAV:   5    -0.303597649422E+03    0.62786E-06   -0.54528E-06  5380   0.876E-03
  36 F= -.30740292E+03 E0= -.30740292E+03  d E =-.972115E-03
 curvature:  -5.68 expect dE=-0.505E-02 dE for cont linesearch -0.864E-04
 trial: gam= 0.11916 g(F)=  0.889E-03 g(S)=  0.000E+00 ort = 0.999E-03 (trialstep = 0.182E+00)
 search vector abs. value=  0.206E-02
 bond charge predicted
       N       E                     dE             d eps       ncg     rms          rms(c)
DAV:   1    -0.303597870638E+03   -0.22059E-03   -0.26711E-03  4656   0.183E-01    0.137E-02
DAV:   2    -0.303597873225E+03   -0.25870E-05   -0.46048E-05  5506   0.229E-02    0.937E-03
DAV:   3    -0.303597873009E+03    0.21669E-06   -0.49198E-06  5004   0.807E-03
  37 F= -.30740310E+03 E0= -.30740310E+03  d E =-.174710E-03
 ZBRENT: can't locate minimum, use default step
 trial-energy change:   -0.000175  1 .order   -0.000172   -0.000184   -0.000161
 step:   0.7293(harm=  1.4705)  dis= 0.00143  next Energy=  -307.403665 (dE=-0.741E-03)
 bond charge predicted
       N       E                     dE             d eps       ncg     rms          rms(c)
DAV:   1    -0.303598411404E+03   -0.53818E-03   -0.24185E-02  4656   0.550E-01    0.411E-02
DAV:   2    -0.303598430073E+03   -0.18669E-04   -0.39711E-04  5506   0.679E-02    0.280E-02
DAV:   3    -0.303598424266E+03    0.58072E-05   -0.44160E-05  5460   0.241E-02    0.460E-03
DAV:   4    -0.303598424126E+03    0.14043E-06   -0.80213E-06  5102   0.866E-03
  38 F= -.30740350E+03 E0= -.30740350E+03  d E =-.579220E-03
 curvature:  -1.00 expect dE=-0.114E-02 dE for cont linesearch -0.152E-03
 ZBRENT: increasing intervall
 opt :   1.8232  next Energy=  -307.403758 (dE=-0.835E-03)
 bond charge predicted
       N       E                     dE             d eps       ncg     rms          rms(c)
DAV:   1    -0.303598949257E+03   -0.52499E-03   -0.96519E-02  4644   0.110E+00    0.813E-02
DAV:   2    -0.303599018599E+03   -0.69342E-04   -0.15996E-03  5506   0.136E-01    0.554E-02
DAV:   3    -0.303598990209E+03    0.28391E-04   -0.17869E-04  5452   0.484E-02    0.927E-03
DAV:   4    -0.303598989774E+03    0.43427E-06   -0.32235E-05  5220   0.174E-02    0.585E-03
DAV:   5    -0.303598989988E+03   -0.21343E-06   -0.32535E-06  4668   0.592E-03
  39 F= -.30740378E+03 E0= -.30740378E+03  d E =-.851901E-03
 curvature:  -1.69 expect dE=-0.993E-02 dE for cont linesearch -0.646E-05
 trial: gam= 6.90102 g(F)=  0.588E-02 g(S)=  0.000E+00 ort =-0.887E-04 (trialstep = 0.102E-01)
 search vector abs. value=  0.103E+00
 bond charge predicted
       N       E                     dE             d eps       ncg     rms          rms(c)
DAV:   1    -0.303599061141E+03   -0.71367E-04   -0.37733E-04  4680   0.687E-02    0.536E-03
DAV:   2    -0.303599061732E+03   -0.59105E-06   -0.64572E-06  5354   0.858E-03
  40 F= -.30740383E+03 E0= -.30740383E+03  d E =-.537662E-04
 ZBRENT: can't locate minimum, use default step
 trial-energy change:   -0.000054  1 .order   -0.000053   -0.000054   -0.000053
 step:   0.0409(harm=  0.5706)  dis= 0.00053  next Energy=  -307.405279 (dE=-0.150E-02)
 bond charge predicted
       N       E                     dE             d eps       ncg     rms          rms(c)
DAV:   1    -0.303599267665E+03   -0.20652E-03   -0.33294E-03  4644   0.204E-01    0.157E-02
DAV:   2    -0.303599270357E+03   -0.26920E-05   -0.49437E-05  5584   0.241E-02    0.104E-02
DAV:   3    -0.303599270201E+03    0.15639E-06   -0.55186E-06  5096   0.853E-03
  41 F= -.30740398E+03 E0= -.30740398E+03  d E =-.208097E-03
 curvature:  -0.59 expect dE=-0.316E-02 dE for cont linesearch -0.127E-03
 ZBRENT: increasing intervall
 opt :   0.1023  next Energy=  -307.404241 (dE=-0.466E-03)
 bond charge predicted
       N       E                     dE             d eps       ncg     rms          rms(c)
DAV:   1    -0.303599643777E+03   -0.37342E-03   -0.13569E-02  4644   0.410E-01    0.314E-02
DAV:   2    -0.303599654218E+03   -0.10440E-04   -0.20969E-04  5560   0.497E-02    0.210E-02
DAV:   3    -0.303599651943E+03    0.22741E-05   -0.23310E-05  5454   0.175E-02    0.342E-03
DAV:   4    -0.303599651758E+03    0.18511E-06   -0.43033E-06  4320   0.640E-03
  42 F= -.30740426E+03 E0= -.30740426E+03  d E =-.481326E-03
 curvature:  -1.21 expect dE=-0.560E-02 dE for cont linesearch -0.185E-03
 ZBRENT: increasing intervall
 opt :   0.2251  next Energy=  -307.404656 (dE=-0.881E-03)
 bond charge predicted
       N       E                     dE             d eps       ncg     rms          rms(c)
DAV:   1    -0.303600258632E+03   -0.60669E-03   -0.54095E-02  4644   0.819E-01    0.623E-02
DAV:   2    -0.303600294345E+03   -0.35714E-04   -0.84328E-04  5544   0.994E-02    0.417E-02
DAV:   3    -0.303600281141E+03    0.13205E-04   -0.98738E-05  5448   0.359E-02    0.700E-03
DAV:   4    -0.303600280394E+03    0.74700E-06   -0.18427E-05  5198   0.132E-02    0.454E-03
DAV:   5    -0.303600280285E+03    0.10816E-06   -0.23134E-06  4130   0.501E-03
  43 F= -.30740467E+03 E0= -.30740467E+03  d E =-.892918E-03
 curvature:  -2.61 expect dE=-0.942E-02 dE for cont linesearch -0.166E-03
 ZBRENT: increasing intervall
 opt :   0.4707  next Energy=  -307.404952 (dE=-0.118E-02)
 bond charge predicted
       N       E                     dE             d eps       ncg     rms          rms(c)
DAV:   1    -0.303600920559E+03   -0.64017E-03   -0.21591E-01  4644   0.164E+00    0.125E-01
DAV:   2    -0.303601055494E+03   -0.13493E-03   -0.33584E-03  5560   0.198E-01    0.835E-02
DAV:   3    -0.303600996781E+03    0.58712E-04   -0.39380E-04  5446   0.717E-02    0.139E-02
DAV:   4    -0.303600994020E+03    0.27610E-05   -0.73638E-05  5198   0.264E-02    0.905E-03
DAV:   5    -0.303600993288E+03    0.73205E-06   -0.96451E-06  5744   0.100E-02
  44 F= -.30740495E+03 E0= -.30740495E+03  d E =-.117126E-02
 curvature:  -4.44 expect dE=-0.135E-01 dE for cont linesearch -0.582E-05
 trial: gam= 0.06693 g(F)=  0.303E-02 g(S)=  0.000E+00 ort =-0.367E-03 (trialstep = 0.102E+00)
 search vector abs. value=  0.344E-02
 bond charge predicted
       N       E                     dE             d eps       ncg     rms          rms(c)
DAV:   1    -0.303601176413E+03   -0.18239E-03   -0.19687E-03  4692   0.162E-01    0.111E-02
DAV:   2    -0.303601177472E+03   -0.10586E-05   -0.42479E-05  5752   0.223E-02    0.840E-03
DAV:   3    -0.303601175622E+03    0.18493E-05   -0.55051E-06  5384   0.857E-03    0.183E-03
DAV:   4    -0.303601175594E+03    0.28083E-07   -0.88058E-07  2728   0.325E-03
  45 F= -.30740522E+03 E0= -.30740522E+03  d E =-.273341E-03
 ZBRENT: can't locate minimum, use default step
 trial-energy change:   -0.000273  1 .order   -0.000274   -0.000307   -0.000241
 step:   0.4093(harm=  0.4754)  dis= 0.00128  next Energy=  -307.405661 (dE=-0.714E-03)
 bond charge predicted
       N       E                     dE             d eps       ncg     rms          rms(c)
DAV:   1    -0.303601323694E+03   -0.14807E-03   -0.17579E-02  4650   0.483E-01    0.334E-02
DAV:   2    -0.303601335287E+03   -0.11593E-04   -0.36751E-04  5744   0.658E-02    0.251E-02
DAV:   3    -0.303601323538E+03    0.11749E-04   -0.53792E-05  5632   0.266E-02    0.548E-03
DAV:   4    -0.303601323201E+03    0.33708E-06   -0.97469E-06  5244   0.104E-02
  46 F= -.30740564E+03 E0= -.30740564E+03  d E =-.693992E-03
 curvature:  -0.26 expect dE=-0.605E-03 dE for cont linesearch -0.127E-04
 trial: gam= 0.61528 g(F)=  0.230E-02 g(S)=  0.000E+00 ort = 0.408E-03 (trialstep = 0.137E+00)
 search vector abs. value=  0.410E-02
 bond charge predicted
       N       E                     dE             d eps       ncg     rms          rms(c)
DAV:   1    -0.303601465342E+03   -0.14180E-03   -0.36766E-03  4656   0.219E-01    0.167E-02
DAV:   2    -0.303601463170E+03    0.21720E-05   -0.72205E-05  5400   0.294E-02    0.112E-02
DAV:   3    -0.303601459502E+03    0.36689E-05   -0.18592E-05  5360   0.141E-02    0.331E-03
DAV:   4    -0.303601459348E+03    0.15316E-06   -0.34077E-06  4358   0.604E-03
  47 F= -.30740594E+03 E0= -.30740594E+03  d E =-.303479E-03
 trial-energy change:   -0.000303  1 .order   -0.000306   -0.000350   -0.000262
 step:   0.5473(harm=  0.5473)  dis= 0.00163  next Energy=  -307.406338 (dE=-0.697E-03)
 bond charge predicted
       N       E                     dE             d eps       ncg     rms          rms(c)
DAV:   1    -0.303601373606E+03    0.85896E-04   -0.32460E-02  4644   0.652E-01    0.493E-02
DAV:   2    -0.303601363690E+03    0.99154E-05   -0.61453E-04  5408   0.859E-02    0.329E-02
DAV:   3    -0.303601342136E+03    0.21555E-04   -0.16190E-04  5348   0.415E-02    0.976E-03
DAV:   4    -0.303601339788E+03    0.23482E-05   -0.30717E-05  5182   0.178E-02    0.564E-03
DAV:   5    -0.303601338550E+03    0.12371E-05   -0.23521E-06  3840   0.556E-03    0.128E-03
DAV:   6    -0.303601338635E+03   -0.84122E-07   -0.31339E-07  2690   0.212E-03
  48 F= -.30740632E+03 E0= -.30740632E+03  d E =-.680924E-03
 curvature:  -0.44 expect dE=-0.456E-03 dE for cont linesearch -0.377E-07
 trial: gam= 0.66420 g(F)=  0.103E-02 g(S)=  0.000E+00 ort =-0.187E-04 (trialstep = 0.219E+00)
 search vector abs. value=  0.282E-02
 bond charge predicted
       N       E                     dE             d eps       ncg     rms          rms(c)
DAV:   1    -0.303601297165E+03    0.41386E-04   -0.62296E-03  4644   0.286E-01    0.217E-02
DAV:   2    -0.303601294034E+03    0.31301E-05   -0.11770E-04  5420   0.381E-02    0.145E-02
DAV:   3    -0.303601288859E+03    0.51756E-05   -0.32547E-05  5356   0.189E-02    0.465E-03
DAV:   4    -0.303601288399E+03    0.46000E-06   -0.63288E-06  5118   0.824E-03
  49 F= -.30740648E+03 E0= -.30740648E+03  d E =-.156146E-03
 trial-energy change:   -0.000156  1 .order   -0.000159   -0.000224   -0.000095
 step:   0.3796(harm=  0.3796)  dis= 0.00088  next Energy=  -307.406515 (dE=-0.194E-03)
 bond charge predicted
       N       E                     dE             d eps       ncg     rms          rms(c)
DAV:   1    -0.303601174890E+03    0.11397E-03   -0.33107E-03  4656   0.209E-01    0.157E-02
DAV:   2    -0.303601173036E+03    0.18544E-05   -0.61822E-05  5452   0.277E-02    0.105E-02
DAV:   3    -0.303601169956E+03    0.30799E-05   -0.16719E-05  5362   0.136E-02    0.338E-03
DAV:   4    -0.303601169740E+03    0.21618E-06   -0.30782E-06  3958   0.595E-03
  50 F= -.30740651E+03 E0= -.30740651E+03  d E =-.188173E-03
 curvature:  -0.52 expect dE=-0.724E-04 dE for cont linesearch -0.245E-09
 trial: gam= 0.04367 g(F)=  0.138E-03 g(S)=  0.000E+00 ort =-0.115E-05 (trialstep = 0.251E+00)
 search vector abs. value=  0.144E-03
 bond charge predicted
       N       E                     dE             d eps       ncg     rms          rms(c)
DAV:   1    -0.303601221954E+03   -0.51998E-04   -0.49368E-04  4656   0.794E-02    0.539E-03
DAV:   2    -0.303601222488E+03   -0.53441E-06   -0.75332E-06  5704   0.967E-03
  51 F= -.30740654E+03 E0= -.30740654E+03  d E =-.324530E-04
 ZBRENT: can't locate minimum, use default step
 trial-energy change:   -0.000032  1 .order   -0.000032   -0.000035   -0.000030
 step:   1.0056(harm=  1.8631)  dis= 0.00058  next Energy=  -307.406639 (dE=-0.129E-03)
 bond charge predicted
       N       E                     dE             d eps       ncg     rms          rms(c)
DAV:   1    -0.303601348714E+03   -0.12676E-03   -0.44017E-03  4644   0.237E-01    0.160E-02
DAV:   2    -0.303601352268E+03   -0.35547E-05   -0.63922E-05  5776   0.278E-02    0.111E-02
DAV:   3    -0.303601352157E+03    0.11092E-06   -0.92464E-06  5604   0.116E-02
  52 F= -.30740661E+03 E0= -.30740661E+03  d E =-.101230E-03
 curvature:  -0.69 expect dE=-0.103E-03 dE for cont linesearch -0.123E-04
 trial: gam= 0.00000 g(F)=  0.148E-03 g(S)=  0.000E+00 ort = 0.505E-04 (trialstep = 0.391E+00)
 search vector abs. value=  0.148E-03
 bond charge predicted
       N       E                     dE             d eps       ncg     rms          rms(c)
DAV:   1    -0.303601415844E+03   -0.63576E-04   -0.15848E-03  4656   0.143E-01    0.104E-02
DAV:   2    -0.303601416236E+03   -0.39150E-06   -0.34686E-05  5616   0.218E-02    0.733E-03
DAV:   3    -0.303601415798E+03    0.43733E-06   -0.72236E-06  5560   0.994E-03
  53 F= -.30740665E+03 E0= -.30740665E+03  d E =-.374417E-04
 trial-energy change:   -0.000037  1 .order   -0.000036   -0.000058   -0.000015
 step:   0.5228(harm=  0.5228)  dis= 0.00026  next Energy=  -307.406650 (dE=-0.386E-04)
 bond charge predicted
       N       E                     dE             d eps       ncg     rms          rms(c)
DAV:   1    -0.303601428303E+03   -0.12067E-04   -0.20023E-04  4680   0.509E-02    0.500E-03
DAV:   2    -0.303601428382E+03   -0.78372E-07   -0.52654E-06  5336   0.884E-03
  54 F= -.30740665E+03 E0= -.30740665E+03  d E =-.411766E-04
 curvature:  -0.26 expect dE=-0.298E-04 dE for cont linesearch -0.340E-06
 trial: gam= 0.67803 g(F)=  0.114E-03 g(S)=  0.000E+00 ort = 0.139E-04 (trialstep = 0.307E+00)
 search vector abs. value=  0.201E-03
 reached required accuracy - stopping structural energy minimisation
