<?xml version="1.0" encoding="ISO-8859-1"?>
<modeling>
 <generator>
  <i name="program" type="string">vasp </i>
  <i name="version" type="string">5.3.5  </i>
  <i name="subversion" type="string">31Mar14 (build Nov 02 2014 15:17:37) complex                          parallel </i>
  <i name="platform" type="string">ion-Intel-MKL </i>
  <i name="date" type="string">2017 03 28 </i>
  <i name="time" type="string">16:46:19 </i>
 </generator>
 <incar>
  <i type="string" name="SYSTEM">benzene</i>
  <i type="string" name="PREC">normal</i>
  <i type="int" name="NELM">   200</i>
  <i type="int" name="IBRION">     2</i>
  <i name="EDIFF">      0.00000100</i>
  <i name="EDIFFG">      0.00010000</i>
  <i type="int" name="NSW">   200</i>
  <i type="int" name="ISIF">     2</i>
  <i name="ENCUT">    600.00000000</i>
  <i type="int" name="ISMEAR">    -5</i>
  <i type="logical" name="LWAVE"> F  </i>
  <i type="logical" name="LCHARG"> F  </i>
  <i type="int" name="NELM">   200</i>
  <i type="string" name="GGA">PE</i>
 </incar>
 <kpoints>
  <generation param="Gamma">
   <v type="int" name="divisions">       4        4        4 </v>
   <v name="usershift">      0.00000000       0.00000000       0.00000000 </v>
   <v name="genvec1">      0.25000000       0.00000000       0.00000000 </v>
   <v name="genvec2">      0.00000000       0.25000000       0.00000000 </v>
   <v name="genvec3">      0.00000000       0.00000000       0.25000000 </v>
   <v name="shift">      0.00000000       0.00000000       0.00000000 </v>
  </generation>
  <varray name="kpointlist" >
   <v>       0.00000000       0.00000000       0.00000000 </v>
   <v>       0.25000000       0.00000000       0.00000000 </v>
   <v>       0.50000000       0.00000000       0.00000000 </v>
   <v>       0.00000000       0.25000000       0.00000000 </v>
   <v>       0.25000000       0.25000000       0.00000000 </v>
   <v>       0.50000000       0.25000000       0.00000000 </v>
   <v>       0.00000000       0.50000000       0.00000000 </v>
   <v>       0.25000000       0.50000000       0.00000000 </v>
   <v>       0.50000000       0.50000000       0.00000000 </v>
   <v>       0.00000000       0.00000000       0.25000000 </v>
   <v>       0.25000000       0.00000000       0.25000000 </v>
   <v>       0.50000000       0.00000000       0.25000000 </v>
   <v>       0.00000000       0.25000000       0.25000000 </v>
   <v>       0.25000000       0.25000000       0.25000000 </v>
   <v>       0.50000000       0.25000000       0.25000000 </v>
   <v>       0.00000000       0.50000000       0.25000000 </v>
   <v>       0.25000000       0.50000000       0.25000000 </v>
   <v>       0.50000000       0.50000000       0.25000000 </v>
   <v>       0.00000000       0.00000000       0.50000000 </v>
   <v>       0.25000000       0.00000000       0.50000000 </v>
   <v>       0.50000000       0.00000000       0.50000000 </v>
   <v>       0.00000000       0.25000000       0.50000000 </v>
   <v>       0.25000000       0.25000000       0.50000000 </v>
   <v>       0.50000000       0.25000000       0.50000000 </v>
   <v>       0.00000000       0.50000000       0.50000000 </v>
   <v>       0.25000000       0.50000000       0.50000000 </v>
   <v>       0.50000000       0.50000000       0.50000000 </v>
  </varray>
  <varray name="weights" >
   <v>       0.01562500 </v>
   <v>       0.03125000 </v>
   <v>       0.01562500 </v>
   <v>       0.03125000 </v>
   <v>       0.06250000 </v>
   <v>       0.03125000 </v>
   <v>       0.01562500 </v>
   <v>       0.03125000 </v>
   <v>       0.01562500 </v>
   <v>       0.03125000 </v>
   <v>       0.06250000 </v>
   <v>       0.03125000 </v>
   <v>       0.06250000 </v>
   <v>       0.12500000 </v>
   <v>       0.06250000 </v>
   <v>       0.03125000 </v>
   <v>       0.06250000 </v>
   <v>       0.03125000 </v>
   <v>       0.01562500 </v>
   <v>       0.03125000 </v>
   <v>       0.01562500 </v>
   <v>       0.03125000 </v>
   <v>       0.06250000 </v>
   <v>       0.03125000 </v>
   <v>       0.01562500 </v>
   <v>       0.03125000 </v>
   <v>       0.01562500 </v>
  </varray>
  <varray name="tetrahedronlist"  type="int" >
   <v type="int" >        2        1        2        5       10 </v>
   <v type="int" >        2        1        4        5       10 </v>
   <v type="int" >        2        4        5       10       13 </v>
   <v type="int" >        2        2        5       10       11 </v>
   <v type="int" >        2        5       10       11       14 </v>
   <v type="int" >        2        5       10       13       14 </v>
   <v type="int" >        2        2        3        6       11 </v>
   <v type="int" >        2        2        5        6       11 </v>
   <v type="int" >        2        5        6       11       14 </v>
   <v type="int" >        2        3        6       11       12 </v>
   <v type="int" >        2        6       11       12       15 </v>
   <v type="int" >        2        6       11       14       15 </v>
   <v type="int" >        2        2        3        5       12 </v>
   <v type="int" >        2        3        5        6       12 </v>
   <v type="int" >        2        5        6       12       15 </v>
   <v type="int" >        2        2        5       11       12 </v>
   <v type="int" >        2        5       11       12       14 </v>
   <v type="int" >        2        5       12       14       15 </v>
   <v type="int" >        2        1        2        4       11 </v>
   <v type="int" >        2        2        4        5       11 </v>
   <v type="int" >        2        4        5       11       14 </v>
   <v type="int" >        2        1        4       10       11 </v>
   <v type="int" >        2        4       10       11       13 </v>
   <v type="int" >        2        4       11       13       14 </v>
   <v type="int" >        2        4        5        8       13 </v>
   <v type="int" >        2        4        7        8       13 </v>
   <v type="int" >        2        7        8       13       16 </v>
   <v type="int" >        2        5        8       13       14 </v>
   <v type="int" >        2        8       13       14       17 </v>
   <v type="int" >        2        8       13       16       17 </v>
   <v type="int" >        2        5        6        9       14 </v>
   <v type="int" >        2        5        8        9       14 </v>
   <v type="int" >        2        8        9       14       17 </v>
   <v type="int" >        2        6        9       14       15 </v>
   <v type="int" >        2        9       14       15       18 </v>
   <v type="int" >        2        9       14       17       18 </v>
   <v type="int" >        2        5        6        8       15 </v>
   <v type="int" >        2        6        8        9       15 </v>
   <v type="int" >        2        8        9       15       18 </v>
   <v type="int" >        2        5        8       14       15 </v>
   <v type="int" >        2        8       14       15       17 </v>
   <v type="int" >        2        8       15       17       18 </v>
   <v type="int" >        2        4        5        7       14 </v>
   <v type="int" >        2        5        7        8       14 </v>
   <v type="int" >        2        7        8       14       17 </v>
   <v type="int" >        2        4        7       13       14 </v>
   <v type="int" >        2        7       13       14       16 </v>
   <v type="int" >        2        7       14       16       17 </v>
   <v type="int" >        2        5        7        8       16 </v>
   <v type="int" >        2        4        5        7       16 </v>
   <v type="int" >        2        4        5       13       16 </v>
   <v type="int" >        2        5        8       16       17 </v>
   <v type="int" >        2        5       14       16       17 </v>
   <v type="int" >        2        5       13       14       16 </v>
   <v type="int" >        2        6        8        9       17 </v>
   <v type="int" >        2        5        6        8       17 </v>
   <v type="int" >        2        5        6       14       17 </v>
   <v type="int" >        2        6        9       17       18 </v>
   <v type="int" >        2        6       15       17       18 </v>
   <v type="int" >        2        6       14       15       17 </v>
   <v type="int" >        2        5        8        9       18 </v>
   <v type="int" >        2        5        6        9       18 </v>
   <v type="int" >        2        5        6       15       18 </v>
   <v type="int" >        2        5        8       17       18 </v>
   <v type="int" >        2        5       14       17       18 </v>
   <v type="int" >        2        5       14       15       18 </v>
   <v type="int" >        2        4        7        8       17 </v>
   <v type="int" >        2        4        5        8       17 </v>
   <v type="int" >        2        4        5       14       17 </v>
   <v type="int" >        2        4        7       16       17 </v>
   <v type="int" >        2        4       13       16       17 </v>
   <v type="int" >        2        4       13       14       17 </v>
   <v type="int" >        2        2        4        5       13 </v>
   <v type="int" >        2        1        2        4       13 </v>
   <v type="int" >        2        1        2       10       13 </v>
   <v type="int" >        2        2        5       13       14 </v>
   <v type="int" >        2        2       11       13       14 </v>
   <v type="int" >        2        2       10       11       13 </v>
   <v type="int" >        2        3        5        6       14 </v>
   <v type="int" >        2        2        3        5       14 </v>
   <v type="int" >        2        2        3       11       14 </v>
   <v type="int" >        2        3        6       14       15 </v>
   <v type="int" >        2        3       12       14       15 </v>
   <v type="int" >        2        3       11       12       14 </v>
   <v type="int" >        2        2        5        6       15 </v>
   <v type="int" >        2        2        3        6       15 </v>
   <v type="int" >        2        2        3       12       15 </v>
   <v type="int" >        2        2        5       14       15 </v>
   <v type="int" >        2        2       11       14       15 </v>
   <v type="int" >        2        2       11       12       15 </v>
   <v type="int" >        2        1        4        5       14 </v>
   <v type="int" >        2        1        2        5       14 </v>
   <v type="int" >        2        1        2       11       14 </v>
   <v type="int" >        2        1        4       13       14 </v>
   <v type="int" >        2        1       10       13       14 </v>
   <v type="int" >        2        1       10       11       14 </v>
   <v type="int" >        2       10       11       14       19 </v>
   <v type="int" >        2       10       13       14       19 </v>
   <v type="int" >        2       13       14       19       22 </v>
   <v type="int" >        2       11       14       19       20 </v>
   <v type="int" >        2       14       19       20       23 </v>
   <v type="int" >        2       14       19       22       23 </v>
   <v type="int" >        2       11       12       15       20 </v>
   <v type="int" >        2       11       14       15       20 </v>
   <v type="int" >        2       14       15       20       23 </v>
   <v type="int" >        2       12       15       20       21 </v>
   <v type="int" >        2       15       20       21       24 </v>
   <v type="int" >        2       15       20       23       24 </v>
   <v type="int" >        2       11       12       14       21 </v>
   <v type="int" >        2       12       14       15       21 </v>
   <v type="int" >        2       14       15       21       24 </v>
   <v type="int" >        2       11       14       20       21 </v>
   <v type="int" >        2       14       20       21       23 </v>
   <v type="int" >        2       14       21       23       24 </v>
   <v type="int" >        2       10       11       13       20 </v>
   <v type="int" >        2       11       13       14       20 </v>
   <v type="int" >        2       13       14       20       23 </v>
   <v type="int" >        2       10       13       19       20 </v>
   <v type="int" >        2       13       19       20       22 </v>
   <v type="int" >        2       13       20       22       23 </v>
   <v type="int" >        2       13       14       17       22 </v>
   <v type="int" >        2       13       16       17       22 </v>
   <v type="int" >        2       16       17       22       25 </v>
   <v type="int" >        2       14       17       22       23 </v>
   <v type="int" >        2       17       22       23       26 </v>
   <v type="int" >        2       17       22       25       26 </v>
   <v type="int" >        2       14       15       18       23 </v>
   <v type="int" >        2       14       17       18       23 </v>
   <v type="int" >        2       17       18       23       26 </v>
   <v type="int" >        2       15       18       23       24 </v>
   <v type="int" >        2       18       23       24       27 </v>
   <v type="int" >        2       18       23       26       27 </v>
   <v type="int" >        2       14       15       17       24 </v>
   <v type="int" >        2       15       17       18       24 </v>
   <v type="int" >        2       17       18       24       27 </v>
   <v type="int" >        2       14       17       23       24 </v>
   <v type="int" >        2       17       23       24       26 </v>
   <v type="int" >        2       17       24       26       27 </v>
   <v type="int" >        2       13       14       16       23 </v>
   <v type="int" >        2       14       16       17       23 </v>
   <v type="int" >        2       16       17       23       26 </v>
   <v type="int" >        2       13       16       22       23 </v>
   <v type="int" >        2       16       22       23       25 </v>
   <v type="int" >        2       16       23       25       26 </v>
   <v type="int" >        2       14       16       17       25 </v>
   <v type="int" >        2       13       14       16       25 </v>
   <v type="int" >        2       13       14       22       25 </v>
   <v type="int" >        2       14       17       25       26 </v>
   <v type="int" >        2       14       23       25       26 </v>
   <v type="int" >        2       14       22       23       25 </v>
   <v type="int" >        2       15       17       18       26 </v>
   <v type="int" >        2       14       15       17       26 </v>
   <v type="int" >        2       14       15       23       26 </v>
   <v type="int" >        2       15       18       26       27 </v>
   <v type="int" >        2       15       24       26       27 </v>
   <v type="int" >        2       15       23       24       26 </v>
   <v type="int" >        2       14       17       18       27 </v>
   <v type="int" >        2       14       15       18       27 </v>
   <v type="int" >        2       14       15       24       27 </v>
   <v type="int" >        2       14       17       26       27 </v>
   <v type="int" >        2       14       23       26       27 </v>
   <v type="int" >        2       14       23       24       27 </v>
   <v type="int" >        2       13       16       17       26 </v>
   <v type="int" >        2       13       14       17       26 </v>
   <v type="int" >        2       13       14       23       26 </v>
   <v type="int" >        2       13       16       25       26 </v>
   <v type="int" >        2       13       22       25       26 </v>
   <v type="int" >        2       13       22       23       26 </v>
   <v type="int" >        2       11       13       14       22 </v>
   <v type="int" >        2       10       11       13       22 </v>
   <v type="int" >        2       10       11       19       22 </v>
   <v type="int" >        2       11       14       22       23 </v>
   <v type="int" >        2       11       20       22       23 </v>
   <v type="int" >        2       11       19       20       22 </v>
   <v type="int" >        2       12       14       15       23 </v>
   <v type="int" >        2       11       12       14       23 </v>
   <v type="int" >        2       11       12       20       23 </v>
   <v type="int" >        2       12       15       23       24 </v>
   <v type="int" >        2       12       21       23       24 </v>
   <v type="int" >        2       12       20       21       23 </v>
   <v type="int" >        2       11       14       15       24 </v>
   <v type="int" >        2       11       12       15       24 </v>
   <v type="int" >        2       11       12       21       24 </v>
   <v type="int" >        2       11       14       23       24 </v>
   <v type="int" >        2       11       20       23       24 </v>
   <v type="int" >        2       11       20       21       24 </v>
   <v type="int" >        2       10       13       14       23 </v>
   <v type="int" >        2       10       11       14       23 </v>
   <v type="int" >        2       10       11       20       23 </v>
   <v type="int" >        2       10       13       22       23 </v>
   <v type="int" >        2       10       19       22       23 </v>
   <v type="int" >        2       10       19       20       23 </v>
  </varray>
  <i name="volumeweight">      0.00260417 </i>
 </kpoints>
 <parameters>
  <separator name="general" >
   <i type="string" name="SYSTEM">benzene</i>
   <i type="logical" name="LCOMPAT"> F  </i>
  </separator>
  <separator name="electronic" >
   <i type="string" name="PREC">normal</i>
   <i name="ENMAX">    600.00000000</i>
   <i name="ENAUG">    644.87300000</i>
   <i name="EDIFF">      0.00000100</i>
   <i type="int" name="IALGO">    38</i>
   <i type="int" name="IWAVPR">    11</i>
   <i type="int" name="NBANDS">    86</i>
   <i name="NELECT">    120.00000000</i>
   <i type="int" name="TURBO">     0</i>
   <i type="int" name="IRESTART">     0</i>
   <i type="int" name="NREBOOT">     0</i>
   <i type="int" name="NMIN">     0</i>
   <i name="EREF">      0.00000000</i>
   <separator name="electronic smearing" >
    <i type="int" name="ISMEAR">    -5</i>
    <i name="SIGMA">      0.20000000</i>
    <i name="KSPACING">      0.50000000</i>
    <i type="logical" name="KGAMMA"> T  </i>
   </separator>
   <separator name="electronic projectors" >
    <i type="logical" name="LREAL"> F  </i>
    <v name="ROPT">      0.00000000      0.00000000</v>
    <i type="int" name="LMAXPAW">  -100</i>
    <i type="int" name="LMAXMIX">     2</i>
    <i type="logical" name="NLSPLINE"> F  </i>
   </separator>
   <separator name="electronic startup" >
    <i type="int" name="ISTART">     0</i>
    <i type="int" name="ICHARG">     2</i>
    <i type="int" name="INIWAV">     1</i>
   </separator>
   <separator name="electronic spin" >
    <i type="int" name="ISPIN">     1</i>
    <i type="logical" name="LNONCOLLINEAR"> F  </i>
    <v name="MAGMOM">      1.00000000      1.00000000      1.00000000      1.00000000      1.00000000      1.00000000      1.00000000      1.00000000      1.00000000      1.00000000      1.00000000      1.00000000      1.00000000      1.00000000      1.00000000      1.00000000      1.00000000      1.00000000      1.00000000      1.00000000
      1.00000000      1.00000000      1.00000000      1.00000000      1.00000000      1.00000000      1.00000000      1.00000000      1.00000000      1.00000000      1.00000000      1.00000000      1.00000000      1.00000000      1.00000000      1.00000000      1.00000000      1.00000000      1.00000000      1.00000000
      1.00000000      1.00000000      1.00000000      1.00000000      1.00000000      1.00000000      1.00000000      1.00000000</v>
    <i name="NUPDOWN">     -1.00000000</i>
    <i type="logical" name="LSORBIT"> F  </i>
    <v name="SAXIS">      0.00000000      0.00000000      1.00000000</v>
    <i type="logical" name="LSPIRAL"> F  </i>
    <v name="QSPIRAL">      0.00000000      0.00000000      0.00000000</v>
    <i type="logical" name="LZEROZ"> F  </i>
   </separator>
   <separator name="electronic exchange-correlation" >
    <i type="logical" name="LASPH"> F  </i>
    <i type="logical" name="LMETAGGA"> F  </i>
   </separator>
   <separator name="electronic convergence" >
    <i type="int" name="NELM">   200</i>
    <i type="int" name="NELMDL">     0</i>
    <i type="int" name="NELMIN">     2</i>
    <i name="ENINI">    600.00000000</i>
    <separator name="electronic convergence detail" >
     <i type="logical" name="LDIAG"> T  </i>
     <i type="logical" name="LSUBROT"> F  </i>
     <i name="WEIMIN">      0.00100000</i>
     <i name="EBREAK">      0.00000000</i>
     <i name="DEPER">      0.30000000</i>
     <i type="int" name="NRMM">     4</i>
     <i name="TIME">      0.40000000</i>
    </separator>
   </separator>
   <separator name="electronic mixer" >
    <i name="AMIX">      0.40000000</i>
    <i name="BMIX">      1.00000000</i>
    <i name="AMIN">      0.10000000</i>
    <i name="AMIX_MAG">      1.60000000</i>
    <i name="BMIX_MAG">      1.00000000</i>
    <separator name="electronic mixer details" >
     <i type="int" name="IMIX">     4</i>
     <i type="int" name="MAXMIX">   -45</i>
     <i name="WC">    100.00000000</i>
     <i type="int" name="INIMIX">     1</i>
     <i type="int" name="MIXPRE">     1</i>
     <i type="int" name="MREMOVE">     5</i>
    </separator>
   </separator>
   <separator name="electronic dipolcorrection" >
    <i type="logical" name="LDIPOL"> F  </i>
    <i type="logical" name="LMONO"> F  </i>
    <i type="int" name="IDIPOL">     0</i>
    <i name="EPSILON">      1.00000000</i>
    <v name="DIPOL">   -100.00000000   -100.00000000   -100.00000000</v>
    <i name="EFIELD">      0.00000000</i>
   </separator>
  </separator>
  <separator name="grids" >
   <i type="int" name="NGX">    48</i>
   <i type="int" name="NGY">    56</i>
   <i type="int" name="NGZ">    40</i>
   <i type="int" name="NGXF">    96</i>
   <i type="int" name="NGYF">   112</i>
   <i type="int" name="NGZF">    80</i>
   <i type="logical" name="ADDGRID"> F  </i>
  </separator>
  <separator name="ionic" >
   <i type="int" name="NSW">   200</i>
   <i type="int" name="IBRION">     2</i>
   <i type="int" name="ISIF">     2</i>
   <i name="PSTRESS">      0.00000000</i>
   <i name="EDIFFG">      0.00010000</i>
   <i type="int" name="NFREE">     1</i>
   <i name="POTIM">      0.50000000</i>
   <i name="SMASS">     -3.00000000</i>
   <i name="SCALEE">      1.00000000</i>
  </separator>
  <separator name="ionic md" >
   <i name="TEBEG">      0.00010000</i>
   <i name="TEEND">      0.00010000</i>
   <i type="int" name="NBLOCK">     1</i>
   <i type="int" name="KBLOCK">   200</i>
   <i type="int" name="NPACO">   256</i>
   <i name="APACO">     16.00000000</i>
  </separator>
  <separator name="symmetry" >
   <i type="int" name="ISYM">     2</i>
   <i name="SYMPREC">      0.00001000</i>
  </separator>
  <separator name="dos" >
   <i type="logical" name="LORBIT"> F  </i>
   <v name="RWIGS">     -1.00000000     -1.00000000</v>
   <i type="int" name="NEDOS">   301</i>
   <i name="EMIN">     10.00000000</i>
   <i name="EMAX">    -10.00000000</i>
   <i name="EFERMI">      0.00000000</i>
  </separator>
  <separator name="writing" >
   <i type="int" name="NWRITE">     2</i>
   <i type="logical" name="LWAVE"> F  </i>
   <i type="logical" name="LCHARG"> F  </i>
   <i type="logical" name="LPARD"> F  </i>
   <i type="logical" name="LVTOT"> F  </i>
   <i type="logical" name="LVHAR"> F  </i>
   <i type="logical" name="LELF"> F  </i>
   <i type="logical" name="LOPTICS"> F  </i>
   <v name="STM">      0.00000000      0.00000000      0.00000000      0.00000000      0.00000000      0.00000000      0.00000000</v>
  </separator>
  <separator name="performance" >
   <i type="int" name="NPAR">     2</i>
   <i type="int" name="NSIM">     4</i>
   <i type="int" name="NBLK">    -1</i>
   <i type="logical" name="LPLANE"> T  </i>
   <i type="logical" name="LSCALAPACK"> T  </i>
   <i type="logical" name="LSCAAWARE"> F  </i>
   <i type="logical" name="LSCALU"> F  </i>
   <i type="logical" name="LASYNC"> F  </i>
   <i type="logical" name="LORBITALREAL"> F  </i>
  </separator>
  <separator name="miscellaneous" >
   <i type="int" name="IDIOT">     3</i>
   <i type="logical" name="LMUSIC"> F  </i>
   <v name="POMASS">     12.01100000      1.00000000</v>
   <v name="DARWINR">      0.00000000      0.00000000</v>
   <v name="DARWINV">      1.00000000      1.00000000</v>
   <i type="logical" name="LCORR"> T  </i>
  </separator>
  <i type="logical" name="GGA_COMPAT"> T  </i>
  <i type="logical" name="LBERRY"> F  </i>
  <i type="int" name="ICORELEVEL">     0</i>
  <i type="logical" name="LDAU"> F  </i>
  <i type="int" name="I_CONSTRAINED_M">     0</i>
  <separator name="electronic exchange-correlation" >
   <i type="string" name="GGA">PE</i>
   <i type="int" name="VOSKOWN">     0</i>
   <i type="logical" name="LHFCALC"> F  </i>
   <i type="string" name="PRECFOCK"></i>
   <i type="logical" name="LSYMGRAD"> F  </i>
   <i type="logical" name="LHFONE"> F  </i>
   <i type="logical" name="LRHFCALC"> F  </i>
   <i type="logical" name="LTHOMAS"> F  </i>
   <i type="logical" name="LMODELHF"> F  </i>
   <i name="ENCUT4O">     -1.00000000</i>
   <i type="int" name="EXXOEP">     0</i>
   <i type="int" name="FOURORBIT">     0</i>
   <i name="AEXX">      0.00000000</i>
   <i name="HFALPHA">      0.00000000</i>
   <i name="MCALPHA">      0.00000000</i>
   <i name="ALDAX">      1.00000000</i>
   <i name="AGGAX">      1.00000000</i>
   <i name="ALDAC">      1.00000000</i>
   <i name="AGGAC">      1.00000000</i>
   <i type="int" name="NKREDX">     1</i>
   <i type="int" name="NKREDY">     1</i>
   <i type="int" name="NKREDZ">     1</i>
   <i type="logical" name="SHIFTRED"> F  </i>
   <i type="logical" name="ODDONLY"> F  </i>
   <i type="logical" name="EVENONLY"> F  </i>
   <i type="int" name="LMAXFOCK">     0</i>
   <i type="int" name="NMAXFOCKAE">     0</i>
   <i type="logical" name="LFOCKAEDFT"> F  </i>
   <i name="HFSCREEN">      0.00000000</i>
   <i name="HFSCREENC">      0.00000000</i>
   <i type="int" name="NBANDSGWLOW">     0</i>
  </separator>
  <separator name="vdW DFT" >
   <i type="logical" name="LUSE_VDW"> F  </i>
   <i name="Zab_VDW">     -0.84910000</i>
   <i name="PARAM1">      0.12340000</i>
   <i name="PARAM2">      1.00000000</i>
   <i name="PARAM3">      0.00000000</i>
  </separator>
  <separator name="model GW" >
   <i type="int" name="MODEL_GW">     0</i>
   <i name="MODEL_EPS0">      5.31057147</i>
   <i name="MODEL_ALPHA">      1.00000000</i>
  </separator>
  <separator name="linear response parameters" >
   <i type="logical" name="LEPSILON"> F  </i>
   <i type="logical" name="LRPA"> F  </i>
   <i type="logical" name="LNABLA"> F  </i>
   <i type="logical" name="LVEL"> F  </i>
   <i type="int" name="KINTER">     0</i>
   <i name="CSHIFT">      0.10000000</i>
   <i name="OMEGAMAX">     -1.00000000</i>
   <i name="DEG_THRESHOLD">      0.00200000</i>
  </separator>
  <separator name="orbital magnetization" >
   <i type="logical" name="NUCIND"> F  </i>
   <v name="MAGPOS">      0.00000000      0.00000000      0.00000000</v>
   <i type="logical" name="LNICSALL"> T  </i>
   <i type="logical" name="ORBITALMAG"> F  </i>
   <i type="logical" name="LMAGBLOCH"> F  </i>
   <i type="logical" name="LCHIMAG"> F  </i>
   <i type="logical" name="LGAUGE"> T  </i>
   <i type="int" name="MAGATOM">     0</i>
   <v name="MAGDIPOL">      0.00000000      0.00000000      0.00000000</v>
   <v name="AVECCONST">      0.00000000      0.00000000      0.00000000</v>
  </separator>
  <separator name="response functions" >
   <i type="logical" name="LADDER"> F  </i>
   <i type="logical" name="LFXC"> F  </i>
   <i type="logical" name="LHARTREE"> T  </i>
   <i type="int" name="IBSE">     0</i>
   <i type="logical" name="LTCTE"> F  </i>
   <i type="logical" name="LTETE"> F  </i>
   <i type="logical" name="LTRIPLET"> F  </i>
   <i type="logical" name="LFXCEPS"> F  </i>
   <i type="logical" name="LFXHEG"> F  </i>
   <i type="logical" name="L2ORDER"> F  </i>
   <i type="logical" name="LUSEW"> F  </i>
   <i name="ENCUTGW">     -2.00000000</i>
   <i name="ENCUTGWSOFT">     -2.00000000</i>
   <i name="ENCUTLF">     -1.00000000</i>
   <i type="int" name="LMAXMP2">    -1</i>
   <i name="SCISSOR">      0.00000000</i>
   <i type="int" name="NOMEGA">     0</i>
   <i type="int" name="NOMEGAR">     0</i>
   <i type="int" name="NBANDSGW">    -1</i>
   <i type="int" name="NBANDSO">    -1</i>
   <i type="int" name="NBANDSV">    -1</i>
   <i type="int" name="NELM">   200</i>
   <i type="int" name="DIM">     3</i>
   <i type="int" name="ANTIRES">     0</i>
   <i name="OMEGAMAX">    -30.00000000</i>
   <i name="OMEGAMIN">    -30.00000000</i>
   <i name="OMEGATL">   -200.00000000</i>
   <i type="int" name="OMEGAGRID">     0</i>
   <i name="CSHIFT">     -0.10000000</i>
   <i type="logical" name="SELFENERGY"> F  </i>
   <i type="logical" name="LSPECTRAL"> F  </i>
   <i type="logical" name="ODDONLYGW"> F  </i>
   <i type="logical" name="EVENONLYGW"> F  </i>
   <i type="int" name="NKREDLFX">     1</i>
   <i type="int" name="NKREDLFY">     1</i>
   <i type="int" name="NKREDLFZ">     1</i>
   <i type="int" name="MAXMEM">  1800</i>
   <i type="int" name="TELESCOPE">     0</i>
   <i type="int" name="TAUPAR">     1</i>
  </separator>
  <separator name="External order field" >
   <i name="OFIELD_KAPPA">      0.00000000</i>
   <v name="OFIELD_K">      0.00000000      0.00000000      0.00000000</v>
   <i name="OFIELD_Q6_NEAR">      0.00000000</i>
   <i name="OFIELD_Q6_FAR">      0.00000000</i>
   <i name="OFIELD_A">      0.00000000</i>
  </separator>
 </parameters>
 <atominfo>
  <atoms>      48 </atoms>
  <types>       2 </types>
  <array name="atoms" >
   <dimension dim="1">ion</dimension>
   <field type="string">element</field>
   <field type="int">atomtype</field>
   <set>
    <rc><c>C </c><c>   1</c></rc>
    <rc><c>C </c><c>   1</c></rc>
    <rc><c>C </c><c>   1</c></rc>
    <rc><c>C </c><c>   1</c></rc>
    <rc><c>C </c><c>   1</c></rc>
    <rc><c>C </c><c>   1</c></rc>
    <rc><c>C </c><c>   1</c></rc>
    <rc><c>C </c><c>   1</c></rc>
    <rc><c>C </c><c>   1</c></rc>
    <rc><c>C </c><c>   1</c></rc>
    <rc><c>C </c><c>   1</c></rc>
    <rc><c>C </c><c>   1</c></rc>
    <rc><c>C </c><c>   1</c></rc>
    <rc><c>C </c><c>   1</c></rc>
    <rc><c>C </c><c>   1</c></rc>
    <rc><c>C </c><c>   1</c></rc>
    <rc><c>C </c><c>   1</c></rc>
    <rc><c>C </c><c>   1</c></rc>
    <rc><c>C </c><c>   1</c></rc>
    <rc><c>C </c><c>   1</c></rc>
    <rc><c>C </c><c>   1</c></rc>
    <rc><c>C </c><c>   1</c></rc>
    <rc><c>C </c><c>   1</c></rc>
    <rc><c>C </c><c>   1</c></rc>
    <rc><c>H </c><c>   2</c></rc>
    <rc><c>H </c><c>   2</c></rc>
    <rc><c>H </c><c>   2</c></rc>
    <rc><c>H </c><c>   2</c></rc>
    <rc><c>H </c><c>   2</c></rc>
    <rc><c>H </c><c>   2</c></rc>
    <rc><c>H </c><c>   2</c></rc>
    <rc><c>H </c><c>   2</c></rc>
    <rc><c>H </c><c>   2</c></rc>
    <rc><c>H </c><c>   2</c></rc>
    <rc><c>H </c><c>   2</c></rc>
    <rc><c>H </c><c>   2</c></rc>
    <rc><c>H </c><c>   2</c></rc>
    <rc><c>H </c><c>   2</c></rc>
    <rc><c>H </c><c>   2</c></rc>
    <rc><c>H </c><c>   2</c></rc>
    <rc><c>H </c><c>   2</c></rc>
    <rc><c>H </c><c>   2</c></rc>
    <rc><c>H </c><c>   2</c></rc>
    <rc><c>H </c><c>   2</c></rc>
    <rc><c>H </c><c>   2</c></rc>
    <rc><c>H </c><c>   2</c></rc>
    <rc><c>H </c><c>   2</c></rc>
    <rc><c>H </c><c>   2</c></rc>
   </set>
  </array>
  <array name="atomtypes" >
   <dimension dim="1">type</dimension>
   <field type="int">atomspertype</field>
   <field type="string">element</field>
   <field>mass</field>
   <field>valence</field>
   <field type="string">pseudopotential</field>
   <set>
    <rc><c>  24</c><c>C </c><c>     12.01100000</c><c>      4.00000000</c><c> PAW_PBE C 08Apr2002                    </c></rc>
    <rc><c>  24</c><c>H </c><c>      1.00000000</c><c>      1.00000000</c><c> PAW_PBE H 15Jun2001                    </c></rc>
   </set>
  </array>
 </atominfo>
 <structure name="initialpos" >
  <crystal>
   <varray name="basis" >
    <v>       7.15339082       0.00000000       0.00000000 </v>
    <v>       0.00000000       9.11412989       0.00000000 </v>
    <v>       0.00000000       0.00000000       6.51634513 </v>
   </varray>
   <i name="volume">    424.84571733 </i>
   <varray name="rec_basis" >
    <v>       0.13979384       0.00000000       0.00000000 </v>
    <v>       0.00000000       0.10971974       0.00000000 </v>
    <v>       0.00000000       0.00000000       0.15346026 </v>
   </varray>
  </crystal>
  <varray name="positions" >
   <v>       0.94599998       0.13760001       0.99980003 </v>
   <v>       0.05400000       0.86239999       0.00020000 </v>
   <v>       0.55400002       0.86239999       0.49980000 </v>
   <v>       0.44600001       0.13760001       0.50019997 </v>
   <v>       0.05400000       0.63760001       0.50019997 </v>
   <v>       0.94599998       0.36239999       0.49980000 </v>
   <v>       0.44600001       0.36239999       0.00020000 </v>
   <v>       0.55400002       0.63760001       0.99980003 </v>
   <v>       0.07680000       0.09030000       0.13240001 </v>
   <v>       0.92320001       0.90969998       0.86759996 </v>
   <v>       0.42320001       0.90969998       0.63240004 </v>
   <v>       0.57679999       0.09030000       0.36759999 </v>
   <v>       0.92320001       0.59030002       0.36759999 </v>
   <v>       0.07680000       0.40970001       0.63240004 </v>
   <v>       0.57679999       0.40970001       0.86759996 </v>
   <v>       0.42320001       0.59030002       0.13240001 </v>
   <v>       0.87000001       0.04540000       0.87180000 </v>
   <v>       0.12999999       0.95459998       0.12820000 </v>
   <v>       0.62999999       0.95459998       0.37180000 </v>
   <v>       0.37000001       0.04540000       0.62820000 </v>
   <v>       0.12999999       0.54540002       0.62820000 </v>
   <v>       0.87000001       0.45460001       0.37180000 </v>
   <v>       0.37000001       0.45460001       0.12820000 </v>
   <v>       0.62999999       0.54540002       0.87180000 </v>
   <v>       0.91119999       0.23160000       0.99910003 </v>
   <v>       0.08880000       0.76840001       0.00090000 </v>
   <v>       0.58880001       0.76840001       0.49910000 </v>
   <v>       0.41119999       0.23160000       0.50089997 </v>
   <v>       0.08880000       0.73159999       0.50089997 </v>
   <v>       0.91119999       0.26840001       0.49910000 </v>
   <v>       0.41119999       0.26840001       0.00090000 </v>
   <v>       0.58880001       0.73159999       0.99910003 </v>
   <v>       0.12650000       0.15199999       0.22240000 </v>
   <v>       0.87349999       0.84799999       0.77759999 </v>
   <v>       0.37349999       0.84799999       0.72240001 </v>
   <v>       0.62650001       0.15199999       0.27759999 </v>
   <v>       0.87349999       0.65200001       0.27759999 </v>
   <v>       0.12650000       0.34799999       0.72240001 </v>
   <v>       0.62650001       0.34799999       0.77759999 </v>
   <v>       0.37349999       0.65200001       0.22240000 </v>
   <v>       0.78079999       0.07640000       0.78670001 </v>
   <v>       0.21920000       0.92360002       0.21330001 </v>
   <v>       0.71920001       0.92360002       0.28670001 </v>
   <v>       0.28079999       0.07640000       0.71329999 </v>
   <v>       0.21920000       0.57639998       0.71329999 </v>
   <v>       0.78079999       0.42360002       0.28670001 </v>
   <v>       0.28079999       0.42360002       0.21330001 </v>
   <v>       0.71920001       0.57639998       0.78670001 </v>
  </varray>
 </structure>
 <calculation>
  <scstep>
   <time name="dav">  254.18 1016.93</time>
   <time name="total">  255.08 1020.57</time>
   <energy>
    <i name="alphaZ">    154.60195415 </i>
    <i name="ewald">  -1321.50199271 </i>
    <i name="hartreedc">  -1844.76204501 </i>
    <i name="XCdc">    397.90699547 </i>
    <i name="pawpsdc">    926.70645134 </i>
    <i name="pawaedc">   -954.53414885 </i>
    <i name="eentropy">      0.00000000 </i>
    <i name="bandstr">   -513.87204291 </i>
    <i name="atom">   3831.31862854 </i>
    <i name="e_fr_energy">    675.86380003 </i>
    <i name="e_wo_entrp">    675.86380003 </i>
    <i name="e_0_energy">    675.86380003 </i>
   </energy>
  </scstep>
  <scstep>
   <time name="dav">  293.55 1174.42</time>
   <time name="total">  293.62 1174.69</time>
   <energy>
    <i name="e_fr_energy">   -253.07076148 </i>
    <i name="e_wo_entrp">   -253.07076148 </i>
    <i name="e_0_energy">   -253.07076148 </i>
   </energy>
  </scstep>
  <scstep>
   <time name="dav">  283.55 1134.40</time>
   <time name="total">  283.60 1134.63</time>
   <energy>
    <i name="e_fr_energy">   -329.08325921 </i>
    <i name="e_wo_entrp">   -329.08325921 </i>
    <i name="e_0_energy">   -329.08325921 </i>
   </energy>
  </scstep>
  <scstep>
   <time name="dav">  290.39 1161.75</time>
   <time name="total">  290.43 1161.93</time>
   <energy>
    <i name="e_fr_energy">   -330.49153794 </i>
    <i name="e_wo_entrp">   -330.49153794 </i>
    <i name="e_0_energy">   -330.49153794 </i>
   </energy>
  </scstep>
  <scstep>
   <time name="dav">  281.71 1127.02</time>
   <time name="total">  287.45 1150.04</time>
   <energy>
    <i name="e_fr_energy">   -330.52172594 </i>
    <i name="e_wo_entrp">   -330.52172594 </i>
    <i name="e_0_energy">   -330.52172594 </i>
   </energy>
  </scstep>
  <scstep>
   <time name="dav">  261.84 1047.58</time>
   <time name="total">  268.54 1074.39</time>
   <energy>
    <i name="e_fr_energy">   -285.62537270 </i>
    <i name="e_wo_entrp">   -285.62537270 </i>
    <i name="e_0_energy">   -285.62537270 </i>
   </energy>
  </scstep>
  <scstep>
   <time name="dav">  283.32 1133.49</time>
   <time name="total">  290.35 1161.62</time>
   <energy>
    <i name="e_fr_energy">   -274.43208524 </i>
    <i name="e_wo_entrp">   -274.43208524 </i>
    <i name="e_0_energy">   -274.43208524 </i>
   </energy>
  </scstep>
  <scstep>
   <time name="dav">  274.03 1096.33</time>
   <time name="total">  280.76 1123.24</time>
   <energy>
    <i name="e_fr_energy">   -274.36630977 </i>
    <i name="e_wo_entrp">   -274.36630977 </i>
    <i name="e_0_energy">   -274.36630977 </i>
   </energy>
  </scstep>
  <scstep>
   <time name="dav">  278.56 1114.43</time>
   <time name="total">  285.57 1142.50</time>
   <energy>
    <i name="e_fr_energy">   -274.32386007 </i>
    <i name="e_wo_entrp">   -274.32386007 </i>
    <i name="e_0_energy">   -274.32386007 </i>
   </energy>
  </scstep>
  <scstep>
   <time name="dav">  274.31 1097.45</time>
   <time name="total">  281.44 1125.95</time>
   <energy>
    <i name="e_fr_energy">   -274.33058320 </i>
    <i name="e_wo_entrp">   -274.33058320 </i>
    <i name="e_0_energy">   -274.33058320 </i>
   </energy>
  </scstep>
  <scstep>
   <time name="dav">  267.38 1069.73</time>
   <time name="total">  274.36 1097.64</time>
   <energy>
    <i name="e_fr_energy">   -274.33468656 </i>
    <i name="e_wo_entrp">   -274.33468656 </i>
    <i name="e_0_energy">   -274.33468656 </i>
   </energy>
  </scstep>
  <scstep>
   <time name="dav">  275.61 1102.62</time>
   <time name="total">  282.29 1129.38</time>
   <energy>
    <i name="e_fr_energy">   -274.33540594 </i>
    <i name="e_wo_entrp">   -274.33540594 </i>
    <i name="e_0_energy">   -274.33540594 </i>
   </energy>
  </scstep>
  <scstep>
   <time name="dav">  286.97 1148.08</time>
   <time name="total">  292.99 1172.16</time>
   <energy>
    <i name="e_fr_energy">   -274.33533214 </i>
    <i name="e_wo_entrp">   -274.33533214 </i>
    <i name="e_0_energy">   -274.33533214 </i>
   </energy>
  </scstep>
  <scstep>
   <time name="dav">  272.86 1091.63</time>
   <time name="total">  279.82 1119.49</time>
   <energy>
    <i name="e_fr_energy">   -274.33534376 </i>
    <i name="e_wo_entrp">   -274.33534376 </i>
    <i name="e_0_energy">   -274.33534376 </i>
   </energy>
  </scstep>
  <scstep>
   <time name="dav">  280.24 1121.16</time>
   <time name="total">  281.13 1124.75</time>
   <energy>
    <i name="alphaZ">    154.60195415 </i>
    <i name="ewald">  -1321.50199271 </i>
    <i name="hartreedc">  -2378.19374638 </i>
    <i name="XCdc">    433.49466824 </i>
    <i name="pawpsdc">   2436.43178067 </i>
    <i name="pawaedc">  -2471.17924129 </i>
    <i name="eentropy">      0.00000000 </i>
    <i name="bandstr">   -959.30739569 </i>
    <i name="atom">   3831.31862854 </i>
    <i name="e_fr_energy">   -274.33534446 </i>
    <i name="e_wo_entrp">   -274.33534446 </i>
    <i name="e_0_energy">   -274.33534446 </i>
   </energy>
  </scstep>
  <structure>
   <crystal>
    <varray name="basis" >
     <v>       7.15339082       0.00000000       0.00000000 </v>
     <v>       0.00000000       9.11412989       0.00000000 </v>
     <v>       0.00000000       0.00000000       6.51634513 </v>
    </varray>
    <i name="volume">    424.84571733 </i>
    <varray name="rec_basis" >
     <v>       0.13979384       0.00000000       0.00000000 </v>
     <v>       0.00000000       0.10971974       0.00000000 </v>
     <v>       0.00000000       0.00000000       0.15346026 </v>
    </varray>
   </crystal>
   <varray name="positions" >
    <v>       0.94599998       0.13760001       0.99980003 </v>
    <v>       0.05400000       0.86239999       0.00020000 </v>
    <v>       0.55400002       0.86239999       0.49980000 </v>
    <v>       0.44600001       0.13760001       0.50019997 </v>
    <v>       0.05400000       0.63760001       0.50019997 </v>
    <v>       0.94599998       0.36239999       0.49980000 </v>
    <v>       0.44600001       0.36239999       0.00020000 </v>
    <v>       0.55400002       0.63760001       0.99980003 </v>
    <v>       0.07680000       0.09030000       0.13240001 </v>
    <v>       0.92320001       0.90969998       0.86759996 </v>
    <v>       0.42320001       0.90969998       0.63240004 </v>
    <v>       0.57679999       0.09030000       0.36759999 </v>
    <v>       0.92320001       0.59030002       0.36759999 </v>
    <v>       0.07680000       0.40970001       0.63240004 </v>
    <v>       0.57679999       0.40970001       0.86759996 </v>
    <v>       0.42320001       0.59030002       0.13240001 </v>
    <v>       0.87000001       0.04540000       0.87180000 </v>
    <v>       0.12999999       0.95459998       0.12820000 </v>
    <v>       0.62999999       0.95459998       0.37180000 </v>
    <v>       0.37000001       0.04540000       0.62820000 </v>
    <v>       0.12999999       0.54540002       0.62820000 </v>
    <v>       0.87000001       0.45460001       0.37180000 </v>
    <v>       0.37000001       0.45460001       0.12820000 </v>
    <v>       0.62999999       0.54540002       0.87180000 </v>
    <v>       0.91119999       0.23160000       0.99910003 </v>
    <v>       0.08880000       0.76840001       0.00090000 </v>
    <v>       0.58880001       0.76840001       0.49910000 </v>
    <v>       0.41119999       0.23160000       0.50089997 </v>
    <v>       0.08880000       0.73159999       0.50089997 </v>
    <v>       0.91119999       0.26840001       0.49910000 </v>
    <v>       0.41119999       0.26840001       0.00090000 </v>
    <v>       0.58880001       0.73159999       0.99910003 </v>
    <v>       0.12650000       0.15199999       0.22240000 </v>
    <v>       0.87349999       0.84799999       0.77759999 </v>
    <v>       0.37349999       0.84799999       0.72240001 </v>
    <v>       0.62650001       0.15199999       0.27759999 </v>
    <v>       0.87349999       0.65200001       0.27759999 </v>
    <v>       0.12650000       0.34799999       0.72240001 </v>
    <v>       0.62650001       0.34799999       0.77759999 </v>
    <v>       0.37349999       0.65200001       0.22240000 </v>
    <v>       0.78079999       0.07640000       0.78670001 </v>
    <v>       0.21920000       0.92360002       0.21330001 </v>
    <v>       0.71920001       0.92360002       0.28670001 </v>
    <v>       0.28079999       0.07640000       0.71329999 </v>
    <v>       0.21920000       0.57639998       0.71329999 </v>
    <v>       0.78079999       0.42360002       0.28670001 </v>
    <v>       0.28079999       0.42360002       0.21330001 </v>
    <v>       0.71920001       0.57639998       0.78670001 </v>
   </varray>
  </structure>
  <varray name="forces" >
   <v>       3.37551769      -6.59603406       1.76758721 </v>
   <v>      -3.37551769       6.59603406      -1.76758721 </v>
   <v>      -3.37551769       6.59603406       1.76758721 </v>
   <v>       3.37551769      -6.59603406      -1.76758721 </v>
   <v>      -3.37551769      -6.59603406      -1.76758721 </v>
   <v>       3.37551769       6.59603406       1.76758721 </v>
   <v>       3.37551769       6.59603406      -1.76758721 </v>
   <v>      -3.37551769      -6.59603406       1.76758721 </v>
   <v>      -4.45954245      -2.69757240      -6.01982254 </v>
   <v>       4.45954245       2.69757240       6.01982254 </v>
   <v>       4.45954245       2.69757240      -6.01982254 </v>
   <v>      -4.45954245      -2.69757240       6.01982254 </v>
   <v>       4.45954245      -2.69757240       6.01982254 </v>
   <v>      -4.45954245       2.69757240      -6.01982254 </v>
   <v>      -4.45954245       2.69757240       6.01982254 </v>
   <v>       4.45954245      -2.69757240      -6.01982254 </v>
   <v>       4.38393529      -1.37064199       3.81989320 </v>
   <v>      -4.38393529       1.37064199      -3.81989320 </v>
   <v>      -4.38393529       1.37064199       3.81989320 </v>
   <v>       4.38393529      -1.37064199      -3.81989320 </v>
   <v>      -4.38393529      -1.37064199      -3.81989320 </v>
   <v>       4.38393529       1.37064199       3.81989320 </v>
   <v>       4.38393529       1.37064199      -3.81989320 </v>
   <v>      -4.38393529      -1.37064199       3.81989320 </v>
   <v>      -3.37403954      11.60542184       0.09605831 </v>
   <v>       3.37403954     -11.60542184      -0.09605831 </v>
   <v>       3.37403954     -11.60542184       0.09605831 </v>
   <v>      -3.37403954      11.60542184      -0.09605831 </v>
   <v>       3.37403954      11.60542184      -0.09605831 </v>
   <v>      -3.37403954     -11.60542184       0.09605831 </v>
   <v>      -3.37403954     -11.60542184      -0.09605831 </v>
   <v>       3.37403954      11.60542184       0.09605831 </v>
   <v>       5.06905340       8.06567124       8.24430275 </v>
   <v>      -5.06905340      -8.06567124      -8.24430275 </v>
   <v>      -5.06905340      -8.06567124       8.24430275 </v>
   <v>       5.06905340       8.06567124      -8.24430275 </v>
   <v>      -5.06905340       8.06567124      -8.24430275 </v>
   <v>       5.06905340      -8.06567124       8.24430275 </v>
   <v>       5.06905340      -8.06567124      -8.24430275 </v>
   <v>      -5.06905340       8.06567124       8.24430275 </v>
   <v>      -8.67587799       3.84305900      -7.67651438 </v>
   <v>       8.67587799      -3.84305900       7.67651438 </v>
   <v>       8.67587799      -3.84305900      -7.67651438 </v>
   <v>      -8.67587799       3.84305900       7.67651438 </v>
   <v>       8.67587799       3.84305900       7.67651438 </v>
   <v>      -8.67587799      -3.84305900      -7.67651438 </v>
   <v>      -8.67587799      -3.84305900       7.67651438 </v>
   <v>       8.67587799       3.84305900      -7.67651438 </v>
  </varray>
  <varray name="stress" >
   <v>     369.42740219       0.00000000       0.00000000 </v>
   <v>       0.00000000     815.21833132       0.00000000 </v>
   <v>       0.00000000       0.00000000     422.23977852 </v>
  </varray>
  <energy>
   <i name="e_fr_energy">   -277.94691774 </i>
   <i name="e_wo_entrp">   -277.94691774 </i>
   <i name="e_0_energy">      0.00000000 </i>
  </energy>
  <time name="totalsc"> 4353.7117418.10</time>
 </calculation>
 <calculation>
  <scstep>
   <time name="dav">  276.77 1107.27</time>
   <time name="total">  282.96 1132.04</time>
   <energy>
    <i name="alphaZ">    154.60195415 </i>
    <i name="ewald">    130.96045211 </i>
    <i name="hartreedc">  -3118.12696269 </i>
    <i name="XCdc">    437.90899600 </i>
    <i name="pawpsdc">   2436.40392176 </i>
    <i name="pawaedc">  -2471.15135465 </i>
    <i name="eentropy">      0.00000000 </i>
    <i name="bandstr">  -1284.66005066 </i>
    <i name="atom">   3831.31862854 </i>
    <i name="e_fr_energy">    117.25558456 </i>
    <i name="e_wo_entrp">    117.25558456 </i>
    <i name="e_0_energy">    117.25558456 </i>
   </energy>
  </scstep>
  <scstep>
   <time name="dav">  279.11 1116.63</time>
   <time name="total">  285.96 1144.07</time>
   <energy>
    <i name="e_fr_energy">     38.16601203 </i>
    <i name="e_wo_entrp">     38.16601203 </i>
    <i name="e_0_energy">     38.16601203 </i>
   </energy>
  </scstep>
  <scstep>
   <time name="dav">  287.60 1150.59</time>
   <time name="total">  294.64 1178.80</time>
   <energy>
    <i name="e_fr_energy">     61.29135756 </i>
    <i name="e_wo_entrp">     61.29135756 </i>
    <i name="e_0_energy">     61.29135756 </i>
   </energy>
  </scstep>
  <scstep>
   <time name="dav">  270.15 1080.81</time>
   <time name="total">  277.61 1110.64</time>
   <energy>
    <i name="e_fr_energy">     66.71989723 </i>
    <i name="e_wo_entrp">     66.71989723 </i>
    <i name="e_0_energy">     66.71989723 </i>
   </energy>
  </scstep>
  <scstep>
   <time name="dav">  278.36 1113.65</time>
   <time name="total">  285.70 1143.01</time>
   <energy>
    <i name="e_fr_energy">     66.62873541 </i>
    <i name="e_wo_entrp">     66.62873541 </i>
    <i name="e_0_energy">     66.62873541 </i>
   </energy>
  </scstep>
  <scstep>
   <time name="dav">  267.89 1071.78</time>
   <time name="total">  274.76 1099.25</time>
   <energy>
    <i name="e_fr_energy">     66.91294036 </i>
    <i name="e_wo_entrp">     66.91294036 </i>
    <i name="e_0_energy">     66.91294036 </i>
   </energy>
  </scstep>
  <scstep>
   <time name="dav">  275.22 1101.08</time>
   <time name="total">  282.31 1129.43</time>
   <energy>
    <i name="e_fr_energy">     66.86526457 </i>
    <i name="e_wo_entrp">     66.86526457 </i>
    <i name="e_0_energy">     66.86526457 </i>
   </energy>
  </scstep>
  <scstep>
   <time name="dav">  273.28 1093.33</time>
   <time name="total">  280.30 1121.39</time>
   <energy>
    <i name="e_fr_energy">     66.88659858 </i>
    <i name="e_wo_entrp">     66.88659858 </i>
    <i name="e_0_energy">     66.88659858 </i>
   </energy>
  </scstep>
  <scstep>
   <time name="dav">  275.39 1101.76</time>
   <time name="total">  283.03 1132.40</time>
   <energy>
    <i name="e_fr_energy">     66.88551115 </i>
    <i name="e_wo_entrp">     66.88551115 </i>
    <i name="e_0_energy">     66.88551115 </i>
   </energy>
  </scstep>
  <scstep>
   <time name="dav">  282.21 1129.04</time>
   <time name="total">  289.48 1158.15</time>
   <energy>
    <i name="e_fr_energy">     66.88559910 </i>
    <i name="e_wo_entrp">     66.88559910 </i>
    <i name="e_0_energy">     66.88559910 </i>
   </energy>
  </scstep>
  <scstep>
   <time name="dav">  271.87 1087.71</time>
   <time name="total">  279.23 1117.13</time>
   <energy>
    <i name="e_fr_energy">     66.88555469 </i>
    <i name="e_wo_entrp">     66.88555469 </i>
    <i name="e_0_energy">     66.88555469 </i>
   </energy>
  </scstep>
  <scstep>
   <time name="dav">  297.86 1191.66</time>
   <time name="total">  304.79 1219.42</time>
   <energy>
    <i name="e_fr_energy">     66.88554589 </i>
    <i name="e_wo_entrp">     66.88554589 </i>
    <i name="e_0_energy">     66.88554589 </i>
   </energy>
  </scstep>
  <scstep>
   <time name="dav">  218.20  872.96</time>
   <time name="total">  225.61  902.58</time>
   <energy>
    <i name="e_fr_energy">     66.88554213 </i>
    <i name="e_wo_entrp">     66.88554213 </i>
    <i name="e_0_energy">     66.88554213 </i>
   </energy>
  </scstep>
  <scstep>
   <time name="dav">  195.55  782.33</time>
   <time name="total">  196.51  786.21</time>
   <energy>
    <i name="alphaZ">    154.60195415 </i>
    <i name="ewald">    130.96045211 </i>
    <i name="hartreedc">  -3399.50481829 </i>
    <i name="XCdc">    444.54371357 </i>
    <i name="pawpsdc">   3782.53498787 </i>
    <i name="pawaedc">  -3827.40035069 </i>
    <i name="eentropy">      0.00000000 </i>
    <i name="bandstr">  -1050.16902446 </i>
    <i name="atom">   3831.31862854 </i>
    <i name="e_fr_energy">     66.88554280 </i>
    <i name="e_wo_entrp">     66.88554280 </i>
    <i name="e_0_energy">     66.88554280 </i>
   </energy>
  </scstep>
  <structure>
   <crystal>
    <varray name="basis" >
     <v>       7.15339082       0.00000000       0.00000000 </v>
     <v>       0.00000000       9.11412989       0.00000000 </v>
     <v>       0.00000000       0.00000000       6.51634513 </v>
    </varray>
    <i name="volume">    424.84571733 </i>
    <varray name="rec_basis" >
     <v>       0.13979384       0.00000000       0.00000000 </v>
     <v>       0.00000000       0.10971974       0.00000000 </v>
     <v>       0.00000000       0.00000000       0.15346026 </v>
    </varray>
   </crystal>
   <varray name="positions" >
    <v>       0.96876456       0.10268606       0.01288606 </v>
    <v>       0.03123542       0.89731394      -0.01288603 </v>
    <v>       0.53123544       0.89731394       0.51288603 </v>
    <v>       0.46876459       0.10268606       0.48711394 </v>
    <v>       0.03123542       0.60268606       0.48711394 </v>
    <v>       0.96876456       0.39731394       0.51288603 </v>
    <v>       0.46876459       0.39731394      -0.01288603 </v>
    <v>       0.53123544       0.60268606       0.01288606 </v>
    <v>       0.04672473       0.07602129       0.08783327 </v>
    <v>       0.95327528       0.92397869       0.91216670 </v>
    <v>       0.45327528       0.92397869       0.58783330 </v>
    <v>       0.54672472       0.07602129       0.41216673 </v>
    <v>       0.95327528       0.57602131       0.41216673 </v>
    <v>       0.04672473       0.42397872       0.58783330 </v>
    <v>       0.54672472       0.42397872       0.91216670 </v>
    <v>       0.45327528       0.57602131       0.08783327 </v>
    <v>       0.89956538       0.03814496       0.90007994 </v>
    <v>       0.10043462       0.96185502       0.09992006 </v>
    <v>       0.60043462       0.96185502       0.40007994 </v>
    <v>       0.39956538       0.03814496       0.59992006 </v>
    <v>       0.10043462       0.53814498       0.59992006 </v>
    <v>       0.89956538       0.46185505       0.40007994 </v>
    <v>       0.39956538       0.46185505       0.09992006 </v>
    <v>       0.60043462       0.53814498       0.90007994 </v>
    <v>       0.88844538       0.29302949       0.99981118 </v>
    <v>       0.11155461       0.70697052       0.00018885 </v>
    <v>       0.61155462       0.70697052       0.49981115 </v>
    <v>       0.38844538       0.29302949       0.50018882 </v>
    <v>       0.11155461       0.79302948       0.50018882 </v>
    <v>       0.88844538       0.20697052       0.49981115 </v>
    <v>       0.38844538       0.20697052       0.00018885 </v>
    <v>       0.61155462       0.79302948       0.99981118 </v>
    <v>       0.16068582       0.19469298       0.28343529 </v>
    <v>       0.83931416       0.80530701       0.71656470 </v>
    <v>       0.33931416       0.80530701       0.78343530 </v>
    <v>       0.66068584       0.19469298       0.21656470 </v>
    <v>       0.83931416       0.69469299       0.21656470 </v>
    <v>       0.16068582       0.30530701       0.78343530 </v>
    <v>       0.66068584       0.30530701       0.71656470 </v>
    <v>       0.33931416       0.69469299       0.28343529 </v>
    <v>       0.72228964       0.09674197       0.72986824 </v>
    <v>       0.27771035       0.90325805       0.27013178 </v>
    <v>       0.77771036       0.90325805       0.22986824 </v>
    <v>       0.22228964       0.09674197       0.77013176 </v>
    <v>       0.27771035       0.59674195       0.77013176 </v>
    <v>       0.72228964       0.40325805       0.22986824 </v>
    <v>       0.22228964       0.40325805       0.27013178 </v>
    <v>       0.77771036       0.59674195       0.72986824 </v>
   </varray>
  </structure>
  <varray name="forces" >
   <v>    -114.37615750      81.52476444     -89.18331219 </v>
   <v>     114.37615750     -81.52476444      89.18331219 </v>
   <v>     114.37615750     -81.52476444     -89.18331219 </v>
   <v>    -114.37615750      81.52476444      89.18331219 </v>
   <v>     114.37615750      81.52476444      89.18331219 </v>
   <v>    -114.37615750     -81.52476444     -89.18331219 </v>
   <v>    -114.37615750     -81.52476444      89.18331219 </v>
   <v>     114.37615750      81.52476444     -89.18331219 </v>
   <v>     121.96615572     -29.37514760     115.00392259 </v>
   <v>    -121.96615572      29.37514760    -115.00392259 </v>
   <v>    -121.96615572      29.37514760     115.00392259 </v>
   <v>     121.96615572     -29.37514760    -115.00392259 </v>
   <v>    -121.96615572     -29.37514760    -115.00392259 </v>
   <v>     121.96615572      29.37514760     115.00392259 </v>
   <v>     121.96615572      29.37514760    -115.00392259 </v>
   <v>    -121.96615572     -29.37514760     115.00392259 </v>
   <v>     -29.78317219       5.96360796     -29.50564006 </v>
   <v>      29.78317219      -5.96360796      29.50564006 </v>
   <v>      29.78317219      -5.96360796     -29.50564006 </v>
   <v>     -29.78317219       5.96360796      29.50564006 </v>
   <v>      29.78317219       5.96360796      29.50564006 </v>
   <v>     -29.78317219      -5.96360796     -29.50564006 </v>
   <v>     -29.78317219      -5.96360796      29.50564006 </v>
   <v>      29.78317219       5.96360796     -29.50564006 </v>
   <v>      -0.09969003      -0.75934536      -0.04971376 </v>
   <v>       0.09969003       0.75934536       0.04971376 </v>
   <v>       0.09969003       0.75934536      -0.04971376 </v>
   <v>      -0.09969003      -0.75934536       0.04971376 </v>
   <v>       0.09969003      -0.75934536       0.04971376 </v>
   <v>      -0.09969003       0.75934536      -0.04971376 </v>
   <v>      -0.09969003       0.75934536       0.04971376 </v>
   <v>       0.09969003      -0.75934536      -0.04971376 </v>
   <v>       0.02139133       0.24552895      -0.48953319 </v>
   <v>      -0.02139133      -0.24552895       0.48953319 </v>
   <v>      -0.02139133      -0.24552895      -0.48953319 </v>
   <v>       0.02139133       0.24552895       0.48953319 </v>
   <v>      -0.02139133       0.24552895       0.48953319 </v>
   <v>       0.02139133      -0.24552895      -0.48953319 </v>
   <v>       0.02139133      -0.24552895       0.48953319 </v>
   <v>      -0.02139133       0.24552895      -0.48953319 </v>
   <v>       2.27933407       0.00579351       1.81560452 </v>
   <v>      -2.27933407      -0.00579351      -1.81560452 </v>
   <v>      -2.27933407      -0.00579351       1.81560452 </v>
   <v>       2.27933407       0.00579351      -1.81560452 </v>
   <v>      -2.27933407       0.00579351      -1.81560452 </v>
   <v>       2.27933407      -0.00579351       1.81560452 </v>
   <v>       2.27933407      -0.00579351      -1.81560452 </v>
   <v>      -2.27933407       0.00579351       1.81560452 </v>
  </varray>
  <varray name="stress" >
   <v>    2471.44351582       0.00000000       0.00000000 </v>
   <v>       0.00000000    1622.36227938       0.00000000 </v>
   <v>      -0.00000000       0.00000000    2189.90343592 </v>
  </varray>
  <energy>
   <i name="e_fr_energy">     62.81683924 </i>
   <i name="e_wo_entrp">     62.81683924 </i>
   <i name="e_0_energy">      0.00000000 </i>
  </energy>
  <time name="totalsc"> 3968.2815876.13</time>
 </calculation>
 <calculation>
  <scstep>
   <time name="dav">  258.86 1035.63</time>
   <time name="total">  265.81 1063.46</time>
   <energy>
    <i name="alphaZ">    154.60195415 </i>
    <i name="ewald">  -1295.36520425 </i>
    <i name="hartreedc">  -2515.06077768 </i>
    <i name="XCdc">    426.32387547 </i>
    <i name="pawpsdc">   3782.53516937 </i>
    <i name="pawaedc">  -3827.40039773 </i>
    <i name="eentropy">      0.00000000 </i>
    <i name="bandstr">   -841.07155786 </i>
    <i name="atom">   3831.31862854 </i>
    <i name="e_fr_energy">   -284.11830999 </i>
    <i name="e_wo_entrp">   -284.11830999 </i>
    <i name="e_0_energy">   -284.11830999 </i>
   </energy>
  </scstep>
  <scstep>
   <time name="dav">  289.43 1157.95</time>
   <time name="total">  296.36 1185.68</time>
   <energy>
    <i name="e_fr_energy">   -295.18268359 </i>
    <i name="e_wo_entrp">   -295.18268359 </i>
    <i name="e_0_energy">   -295.18268359 </i>
   </energy>
  </scstep>
  <scstep>
   <time name="dav">  282.96 1132.04</time>
   <time name="total">  289.95 1160.01</time>
   <energy>
    <i name="e_fr_energy">   -285.62626129 </i>
    <i name="e_wo_entrp">   -285.62626129 </i>
    <i name="e_0_energy">   -285.62626129 </i>
   </energy>
  </scstep>
  <scstep>
   <time name="dav">  279.72 1119.10</time>
   <time name="total">  286.04 1144.40</time>
   <energy>
    <i name="e_fr_energy">   -284.91959699 </i>
    <i name="e_wo_entrp">   -284.91959699 </i>
    <i name="e_0_energy">   -284.91959699 </i>
   </energy>
  </scstep>
  <scstep>
   <time name="dav">  279.58 1118.54</time>
   <time name="total">  286.19 1144.97</time>
   <energy>
    <i name="e_fr_energy">   -284.66230972 </i>
    <i name="e_wo_entrp">   -284.66230972 </i>
    <i name="e_0_energy">   -284.66230972 </i>
   </energy>
  </scstep>
  <scstep>
   <time name="dav">  284.43 1137.94</time>
   <time name="total">  291.19 1164.98</time>
   <energy>
    <i name="e_fr_energy">   -284.66647173 </i>
    <i name="e_wo_entrp">   -284.66647173 </i>
    <i name="e_0_energy">   -284.66647173 </i>
   </energy>
  </scstep>
  <scstep>
   <time name="dav">  266.20 1064.99</time>
   <time name="total">  272.73 1091.13</time>
   <energy>
    <i name="e_fr_energy">   -284.67026053 </i>
    <i name="e_wo_entrp">   -284.67026053 </i>
    <i name="e_0_energy">   -284.67026053 </i>
   </energy>
  </scstep>
  <scstep>
   <time name="dav">  279.81 1119.46</time>
   <time name="total">  286.47 1146.07</time>
   <energy>
    <i name="e_fr_energy">   -284.66787845 </i>
    <i name="e_wo_entrp">   -284.66787845 </i>
    <i name="e_0_energy">   -284.66787845 </i>
   </energy>
  </scstep>
  <scstep>
   <time name="dav">  264.22 1057.07</time>
   <time name="total">  270.96 1084.06</time>
   <energy>
    <i name="e_fr_energy">   -284.66802756 </i>
    <i name="e_wo_entrp">   -284.66802756 </i>
    <i name="e_0_energy">   -284.66802756 </i>
   </energy>
  </scstep>
  <scstep>
   <time name="dav">  290.02 1160.29</time>
   <time name="total">  296.64 1186.79</time>
   <energy>
    <i name="e_fr_energy">   -284.66803193 </i>
    <i name="e_wo_entrp">   -284.66803193 </i>
    <i name="e_0_energy">   -284.66803193 </i>
   </energy>
  </scstep>
  <scstep>
   <time name="dav">  270.83 1083.53</time>
   <time name="total">  277.97 1112.09</time>
   <energy>
    <i name="e_fr_energy">   -284.66803688 </i>
    <i name="e_wo_entrp">   -284.66803688 </i>
    <i name="e_0_energy">   -284.66803688 </i>
   </energy>
  </scstep>
  <scstep>
   <time name="dav">  251.56 1006.41</time>
   <time name="total">  252.38 1009.72</time>
   <energy>
    <i name="alphaZ">    154.60195415 </i>
    <i name="ewald">  -1295.36520425 </i>
    <i name="hartreedc">  -2438.34497306 </i>
    <i name="XCdc">    427.77715940 </i>
    <i name="pawpsdc">   2301.15911617 </i>
    <i name="pawaedc">  -2335.22930991 </i>
    <i name="eentropy">      0.00000000 </i>
    <i name="bandstr">   -930.58540741 </i>
    <i name="atom">   3831.31862854 </i>
    <i name="e_fr_energy">   -284.66803636 </i>
    <i name="e_wo_entrp">   -284.66803636 </i>
    <i name="e_0_energy">   -284.66803636 </i>
   </energy>
  </scstep>
  <structure>
   <crystal>
    <varray name="basis" >
     <v>       7.15339082       0.00000000       0.00000000 </v>
     <v>       0.00000000       9.11412989       0.00000000 </v>
     <v>       0.00000000       0.00000000       6.51634513 </v>
    </varray>
    <i name="volume">    424.84571733 </i>
    <varray name="rec_basis" >
     <v>       0.13979384       0.00000000       0.00000000 </v>
     <v>       0.00000000       0.10971974       0.00000000 </v>
     <v>       0.00000000       0.00000000       0.15346026 </v>
    </varray>
   </crystal>
   <varray name="positions" >
    <v>       0.95100782       0.12991951       0.00267874 </v>
    <v>       0.04899216       0.87008049      -0.00267871 </v>
    <v>       0.54899218       0.87008049       0.50267871 </v>
    <v>       0.45100785       0.12991951       0.49732126 </v>
    <v>       0.04899216       0.62991951       0.49732126 </v>
    <v>       0.95100782       0.37008049       0.50267871 </v>
    <v>       0.45100785       0.37008049      -0.00267871 </v>
    <v>       0.54899218       0.62991951       0.00267874 </v>
    <v>       0.07018393       0.08715892       0.12259605 </v>
    <v>       0.92981608       0.91284106       0.87740392 </v>
    <v>       0.42981608       0.91284106       0.62259608 </v>
    <v>       0.57018392       0.08715892       0.37740395 </v>
    <v>       0.92981608       0.58715894       0.37740395 </v>
    <v>       0.07018393       0.41284109       0.62259608 </v>
    <v>       0.57018392       0.41284109       0.87740392 </v>
    <v>       0.42981608       0.58715894       0.12259605 </v>
    <v>       0.87650391       0.04380401       0.87802113 </v>
    <v>       0.12349609       0.95619597       0.12197887 </v>
    <v>       0.62349609       0.95619597       0.37802113 </v>
    <v>       0.37650391       0.04380401       0.62197887 </v>
    <v>       0.12349609       0.54380403       0.62197887 </v>
    <v>       0.87650391       0.45619600       0.37802113 </v>
    <v>       0.37650391       0.45619600       0.12197887 </v>
    <v>       0.62349609       0.54380403       0.87802113 </v>
    <v>       0.90619434       0.24511349       0.99925647 </v>
    <v>       0.09380564       0.75488653       0.00074356 </v>
    <v>       0.59380566       0.75488653       0.49925644 </v>
    <v>       0.40619434       0.24511349       0.50074353 </v>
    <v>       0.09380564       0.74511347       0.50074353 </v>
    <v>       0.90619434       0.25488653       0.49925644 </v>
    <v>       0.40619434       0.25488653       0.00074356 </v>
    <v>       0.59380566       0.74511347       0.99925647 </v>
    <v>       0.13402032       0.16139176       0.23582677 </v>
    <v>       0.86597966       0.83860823       0.76417322 </v>
    <v>       0.36597966       0.83860823       0.73582678 </v>
    <v>       0.63402034       0.16139176       0.26417322 </v>
    <v>       0.86597966       0.66139177       0.26417322 </v>
    <v>       0.13402032       0.33860823       0.73582678 </v>
    <v>       0.63402034       0.33860823       0.76417322 </v>
    <v>       0.36597966       0.66139177       0.23582677 </v>
    <v>       0.76792866       0.08087490       0.77419795 </v>
    <v>       0.23207132       0.91912512       0.22580207 </v>
    <v>       0.73207134       0.91912512       0.27419795 </v>
    <v>       0.26792866       0.08087490       0.72580205 </v>
    <v>       0.23207132       0.58087488       0.72580205 </v>
    <v>       0.76792866       0.41912512       0.27419795 </v>
    <v>       0.26792866       0.41912512       0.22580207 </v>
    <v>       0.73207134       0.58087488       0.77419795 </v>
   </varray>
  </structure>
  <varray name="forces" >
   <v>      -5.17125256      11.55055413      -1.71388258 </v>
   <v>       5.17125256     -11.55055413       1.71388258 </v>
   <v>       5.17125256     -11.55055413      -1.71388258 </v>
   <v>      -5.17125256      11.55055413       1.71388258 </v>
   <v>       5.17125256      11.55055413       1.71388258 </v>
   <v>      -5.17125256     -11.55055413      -1.71388258 </v>
   <v>      -5.17125256     -11.55055413       1.71388258 </v>
   <v>       5.17125256      11.55055413      -1.71388258 </v>
   <v>       6.72363536       5.90183815       9.12708280 </v>
   <v>      -6.72363536      -5.90183815      -9.12708280 </v>
   <v>      -6.72363536      -5.90183815       9.12708280 </v>
   <v>       6.72363536       5.90183815      -9.12708280 </v>
   <v>      -6.72363536       5.90183815      -9.12708280 </v>
   <v>       6.72363536      -5.90183815       9.12708280 </v>
   <v>       6.72363536      -5.90183815      -9.12708280 </v>
   <v>      -6.72363536       5.90183815       9.12708280 </v>
   <v>      -7.23220959       2.93625628      -6.59521935 </v>
   <v>       7.23220959      -2.93625628       6.59521935 </v>
   <v>       7.23220959      -2.93625628      -6.59521935 </v>
   <v>      -7.23220959       2.93625628       6.59521935 </v>
   <v>       7.23220959       2.93625628       6.59521935 </v>
   <v>      -7.23220959      -2.93625628      -6.59521935 </v>
   <v>      -7.23220959      -2.93625628       6.59521935 </v>
   <v>       7.23220959       2.93625628      -6.59521935 </v>
   <v>       0.05548699       0.06191893       0.21174013 </v>
   <v>      -0.05548699      -0.06191893      -0.21174013 </v>
   <v>      -0.05548699      -0.06191893       0.21174013 </v>
   <v>       0.05548699       0.06191893      -0.21174013 </v>
   <v>      -0.05548699       0.06191893      -0.21174013 </v>
   <v>       0.05548699      -0.06191893       0.21174013 </v>
   <v>       0.05548699      -0.06191893      -0.21174013 </v>
   <v>      -0.05548699       0.06191893       0.21174013 </v>
   <v>      -0.08028122       0.11455744      -0.15630161 </v>
   <v>       0.08028122      -0.11455744       0.15630161 </v>
   <v>       0.08028122      -0.11455744      -0.15630161 </v>
   <v>      -0.08028122       0.11455744       0.15630161 </v>
   <v>       0.08028122       0.11455744       0.15630161 </v>
   <v>      -0.08028122      -0.11455744      -0.15630161 </v>
   <v>      -0.08028122      -0.11455744       0.15630161 </v>
   <v>       0.08028122       0.11455744      -0.15630161 </v>
   <v>      -0.21020341       0.11549349      -0.27293121 </v>
   <v>       0.21020341      -0.11549349       0.27293121 </v>
   <v>       0.21020341      -0.11549349      -0.27293121 </v>
   <v>      -0.21020341       0.11549349       0.27293121 </v>
   <v>       0.21020341       0.11549349       0.27293121 </v>
   <v>      -0.21020341      -0.11549349      -0.27293121 </v>
   <v>      -0.21020341      -0.11549349       0.27293121 </v>
   <v>       0.21020341       0.11549349      -0.27293121 </v>
  </varray>
  <varray name="stress" >
   <v>     352.47290497       0.00000000       0.00000000 </v>
   <v>       0.00000000     597.23639877       0.00000000 </v>
   <v>       0.00000000       0.00000000     379.47507672 </v>
  </varray>
  <energy>
   <i name="e_fr_energy">   -287.92001980 </i>
   <i name="e_wo_entrp">   -287.92001980 </i>
   <i name="e_0_energy">      0.00000000 </i>
  </energy>
  <time name="totalsc"> 3497.9713994.52</time>
 </calculation>
 <calculation>
  <scstep>
   <time name="dav">  269.15 1076.67</time>
   <time name="total">  276.17 1104.79</time>
   <energy>
    <i name="alphaZ">    154.60195415 </i>
    <i name="ewald">  -1322.61919020 </i>
    <i name="hartreedc">  -2405.87669839 </i>
    <i name="XCdc">    428.06716083 </i>
    <i name="pawpsdc">   2301.13979387 </i>
    <i name="pawaedc">  -2335.20912676 </i>
    <i name="eentropy">      0.00000000 </i>
    <i name="bandstr">   -940.14393655 </i>
    <i name="atom">   3831.31862854 </i>
    <i name="e_fr_energy">   -288.72141450 </i>
    <i name="e_wo_entrp">   -288.72141450 </i>
    <i name="e_0_energy">   -288.72141450 </i>
   </energy>
  </scstep>
  <scstep>
   <time name="dav">  276.26 1105.24</time>
   <time name="total">  283.49 1134.16</time>
   <energy>
    <i name="e_fr_energy">   -288.72033863 </i>
    <i name="e_wo_entrp">   -288.72033863 </i>
    <i name="e_0_energy">   -288.72033863 </i>
   </energy>
  </scstep>
  <scstep>
   <time name="dav">  272.73 1091.11</time>
   <time name="total">  279.92 1119.90</time>
   <energy>
    <i name="e_fr_energy">   -288.65521300 </i>
    <i name="e_wo_entrp">   -288.65521300 </i>
    <i name="e_0_energy">   -288.65521300 </i>
   </energy>
  </scstep>
  <scstep>
   <time name="dav">  269.70 1078.98</time>
   <time name="total">  276.17 1104.90</time>
   <energy>
    <i name="e_fr_energy">   -288.64970252 </i>
    <i name="e_wo_entrp">   -288.64970252 </i>
    <i name="e_0_energy">   -288.64970252 </i>
   </energy>
  </scstep>
  <scstep>
   <time name="dav">  295.05 1180.41</time>
   <time name="total">  301.63 1206.76</time>
   <energy>
    <i name="e_fr_energy">   -288.64991957 </i>
    <i name="e_wo_entrp">   -288.64991957 </i>
    <i name="e_0_energy">   -288.64991957 </i>
   </energy>
  </scstep>
  <scstep>
   <time name="dav">  275.21 1101.04</time>
   <time name="total">  281.84 1127.57</time>
   <energy>
    <i name="e_fr_energy">   -288.64988613 </i>
    <i name="e_wo_entrp">   -288.64988613 </i>
    <i name="e_0_energy">   -288.64988613 </i>
   </energy>
  </scstep>
  <scstep>
   <time name="dav">  288.75 1155.22</time>
   <time name="total">  295.88 1183.73</time>
   <energy>
    <i name="e_fr_energy">   -288.64989509 </i>
    <i name="e_wo_entrp">   -288.64989509 </i>
    <i name="e_0_energy">   -288.64989509 </i>
   </energy>
  </scstep>
  <scstep>
   <time name="dav">  274.23 1097.11</time>
   <time name="total">  281.41 1125.88</time>
   <energy>
    <i name="e_fr_energy">   -288.64989194 </i>
    <i name="e_wo_entrp">   -288.64989194 </i>
    <i name="e_0_energy">   -288.64989194 </i>
   </energy>
  </scstep>
  <scstep>
   <time name="dav">  269.69 1078.94</time>
   <time name="total">  270.56 1082.46</time>
   <energy>
    <i name="alphaZ">    154.60195415 </i>
    <i name="ewald">  -1322.61919020 </i>
    <i name="hartreedc">  -2411.86095215 </i>
    <i name="XCdc">    428.93371356 </i>
    <i name="pawpsdc">   2302.25723947 </i>
    <i name="pawaedc">  -2336.31734463 </i>
    <i name="eentropy">      0.00000000 </i>
    <i name="bandstr">   -934.96394019 </i>
    <i name="atom">   3831.31862854 </i>
    <i name="e_fr_energy">   -288.64989145 </i>
    <i name="e_wo_entrp">   -288.64989145 </i>
    <i name="e_0_energy">   -288.64989145 </i>
   </energy>
  </scstep>
  <structure>
   <crystal>
    <varray name="basis" >
     <v>       7.15339082       0.00000000       0.00000000 </v>
     <v>       0.00000000       9.11412989       0.00000000 </v>
     <v>       0.00000000       0.00000000       6.51634513 </v>
    </varray>
    <i name="volume">    424.84571733 </i>
    <varray name="rec_basis" >
     <v>       0.13979384       0.00000000       0.00000000 </v>
     <v>       0.00000000       0.10971974       0.00000000 </v>
     <v>       0.00000000       0.00000000       0.15346026 </v>
    </varray>
   </crystal>
   <varray name="positions" >
    <v>       0.94953588       0.13217701       0.00183261 </v>
    <v>       0.05046410       0.86782299      -0.00183258 </v>
    <v>       0.55046412       0.86782299       0.50183258 </v>
    <v>       0.44953591       0.13217701       0.49816739 </v>
    <v>       0.05046410       0.63217701       0.49816739 </v>
    <v>       0.94953588       0.36782299       0.50183258 </v>
    <v>       0.44953591       0.36782299      -0.00183258 </v>
    <v>       0.55046412       0.63217701       0.00183261 </v>
    <v>       0.07212858       0.08808217       0.12547770 </v>
    <v>       0.92787144       0.91191781       0.87452227 </v>
    <v>       0.42787144       0.91191781       0.62547773 </v>
    <v>       0.57212856       0.08808217       0.37452230 </v>
    <v>       0.92787144       0.58808219       0.37452230 </v>
    <v>       0.07212858       0.41191784       0.62547773 </v>
    <v>       0.57212856       0.41191784       0.87452227 </v>
    <v>       0.42787144       0.58808219       0.12547770 </v>
    <v>       0.87459223       0.04427311       0.87619257 </v>
    <v>       0.12540777       0.95572686       0.12380743 </v>
    <v>       0.62540777       0.95572686       0.37619257 </v>
    <v>       0.37459223       0.04427311       0.62380743 </v>
    <v>       0.12540777       0.54427314       0.62380743 </v>
    <v>       0.87459223       0.45572689       0.37619257 </v>
    <v>       0.37459223       0.45572689       0.12380743 </v>
    <v>       0.62540777       0.54427314       0.87619257 </v>
    <v>       0.90766564       0.24114151       0.99921049 </v>
    <v>       0.09233435       0.75885850       0.00078954 </v>
    <v>       0.59233436       0.75885850       0.49921046 </v>
    <v>       0.40766564       0.24114151       0.50078951 </v>
    <v>       0.09233435       0.74114150       0.50078951 </v>
    <v>       0.90766564       0.25885850       0.49921046 </v>
    <v>       0.40766564       0.25885850       0.00078954 </v>
    <v>       0.59233436       0.74114150       0.99921049 </v>
    <v>       0.13180990       0.15863126       0.23188028 </v>
    <v>       0.86819009       0.84136872       0.76811971 </v>
    <v>       0.36819009       0.84136872       0.73188029 </v>
    <v>       0.63180991       0.15863126       0.26811971 </v>
    <v>       0.86819009       0.65863128       0.26811971 </v>
    <v>       0.13180990       0.34136872       0.73188029 </v>
    <v>       0.63180991       0.34136872       0.76811971 </v>
    <v>       0.36819009       0.65863128       0.23188028 </v>
    <v>       0.77171189       0.07955961       0.77787264 </v>
    <v>       0.22828810       0.92044041       0.22212738 </v>
    <v>       0.72828811       0.92044041       0.27787264 </v>
    <v>       0.27171189       0.07955961       0.72212736 </v>
    <v>       0.22828810       0.57955959       0.72212736 </v>
    <v>       0.77171189       0.42044041       0.27787264 </v>
    <v>       0.27171189       0.42044041       0.22212738 </v>
    <v>       0.72828811       0.57955959       0.77787264 </v>
   </varray>
  </structure>
  <varray name="forces" >
   <v>      -2.61746927       7.28729022      -0.33568547 </v>
   <v>       2.61746927      -7.28729022       0.33568547 </v>
   <v>       2.61746927      -7.28729022      -0.33568547 </v>
   <v>      -2.61746927       7.28729022       0.33568547 </v>
   <v>       2.61746927       7.28729022       0.33568547 </v>
   <v>      -2.61746927      -7.28729022      -0.33568547 </v>
   <v>      -2.61746927      -7.28729022       0.33568547 </v>
   <v>       2.61746927       7.28729022      -0.33568547 </v>
   <v>       3.57347542       4.50737488       5.23811637 </v>
   <v>      -3.57347542      -4.50737488      -5.23811637 </v>
   <v>      -3.57347542      -4.50737488       5.23811637 </v>
   <v>       3.57347542       4.50737488      -5.23811637 </v>
   <v>      -3.57347542       4.50737488      -5.23811637 </v>
   <v>       3.57347542      -4.50737488       5.23811637 </v>
   <v>       3.57347542      -4.50737488      -5.23811637 </v>
   <v>      -3.57347542       4.50737488       5.23811637 </v>
   <v>      -4.61711550       2.07614224      -4.20751649 </v>
   <v>       4.61711550      -2.07614224       4.20751649 </v>
   <v>       4.61711550      -2.07614224      -4.20751649 </v>
   <v>      -4.61711550       2.07614224       4.20751649 </v>
   <v>       4.61711550       2.07614224       4.20751649 </v>
   <v>      -4.61711550      -2.07614224      -4.20751649 </v>
   <v>      -4.61711550      -2.07614224       4.20751649 </v>
   <v>       4.61711550       2.07614224      -4.20751649 </v>
   <v>      -0.59134889       2.16259375       0.16868970 </v>
[...]
       <r>   -1.2298    1.0000 </r>
       <r>   -1.2298    1.0000 </r>
       <r>    3.2687    0.0000 </r>
       <r>    3.2687    0.0000 </r>
       <r>    3.2687    0.0000 </r>
       <r>    3.2687    0.0000 </r>
       <r>    4.0327    0.0000 </r>
       <r>    4.0327    0.0000 </r>
       <r>    4.0327    0.0000 </r>
       <r>    4.0327    0.0000 </r>
       <r>    6.1368    0.0000 </r>
       <r>    6.1368    0.0000 </r>
       <r>    6.1368    0.0000 </r>
       <r>    6.1368    0.0000 </r>
       <r>    6.8832    0.0000 </r>
       <r>    6.8832    0.0000 </r>
       <r>    6.8832    0.0000 </r>
       <r>    6.8832    0.0000 </r>
       <r>    7.4360    0.0000 </r>
       <r>    7.4360    0.0000 </r>
       <r>    7.4360    0.0000 </r>
       <r>    7.4360    0.0000 </r>
       <r>    8.0907    0.0000 </r>
       <r>    8.0907    0.0000 </r>
       <r>    8.0907    0.0000 </r>
       <r>    8.0907    0.0000 </r>
       <r>    8.4567    0.0000 </r>
       <r>    8.4567    0.0000 </r>
      </set>
     </set>
    </set>
   </array>
  </eigenvalues>
  <separator name="orbital magnetization" >
   <v name="MAGDIPOLOUT">      0.00000000      0.00000000      0.00000000</v>
  </separator>
  <dos>
   <i name="efermi">     -0.96947618 </i>
   <total>
    <array>
     <dimension dim="1">gridpoints</dimension>
     <dimension dim="2">spin</dimension>
     <field>energy</field>
     <field>total</field>
     <field>integrated</field>
     <set>
      <set comment="spin 1">
       <r>   -18.4220     0.0000     0.0000 </r>
       <r>   -18.3236     0.0000     0.0000 </r>
       <r>   -18.2253     0.0000     0.0000 </r>
       <r>   -18.1270     0.0000     0.0000 </r>
       <r>   -18.0287     0.0000     0.0000 </r>
       <r>   -17.9303     0.0000     0.0000 </r>
       <r>   -17.8320     0.0000     0.0000 </r>
       <r>   -17.7337     0.0000     0.0000 </r>
       <r>   -17.6354     0.0000     0.0000 </r>
       <r>   -17.5370     0.0000     0.0000 </r>
       <r>   -17.4387     0.0000     0.0000 </r>
       <r>   -17.3404     0.0000     0.0000 </r>
       <r>   -17.2421     0.0000     0.0000 </r>
       <r>   -17.1437     0.0000     0.0000 </r>
       <r>   -17.0454     0.0000     0.0000 </r>
       <r>   -16.9471     0.0000     0.0000 </r>
       <r>   -16.8488     0.0000     0.0000 </r>
       <r>   -16.7504     0.0000     0.0000 </r>
       <r>   -16.6521     0.0000     0.0000 </r>
       <r>   -16.5538     0.0000     0.0000 </r>
       <r>   -16.4555     0.0000     0.0000 </r>
       <r>   -16.3572    11.0946     0.3315 </r>
       <r>   -16.2588    69.0270     3.3204 </r>
       <r>   -16.1605     9.5693     7.9352 </r>
       <r>   -16.0622     0.0000     8.0000 </r>
       <r>   -15.9639     0.0000     8.0000 </r>
       <r>   -15.8655     0.0000     8.0000 </r>
       <r>   -15.7672     0.0000     8.0000 </r>
       <r>   -15.6689     0.0000     8.0000 </r>
       <r>   -15.5706     0.0000     8.0000 </r>
       <r>   -15.4722     0.0000     8.0000 </r>
       <r>   -15.3739     0.0000     8.0000 </r>
       <r>   -15.2756     0.0000     8.0000 </r>
       <r>   -15.1773     0.0000     8.0000 </r>
       <r>   -15.0789     0.0000     8.0000 </r>
       <r>   -14.9806     0.0000     8.0000 </r>
       <r>   -14.8823     0.0000     8.0000 </r>
       <r>   -14.7840     0.0000     8.0000 </r>
       <r>   -14.6856     0.0000     8.0000 </r>
       <r>   -14.5873     0.0000     8.0000 </r>
       <r>   -14.4890     0.0000     8.0000 </r>
       <r>   -14.3907     0.0000     8.0000 </r>
       <r>   -14.2924     0.0000     8.0000 </r>
       <r>   -14.1940     0.0000     8.0000 </r>
       <r>   -14.0957     0.0000     8.0000 </r>
       <r>   -13.9974     0.0000     8.0000 </r>
       <r>   -13.8991     0.0000     8.0000 </r>
       <r>   -13.8007     0.0000     8.0000 </r>
       <r>   -13.7024     1.0660     8.0109 </r>
       <r>   -13.6041    12.1330     8.6237 </r>
       <r>   -13.5058    33.5818    12.6623 </r>
       <r>   -13.4074    60.1610    16.6789 </r>
       <r>   -13.3091     6.2354    23.9673 </r>
       <r>   -13.2108     0.0000    24.0000 </r>
       <r>   -13.1125     0.0000    24.0000 </r>
       <r>   -13.0141     0.0000    24.0000 </r>
       <r>   -12.9158     0.0000    24.0000 </r>
       <r>   -12.8175     0.0000    24.0000 </r>
       <r>   -12.7192     0.0000    24.0000 </r>
       <r>   -12.6208     0.0000    24.0000 </r>
       <r>   -12.5225     0.0000    24.0000 </r>
       <r>   -12.4242     0.0000    24.0000 </r>
       <r>   -12.3259     0.0000    24.0000 </r>
       <r>   -12.2276     0.0000    24.0000 </r>
       <r>   -12.1292     0.0000    24.0000 </r>
       <r>   -12.0309     0.0000    24.0000 </r>
       <r>   -11.9326     0.0000    24.0000 </r>
       <r>   -11.8343     0.0000    24.0000 </r>
       <r>   -11.7359     0.0000    24.0000 </r>
       <r>   -11.6376     0.0000    24.0000 </r>
       <r>   -11.5393     0.0000    24.0000 </r>
       <r>   -11.4410     0.0000    24.0000 </r>
       <r>   -11.3426     0.0000    24.0000 </r>
       <r>   -11.2443     0.0000    24.0000 </r>
       <r>   -11.1460     0.0000    24.0000 </r>
       <r>   -11.0477     0.0000    24.0000 </r>
       <r>   -10.9493     0.0000    24.0000 </r>
       <r>   -10.8510     0.0000    24.0000 </r>
       <r>   -10.7527     0.0000    24.0000 </r>
       <r>   -10.6544     0.0000    24.0000 </r>
       <r>   -10.5560     0.0000    24.0000 </r>
       <r>   -10.4577     0.0000    24.0000 </r>
       <r>   -10.3594     0.0000    24.0000 </r>
       <r>   -10.2611     0.0000    24.0000 </r>
       <r>   -10.1628     0.0000    24.0000 </r>
       <r>   -10.0644     0.0000    24.0000 </r>
       <r>    -9.9661    52.5289    24.8945 </r>
       <r>    -9.8678    43.4042    30.3276 </r>
       <r>    -9.7695    61.0896    33.6400 </r>
       <r>    -9.6711    35.0990    38.1833 </r>
       <r>    -9.5728     6.1065    39.8074 </r>
       <r>    -9.4745     0.0000    40.0000 </r>
       <r>    -9.3762     0.0000    40.0000 </r>
       <r>    -9.2778     0.0000    40.0000 </r>
       <r>    -9.1795     0.0000    40.0000 </r>
       <r>    -9.0812     0.0000    40.0000 </r>
       <r>    -8.9829     0.0000    40.0000 </r>
       <r>    -8.8845     0.0000    40.0000 </r>
       <r>    -8.7862     0.0000    40.0000 </r>
       <r>    -8.6879     0.0000    40.0000 </r>
       <r>    -8.5896     0.0000    40.0000 </r>
       <r>    -8.4912     0.0000    40.0000 </r>
       <r>    -8.3929     0.0000    40.0000 </r>
       <r>    -8.2946     2.4448    40.0593 </r>
       <r>    -8.1963     5.0354    40.4643 </r>
       <r>    -8.0980     7.1606    41.0613 </r>
       <r>    -7.9996    11.4002    41.9648 </r>
       <r>    -7.9013    16.2609    43.5762 </r>
       <r>    -7.8030    21.8121    45.5279 </r>
       <r>    -7.7047     9.3872    46.9475 </r>
       <r>    -7.6063     4.6325    47.6137 </r>
       <r>    -7.5080     1.8040    47.9238 </r>
       <r>    -7.4097     0.0610    47.9996 </r>
       <r>    -7.3114     0.0000    48.0000 </r>
       <r>    -7.2130     0.0000    48.0000 </r>
       <r>    -7.1147     0.0000    48.0000 </r>
       <r>    -7.0164     0.0000    48.0000 </r>
       <r>    -6.9181     0.0000    48.0000 </r>
       <r>    -6.8197     0.0000    48.0000 </r>
       <r>    -6.7214     0.0000    48.0000 </r>
       <r>    -6.6231     0.0000    48.0000 </r>
       <r>    -6.5248     2.0391    48.0634 </r>
       <r>    -6.4264     6.1457    48.4743 </r>
       <r>    -6.3281    14.9274    49.4191 </r>
       <r>    -6.2298    20.9707    51.7423 </r>
       <r>    -6.1315    19.1170    53.3356 </r>
       <r>    -6.0332    11.3988    55.0299 </r>
       <r>    -5.9348    10.9303    56.0997 </r>
       <r>    -5.8365    62.1513    63.2385 </r>
       <r>    -5.7382     0.0000    64.0000 </r>
       <r>    -5.6399     1.0062    64.0160 </r>
       <r>    -5.5415    51.9471    65.1005 </r>
       <r>    -5.4432    22.3430    68.9568 </r>
       <r>    -5.3449    12.5978    70.7783 </r>
       <r>    -5.2466     6.2685    71.6532 </r>
       <r>    -5.1482    12.1410    72.2617 </r>
       <r>    -5.0499    29.2745    74.7056 </r>
       <r>    -4.9516    33.4287    77.4863 </r>
       <r>    -4.8533     4.9059    79.8689 </r>
       <r>    -4.7549     0.0000    80.0000 </r>
       <r>    -4.6566     0.0000    80.0000 </r>
       <r>    -4.5583     0.0000    80.0000 </r>
       <r>    -4.4600     0.0000    80.0000 </r>
       <r>    -4.3616     0.0000    80.0000 </r>
       <r>    -4.2633     5.7572    80.1759 </r>
       <r>    -4.1650    15.1752    81.2441 </r>
       <r>    -4.0667    21.2764    83.3278 </r>
       <r>    -3.9684    31.1142    85.4070 </r>
       <r>    -3.8700    10.0883    87.6854 </r>
       <r>    -3.7717     0.3031    87.9963 </r>
       <r>    -3.6734     0.0000    88.0000 </r>
       <r>    -3.5751     0.0387    88.0004 </r>
       <r>    -3.4767     0.8551    88.0343 </r>
       <r>    -3.3784     9.8657    88.4030 </r>
       <r>    -3.2801    53.7818    91.5839 </r>
       <r>    -3.1818    22.5855    95.6304 </r>
       <r>    -3.0834    57.9233    97.7681 </r>
       <r>    -2.9851    40.6743   102.5348 </r>
       <r>    -2.8868     3.5744   103.9193 </r>
       <r>    -2.7885     0.0000   104.0000 </r>
       <r>    -2.6901     0.0000   104.0000 </r>
       <r>    -2.5918     0.0000   104.0000 </r>
       <r>    -2.4935     0.0000   104.0000 </r>
       <r>    -2.3952     0.0000   104.0000 </r>
       <r>    -2.2968     0.0000   104.0000 </r>
       <r>    -2.1985     0.0000   104.0000 </r>
       <r>    -2.1002     0.0000   104.0000 </r>
       <r>    -2.0019     0.0000   104.0000 </r>
       <r>    -1.9036     0.0000   104.0000 </r>
       <r>    -1.8052     0.0000   104.0000 </r>
       <r>    -1.7069     8.3131   104.3302 </r>
       <r>    -1.6086    15.3950   105.5893 </r>
       <r>    -1.5103    31.2426   107.7699 </r>
       <r>    -1.4119    13.1797   111.8154 </r>
       <r>    -1.3136    40.2594   113.6126 </r>
       <r>    -1.2153    31.1720   117.3642 </r>
       <r>    -1.1170    12.6876   119.3500 </r>
       <r>    -1.0186     1.2552   119.9817 </r>
       <r>    -0.9203     0.0000   120.0000 </r>
       <r>    -0.8220     0.0000   120.0000 </r>
       <r>    -0.7237     0.0000   120.0000 </r>
       <r>    -0.6253     0.0000   120.0000 </r>
       <r>    -0.5270     0.0000   120.0000 </r>
       <r>    -0.4287     0.0000   120.0000 </r>
       <r>    -0.3304     0.0000   120.0000 </r>
       <r>    -0.2320     0.0000   120.0000 </r>
       <r>    -0.1337     0.0000   120.0000 </r>
       <r>    -0.0354     0.0000   120.0000 </r>
       <r>     0.0629     0.0000   120.0000 </r>
       <r>     0.1612     0.0000   120.0000 </r>
       <r>     0.2596     0.0000   120.0000 </r>
       <r>     0.3579     0.0000   120.0000 </r>
       <r>     0.4562     0.0000   120.0000 </r>
       <r>     0.5545     0.0000   120.0000 </r>
       <r>     0.6529     0.0000   120.0000 </r>
       <r>     0.7512     0.0000   120.0000 </r>
       <r>     0.8495     0.0000   120.0000 </r>
       <r>     0.9478     0.0000   120.0000 </r>
       <r>     1.0462     0.0000   120.0000 </r>
       <r>     1.1445     0.0000   120.0000 </r>
       <r>     1.2428     0.0000   120.0000 </r>
       <r>     1.3411     0.0000   120.0000 </r>
       <r>     1.4395     0.0000   120.0000 </r>
       <r>     1.5378     0.0000   120.0000 </r>
       <r>     1.6361     0.0000   120.0000 </r>
       <r>     1.7344     0.0000   120.0000 </r>
       <r>     1.8328     0.0000   120.0000 </r>
       <r>     1.9311     0.0000   120.0000 </r>
       <r>     2.0294     0.0000   120.0000 </r>
       <r>     2.1277     0.0000   120.0000 </r>
       <r>     2.2260     0.0000   120.0000 </r>
       <r>     2.3244     0.0000   120.0000 </r>
       <r>     2.4227     0.0000   120.0000 </r>
       <r>     2.5210     0.0000   120.0000 </r>
       <r>     2.6193     0.0000   120.0000 </r>
       <r>     2.7177     0.0000   120.0000 </r>
       <r>     2.8160     0.0000   120.0000 </r>
       <r>     2.9143     0.0000   120.0000 </r>
       <r>     3.0126     0.0000   120.0000 </r>
       <r>     3.1110     0.0000   120.0000 </r>
       <r>     3.2093     0.0000   120.0000 </r>
       <r>     3.3076     1.6894   120.0219 </r>
       <r>     3.4059    41.6971   121.7532 </r>
       <r>     3.5043    19.1638   124.8563 </r>
       <r>     3.6026    17.8870   126.9263 </r>
       <r>     3.7009     0.0000   128.0000 </r>
       <r>     3.7992    30.8414   129.8181 </r>
       <r>     3.8976    23.8654   132.1227 </r>
       <r>     3.9959    22.0611   134.7392 </r>
       <r>     4.0942     3.7043   135.8795 </r>
       <r>     4.1925     0.0673   135.9996 </r>
       <r>     4.2908     0.0000   136.0000 </r>
       <r>     4.3892     0.0000   136.0000 </r>
       <r>     4.4875     0.0000   136.0000 </r>
       <r>     4.5858     0.0000   136.0000 </r>
       <r>     4.6841     0.0000   136.0000 </r>
       <r>     4.7825     0.0000   136.0000 </r>
       <r>     4.8808     0.0000   136.0000 </r>
       <r>     4.9791     0.0018   136.0000 </r>
       <r>     5.0774     0.1380   136.0051 </r>
       <r>     5.1758     0.4848   136.0342 </r>
       <r>     5.2741     0.9883   136.1051 </r>
       <r>     5.3724     1.3821   136.2242 </r>
       <r>     5.4707     1.4952   136.3663 </r>
       <r>     5.5691     1.7873   136.5255 </r>
       <r>     5.6674     2.2232   136.7221 </r>
       <r>     5.7657     2.7301   136.9651 </r>
       <r>     5.8640     3.3938   137.2632 </r>
       <r>     5.9624     6.1667   137.7025 </r>
       <r>     6.0607     8.9008   138.4749 </r>
       <r>     6.1590    10.5086   139.4565 </r>
       <r>     6.2573     7.3033   140.3492 </r>
       <r>     6.3556    10.7390   141.3984 </r>
       <r>     6.4540     8.8765   142.3105 </r>
       <r>     6.5523     6.0731   143.0581 </r>
       <r>     6.6506     3.7326   143.5225 </r>
       <r>     6.7489     2.4524   143.8224 </r>
       <r>     6.8473    23.8954   145.3341 </r>
       <r>     6.9456    14.8263   147.5423 </r>
       <r>     7.0439    15.1093   148.7678 </r>
       <r>     7.1422    12.5777   150.2057 </r>
       <r>     7.2406    11.0872   151.3325 </r>
       <r>     7.3389    21.8293   152.6934 </r>
       <r>     7.4372    24.6578   155.2141 </r>
       <r>     7.5355    19.3421   157.4995 </r>
       <r>     7.6339    11.3143   159.0841 </r>
       <r>     7.7322     9.5165   160.0915 </r>
       <r>     7.8305     8.5776   160.8904 </r>
       <r>     7.9288    14.2699   162.0706 </r>
       <r>     8.0272    11.7497   163.3711 </r>
       <r>     8.1255    10.8724   164.5969 </r>
       <r>     8.2238    17.5675   165.8971 </r>
       <r>     8.3221     7.2061   167.1359 </r>
       <r>     8.4204     5.3688   167.7072 </r>
       <r>     8.5188     5.8654   168.1520 </r>
       <r>     8.6171    10.8932   168.9513 </r>
       <r>     8.7154    16.5707   170.4002 </r>
       <r>     8.8137     6.5924   171.5544 </r>
       <r>     8.9121     1.7107   171.9356 </r>
       <r>     9.0104     0.1381   171.9970 </r>
       <r>     9.1087     0.0000   172.0000 </r>
       <r>     9.2070     0.0000   172.0000 </r>
       <r>     9.3054     0.0000   172.0000 </r>
       <r>     9.4037     0.0000   172.0000 </r>
       <r>     9.5020     0.0000   172.0000 </r>
       <r>     9.6003     0.0000   172.0000 </r>
       <r>     9.6987     0.0000   172.0000 </r>
       <r>     9.7970     0.0000   172.0000 </r>
       <r>     9.8953     0.0000   172.0000 </r>
       <r>     9.9936     0.0000   172.0000 </r>
       <r>    10.0920     0.0000   172.0000 </r>
       <r>    10.1903     0.0000   172.0000 </r>
       <r>    10.2886     0.0000   172.0000 </r>
       <r>    10.3869     0.0000   172.0000 </r>
       <r>    10.4852     0.0000   172.0000 </r>
       <r>    10.5836     0.0000   172.0000 </r>
       <r>    10.6819     0.0000   172.0000 </r>
       <r>    10.7802     0.0000   172.0000 </r>
       <r>    10.8785     0.0000   172.0000 </r>
       <r>    10.9769     0.0000   172.0000 </r>
       <r>    11.0752     0.0000   172.0000 </r>
      </set>
     </set>
    </array>
   </total>
  </dos>
 </calculation>
 <structure name="finalpos" >
  <crystal>
   <varray name="basis" >
    <v>       7.15339082       0.00000000       0.00000000 </v>
    <v>       0.00000000       9.11412989       0.00000000 </v>
    <v>       0.00000000       0.00000000       6.51634513 </v>
   </varray>
   <i name="volume">    424.84571733 </i>
   <varray name="rec_basis" >
    <v>       0.13979384       0.00000000       0.00000000 </v>
    <v>       0.00000000       0.10971974       0.00000000 </v>
    <v>       0.00000000       0.00000000       0.15346026 </v>
   </varray>
  </crystal>
  <varray name="positions" >
   <v>       0.94159882       0.14628966       0.00429333 </v>
   <v>       0.05840116       0.85371034      -0.00429330 </v>
   <v>       0.55840118       0.85371034       0.50429330 </v>
   <v>       0.44159885       0.14628966       0.49570667 </v>
   <v>       0.05840116       0.64628966       0.49570667 </v>
   <v>       0.94159882       0.35371034       0.50429330 </v>
   <v>       0.44159885       0.35371034      -0.00429330 </v>
   <v>       0.55840118       0.64628966       0.00429333 </v>
   <v>       0.08084455       0.09783254       0.13835551 </v>
   <v>       0.91915546       0.90216744       0.86164446 </v>
   <v>       0.41915546       0.90216744       0.63835554 </v>
   <v>       0.58084454       0.09783254       0.36164449 </v>
   <v>       0.91915546       0.59783256       0.36164449 </v>
   <v>       0.08084455       0.40216747       0.63835554 </v>
   <v>       0.58084454       0.40216747       0.86164446 </v>
   <v>       0.41915546       0.59783256       0.13835551 </v>
   <v>       0.86017908       0.04820786       0.86584988 </v>
   <v>       0.13982092       0.95179212       0.13415012 </v>
   <v>       0.63982092       0.95179212       0.36584988 </v>
   <v>       0.36017908       0.04820786       0.63415012 </v>
   <v>       0.13982092       0.54820788       0.63415012 </v>
   <v>       0.86017908       0.45179215       0.36584988 </v>
   <v>       0.36017908       0.45179215       0.13415012 </v>
   <v>       0.63982092       0.54820788       0.86584988 </v>
   <v>       0.89672009       0.26054901       0.00790836 </v>
   <v>       0.10327990       0.73945100      -0.00790833 </v>
   <v>       0.60327991       0.73945100       0.50790833 </v>
   <v>       0.39672009       0.26054901       0.49209164 </v>
   <v>       0.10327990       0.76054900       0.49209164 </v>
   <v>       0.89672009       0.23945100       0.50790833 </v>
   <v>       0.39672009       0.23945100      -0.00790833 </v>
   <v>       0.60327991       0.76054900       0.00790836 </v>
   <v>       0.14339504       0.17358892       0.24762517 </v>
   <v>       0.85660494       0.82641107       0.75237482 </v>
   <v>       0.35660494       0.82641107       0.74762518 </v>
   <v>       0.64339506       0.17358892       0.25237482 </v>
   <v>       0.85660494       0.67358893       0.25237482 </v>
   <v>       0.14339504       0.32641107       0.74762518 </v>
   <v>       0.64339506       0.32641107       0.75237482 </v>
   <v>       0.35660494       0.67358893       0.24762517 </v>
   <v>       0.75032842       0.08421492       0.76142727 </v>
   <v>       0.24967156       0.91578509       0.23857275 </v>
   <v>       0.74967158       0.91578509       0.26142727 </v>
   <v>       0.25032842       0.08421492       0.73857273 </v>
   <v>       0.24967156       0.58421491       0.73857273 </v>
   <v>       0.75032842       0.41578509       0.26142727 </v>
   <v>       0.25032842       0.41578509       0.23857275 </v>
   <v>       0.74967158       0.58421491       0.76142727 </v>
  </varray>
 </structure>
</modeling>
