benzene                                 
           1
     7.153391    0.000000    0.000000
     0.000000    9.114130    0.000000
     0.000000    0.000000    6.516345
   C    H 
  24  24
Direct configuration=     1
   0.94599998  0.13760001  0.99980003
   0.05400000  0.86239999  0.00020000
   0.55400002  0.86239999  0.49980000
   0.44600001  0.13760001  0.50019997
   0.05400000  0.63760001  0.50019997
   0.94599998  0.36239999  0.49980000
   0.44600001  0.36239999  0.00020000
   0.55400002  0.63760001  0.99980003
   0.07680000  0.09030000  0.13240001
   0.92320001  0.90969998  0.86759996
   0.42320001  0.90969998  0.63240004
   0.57679999  0.09030000  0.36759999
   0.92320001  0.59030002  0.36759999
   0.07680000  0.40970001  0.63240004
   0.57679999  0.40970001  0.86759996
   0.42320001  0.59030002  0.13240001
   0.87000001  0.04540000  0.87180000
   0.12999999  0.95459998  0.12820000
   0.62999999  0.95459998  0.37180000
   0.37000001  0.04540000  0.62820000
   0.12999999  0.54540002  0.62820000
   0.87000001  0.45460001  0.37180000
   0.37000001  0.45460001  0.12820000
   0.62999999  0.54540002  0.87180000
   0.91119999  0.23160000  0.99910003
   0.08880000  0.76840001  0.00090000
   0.58880001  0.76840001  0.49910000
   0.41119999  0.23160000  0.50089997
   0.08880000  0.73159999  0.50089997
   0.91119999  0.26840001  0.49910000
   0.41119999  0.26840001  0.00090000
   0.58880001  0.73159999  0.99910003
   0.12650000  0.15199999  0.22240000
   0.87349999  0.84799999  0.77759999
   0.37349999  0.84799999  0.72240001
   0.62650001  0.15199999  0.27759999
   0.87349999  0.65200001  0.27759999
   0.12650000  0.34799999  0.72240001
   0.62650001  0.34799999  0.77759999
   0.37349999  0.65200001  0.22240000
   0.78079999  0.07640000  0.78670001
   0.21920000  0.92360002  0.21330001
   0.71920001  0.92360002  0.28670001
   0.28079999  0.07640000  0.71329999
   0.21920000  0.57639998  0.71329999
   0.78079999  0.42360002  0.28670001
   0.28079999  0.42360002  0.21330001
   0.71920001  0.57639998  0.78670001
Direct configuration=     2
   0.96876456  0.10268606  0.01288606
   0.03123542  0.89731394 -0.01288603
   0.53123544  0.89731394  0.51288603
   0.46876459  0.10268606  0.48711394
   0.03123542  0.60268606  0.48711394
   0.96876456  0.39731394  0.51288603
   0.46876459  0.39731394 -0.01288603
   0.53123544  0.60268606  0.01288606
   0.04672473  0.07602129  0.08783327
   0.95327528  0.92397869  0.91216670
   0.45327528  0.92397869  0.58783330
   0.54672472  0.07602129  0.41216673
   0.95327528  0.57602131  0.41216673
   0.04672473  0.42397872  0.58783330
   0.54672472  0.42397872  0.91216670
   0.45327528  0.57602131  0.08783327
   0.89956538  0.03814496  0.90007994
   0.10043462  0.96185502  0.09992006
   0.60043462  0.96185502  0.40007994
   0.39956538  0.03814496  0.59992006
   0.10043462  0.53814498  0.59992006
   0.89956538  0.46185505  0.40007994
   0.39956538  0.46185505  0.09992006
   0.60043462  0.53814498  0.90007994
   0.88844538  0.29302949  0.99981118
   0.11155461  0.70697052  0.00018885
   0.61155462  0.70697052  0.49981115
   0.38844538  0.29302949  0.50018882
   0.11155461  0.79302948  0.50018882
   0.88844538  0.20697052  0.49981115
   0.38844538  0.20697052  0.00018885
   0.61155462  0.79302948  0.99981118
   0.16068582  0.19469298  0.28343529
   0.83931416  0.80530701  0.71656470
   0.33931416  0.80530701  0.78343530
   0.66068584  0.19469298  0.21656470
   0.83931416  0.69469299  0.21656470
   0.16068582  0.30530701  0.78343530
   0.66068584  0.30530701  0.71656470
   0.33931416  0.69469299  0.28343529
   0.72228964  0.09674197  0.72986824
   0.27771035  0.90325805  0.27013178
   0.77771036  0.90325805  0.22986824
   0.22228964  0.09674197  0.77013176
   0.27771035  0.59674195  0.77013176
   0.72228964  0.40325805  0.22986824
   0.22228964  0.40325805  0.27013178
   0.77771036  0.59674195  0.72986824
Direct configuration=     3
   0.95100782  0.12991951  0.00267874
   0.04899216  0.87008049 -0.00267871
   0.54899218  0.87008049  0.50267871
   0.45100785  0.12991951  0.49732126
   0.04899216  0.62991951  0.49732126
   0.95100782  0.37008049  0.50267871
   0.45100785  0.37008049 -0.00267871
   0.54899218  0.62991951  0.00267874
   0.07018393  0.08715892  0.12259605
   0.92981608  0.91284106  0.87740392
   0.42981608  0.91284106  0.62259608
   0.57018392  0.08715892  0.37740395
   0.92981608  0.58715894  0.37740395
   0.07018393  0.41284109  0.62259608
   0.57018392  0.41284109  0.87740392
   0.42981608  0.58715894  0.12259605
   0.87650391  0.04380401  0.87802113
   0.12349609  0.95619597  0.12197887
   0.62349609  0.95619597  0.37802113
   0.37650391  0.04380401  0.62197887
   0.12349609  0.54380403  0.62197887
   0.87650391  0.45619600  0.37802113
   0.37650391  0.45619600  0.12197887
   0.62349609  0.54380403  0.87802113
   0.90619434  0.24511349  0.99925647
   0.09380564  0.75488653  0.00074356
   0.59380566  0.75488653  0.49925644
   0.40619434  0.24511349  0.50074353
   0.09380564  0.74511347  0.50074353
   0.90619434  0.25488653  0.49925644
   0.40619434  0.25488653  0.00074356
   0.59380566  0.74511347  0.99925647
   0.13402032  0.16139176  0.23582677
   0.86597966  0.83860823  0.76417322
   0.36597966  0.83860823  0.73582678
   0.63402034  0.16139176  0.26417322
   0.86597966  0.66139177  0.26417322
   0.13402032  0.33860823  0.73582678
   0.63402034  0.33860823  0.76417322
   0.36597966  0.66139177  0.23582677
   0.76792866  0.08087490  0.77419795
   0.23207132  0.91912512  0.22580207
   0.73207134  0.91912512  0.27419795
   0.26792866  0.08087490  0.72580205
   0.23207132  0.58087488  0.72580205
   0.76792866  0.41912512  0.27419795
   0.26792866  0.41912512  0.22580207
   0.73207134  0.58087488  0.77419795
Direct configuration=     4
   0.94953588  0.13217701  0.00183261
   0.05046410  0.86782299 -0.00183258
   0.55046412  0.86782299  0.50183258
   0.44953591  0.13217701  0.49816739
   0.05046410  0.63217701  0.49816739
   0.94953588  0.36782299  0.50183258
   0.44953591  0.36782299 -0.00183258
   0.55046412  0.63217701  0.00183261
   0.07212858  0.08808217  0.12547770
   0.92787144  0.91191781  0.87452227
   0.42787144  0.91191781  0.62547773
   0.57212856  0.08808217  0.37452230
   0.92787144  0.58808219  0.37452230
   0.07212858  0.41191784  0.62547773
   0.57212856  0.41191784  0.87452227
   0.42787144  0.58808219  0.12547770
   0.87459223  0.04427311  0.87619257
   0.12540777  0.95572686  0.12380743
   0.62540777  0.95572686  0.37619257
   0.37459223  0.04427311  0.62380743
   0.12540777  0.54427314  0.62380743
   0.87459223  0.45572689  0.37619257
   0.37459223  0.45572689  0.12380743
   0.62540777  0.54427314  0.87619257
   0.90766564  0.24114151  0.99921049
   0.09233435  0.75885850  0.00078954
   0.59233436  0.75885850  0.49921046
   0.40766564  0.24114151  0.50078951
   0.09233435  0.74114150  0.50078951
   0.90766564  0.25885850  0.49921046
   0.40766564  0.25885850  0.00078954
   0.59233436  0.74114150  0.99921049
   0.13180990  0.15863126  0.23188028
   0.86819009  0.84136872  0.76811971
   0.36819009  0.84136872  0.73188029
   0.63180991  0.15863126  0.26811971
   0.86819009  0.65863128  0.26811971
   0.13180990  0.34136872  0.73188029
   0.63180991  0.34136872  0.76811971
   0.36819009  0.65863128  0.23188028
   0.77171189  0.07955961  0.77787264
   0.22828810  0.92044041  0.22212738
   0.72828811  0.92044041  0.27787264
   0.27171189  0.07955961  0.72212736
   0.22828810  0.57955959  0.72212736
   0.77171189  0.42044041  0.27787264
   0.27171189  0.42044041  0.22212738
   0.72828811  0.57955959  0.77787264
Direct configuration=     5
   0.94904130  0.13293554  0.00154831
   0.05095868  0.86706446 -0.00154828
   0.55095870  0.86706446  0.50154828
   0.44904133  0.13293554  0.49845169
   0.05095868  0.63293554  0.49845169
   0.94904130  0.36706446  0.50154828
   0.44904133  0.36706446 -0.00154828
   0.55095870  0.63293554  0.00154831
   0.07278198  0.08839238  0.12644594
   0.92721803  0.91160760  0.87355403
   0.42721803  0.91160760  0.62644597
   0.57278197  0.08839238  0.37355406
   0.92721803  0.58839240  0.37355406
   0.07278198  0.41160763  0.62644597
   0.57278197  0.41160763  0.87355403
   0.42721803  0.58839240  0.12644594
   0.87394991  0.04443073  0.87557817
   0.12605009  0.95556924  0.12442183
   0.62605009  0.95556924  0.37557817
   0.37394991  0.04443073  0.62442183
   0.12605009  0.54443076  0.62442183
   0.87394991  0.45556927  0.37557817
   0.37394991  0.45556927  0.12442183
   0.62605009  0.54443076  0.87557817
   0.90816000  0.23980691  0.99919504
   0.09183999  0.76019310  0.00080499
   0.59184000  0.76019310  0.49919501
   0.40816000  0.23980691  0.50080496
   0.09183999  0.73980690  0.50080496
   0.90816000  0.26019310  0.49919501
   0.40816000  0.26019310  0.00080499
   0.59184000  0.73980690  0.99919504
   0.13106719  0.15770373  0.23055424
   0.86893280  0.84229625  0.76944574
   0.36893280  0.84229625  0.73055426
   0.63106720  0.15770373  0.26944574
   0.86893280  0.65770375  0.26944574
   0.13106719  0.34229625  0.73055426
   0.63106720  0.34229625  0.76944574
   0.36893280  0.65770375  0.23055424
   0.77298307  0.07911766  0.77910735
   0.22701692  0.92088235  0.22089267
   0.72701693  0.92088235  0.27910735
   0.27298307  0.07911766  0.72089265
   0.22701692  0.57911765  0.72089265
   0.77298307  0.42088235  0.27910735
   0.27298307  0.42088235  0.22089267
   0.72701693  0.57911765  0.77910735
Direct configuration=     6
   0.94305375  0.15179800  0.00417248
   0.05694624  0.84820200 -0.00417245
   0.55694625  0.84820200  0.50417245
   0.44305378  0.15179800  0.49582752
   0.05694624  0.65179800  0.49582752
   0.94305375  0.34820200  0.50417245
   0.44305378  0.34820200 -0.00417245
   0.55694625  0.65179800  0.00417248
   0.08156319  0.10278856  0.14233161
   0.91843682  0.89721142  0.85766836
   0.41843682  0.89721142  0.64233164
   0.58156318  0.10278856  0.35766839
   0.91843682  0.60278858  0.35766839
   0.08156319  0.39721145  0.64233164
   0.58156318  0.39721145  0.85766836
   0.41843682  0.60278858  0.14233161
   0.85894661  0.05071048  0.86029900
   0.14105339  0.94928950  0.13970100
   0.64105339  0.94928950  0.36029900
   0.35894661  0.05071048  0.63970100
   0.14105339  0.55071050  0.63970100
   0.85894661  0.44928953  0.36029900
   0.35894661  0.44928953  0.13970100
   0.64105339  0.55071050  0.86029900
   0.89936822  0.26392797  0.00025990
   0.10063177  0.73607205 -0.00025988
   0.60063178  0.73607205  0.50025988
   0.39936822  0.26392797  0.49974010
   0.10063177  0.76392795  0.49974010
   0.89936822  0.23607205  0.50025988
   0.39936822  0.23607205 -0.00025988
   0.60063178  0.76392795  0.00025990
   0.14412653  0.17441485  0.25356036
   0.85587346  0.82558514  0.74643962
   0.35587346  0.82558514  0.75356038
   0.64412654  0.17441485  0.24643962
   0.85587346  0.67441486  0.24643962
   0.14412653  0.32558514  0.75356038
   0.64412654  0.32558514  0.74643962
   0.35587346  0.67441486  0.25356036
   0.74876875  0.08754587  0.75514721
   0.25123123  0.91245415  0.24485281
   0.75123125  0.91245415  0.25514721
   0.24876875  0.08754587  0.74485279
   0.25123123  0.58754585  0.74485279
   0.74876875  0.41245415  0.25514721
   0.24876875  0.41245415  0.24485281
   0.75123125  0.58754585  0.75514721
Direct configuration=     7
   0.94441123  0.14752155  0.00357753
   0.05558875  0.85247845 -0.00357751
   0.55558877  0.85247845  0.50357750
   0.44441126  0.14752155  0.49642247
   0.05558875  0.64752155  0.49642247
   0.94441123  0.35247845  0.50357750
   0.44441126  0.35247845 -0.00357751
   0.55558877  0.64752155  0.00357753
   0.07957234  0.09952469  0.13873004
   0.92042768  0.90047529  0.86126993
   0.42042768  0.90047529  0.63873007
   0.57957232  0.09952469  0.36126996
   0.92042768  0.59952471  0.36126996
   0.07957234  0.40047532  0.63873007
   0.57957232  0.40047532  0.86126993
   0.42042768  0.59952471  0.13873004
   0.86234812  0.04928675  0.86376305
   0.13765188  0.95071323  0.13623695
   0.63765188  0.95071323  0.36376305
   0.36234812  0.04928675  0.63623695
   0.13765188  0.54928677  0.63623695
   0.86234812  0.45071326  0.36376305
   0.36234812  0.45071326  0.13623695
   0.63765188  0.54928677  0.86376305
   0.90136147  0.25845930  0.00001848
   0.09863852  0.74154071 -0.00001845
   0.59863853  0.74154071  0.50001845
   0.40136147  0.25845930  0.49998152
   0.09863852  0.75845929  0.49998152
   0.90136147  0.24154071  0.50001845
   0.40136147  0.24154071 -0.00001845
   0.59863853  0.75845929  0.00001848
   0.14116574  0.17062614  0.24834447
   0.85883424  0.82937384  0.75165552
   0.35883424  0.82937384  0.74834448
   0.64116576  0.17062614  0.25165552
   0.85883424  0.67062616  0.25165552
   0.14116574  0.32937384  0.74834448
   0.64116576  0.32937384  0.75165552
   0.35883424  0.67062616  0.24834447
   0.75425856  0.08563504  0.76057939
   0.24574142  0.91436497  0.23942062
   0.74574144  0.91436497  0.26057939
   0.25425856  0.08563504  0.73942061
   0.24574142  0.58563503  0.73942061
   0.75425856  0.41436497  0.26057939
   0.25425856  0.41436497  0.23942062
   0.74574144  0.58563503  0.76057939
Direct configuration=     8
   0.94168695  0.14543038 -0.00046204
   0.05831303  0.85456962  0.00046207
   0.55831305  0.85456962  0.49953793
   0.44168698  0.14543038  0.50046204
   0.05831303  0.64543038  0.50046204
   0.94168695  0.35456962  0.49953793
   0.44168698  0.35456962  0.00046207
   0.55831305  0.64543038 -0.00046204
   0.08280014  0.09420894  0.13980138
   0.91719987  0.90579104  0.86019859
   0.41719987  0.90579104  0.63980141
   0.58280013  0.09420894  0.36019862
   0.91719987  0.59420896  0.36019862
   0.08280014  0.40579107  0.63980141
   0.58280013  0.40579107  0.86019859
   0.41719987  0.59420896  0.13980138
   0.86426563  0.04704681  0.86495086
   0.13573437  0.95295317  0.13504914
   0.63573437  0.95295317  0.36495086
   0.36426563  0.04704681  0.63504914
   0.13573437  0.54704683  0.63504914
   0.86426563  0.45295320  0.36495086
   0.36426563  0.45295320  0.13504914
   0.63573437  0.54704683  0.86495086
   0.89848765  0.26655040  0.00091607
   0.10151234  0.73344961 -0.00091604
   0.60151235  0.73344961  0.50091604
   0.39848765  0.26655040  0.49908393
   0.10151234  0.76655039  0.49908393
   0.89848765  0.23344961  0.50091604
   0.39848765  0.23344961 -0.00091604
   0.60151235  0.76655039  0.00091607
   0.14503247  0.17582479  0.25495029
   0.85496752  0.82417519  0.74504970
   0.35496752  0.82417519  0.75495030
   0.64503248  0.17582479  0.24504970
   0.85496752  0.67582481  0.24504970
   0.14503247  0.32417519  0.75495030
   0.64503248  0.32417519  0.74504970
   0.35496752  0.67582481  0.25495029
   0.74956973  0.08719368  0.75561732
   0.25043025  0.91280634  0.24438269
   0.75043027  0.91280634  0.25561732
   0.24956973  0.08719368  0.74438268
   0.25043025  0.58719366  0.74438268
   0.74956973  0.41280634  0.25561732
   0.24956973  0.41280634  0.24438269
   0.75043027  0.58719366  0.75561732
Direct configuration=     9
   0.94358093  0.14688420  0.00234636
   0.05641905  0.85311580 -0.00234633
   0.55641907  0.85311580  0.50234633
   0.44358096  0.14688420  0.49765364
   0.05641905  0.64688420  0.49765364
   0.94358093  0.35311580  0.50234633
   0.44358096  0.35311580 -0.00234633
   0.55641907  0.64688420  0.00234636
   0.08055610  0.09790456  0.13905656
   0.91944391  0.90209541  0.86094341
   0.41944391  0.90209541  0.63905659
   0.58055609  0.09790456  0.36094344
   0.91944391  0.59790459  0.36094344
   0.08055610  0.40209544  0.63905659
   0.58055609  0.40209544  0.86094341
   0.41944391  0.59790459  0.13905656
   0.86293254  0.04860407  0.86412507
   0.13706746  0.95139591  0.13587493
   0.63706746  0.95139591  0.36412507
   0.36293254  0.04860407  0.63587493
   0.13706746  0.54860409  0.63587493
   0.86293254  0.45139594  0.36412507
   0.36293254  0.45139594  0.13587493
   0.63706746  0.54860409  0.86412507
   0.90048559  0.26092529  0.00029205
   0.09951440  0.73907472 -0.00029202
   0.59951441  0.73907472  0.50029202
   0.40048559  0.26092529  0.49970795
   0.09951440  0.76092528  0.49970795
   0.90048559  0.23907472  0.50029202
   0.40048559  0.23907472 -0.00029202
   0.59951441  0.76092528  0.00029205
   0.14234424  0.17221058  0.25035778
   0.85765575  0.82778941  0.74964220
   0.35765575  0.82778941  0.75035780
   0.64234425  0.17221058  0.24964220
   0.85765575  0.67221059  0.24964220
   0.14234424  0.32778941  0.75035780
   0.64234425  0.32778941  0.74964220
   0.35765575  0.67221059  0.25035778
   0.75282951  0.08611008  0.75906706
   0.24717048  0.91388993  0.24093296
   0.74717049  0.91388993  0.25906706
   0.25282951  0.08611008  0.74093294
   0.24717048  0.58611007  0.74093294
   0.75282951  0.41388993  0.25906706
   0.25282951  0.41388993  0.24093296
   0.74717049  0.58611007  0.75906706
Direct configuration=    10
   0.94394432  0.14622168  0.00233500
   0.05605566  0.85377832 -0.00233498
   0.55605568  0.85377832  0.50233497
   0.44394435  0.14622168  0.49766500
   0.05605566  0.64622168  0.49766500
   0.94394432  0.35377832  0.50233497
   0.44394435  0.35377832 -0.00233498
   0.55605568  0.64622168  0.00233500
   0.08042597  0.09767504  0.13887138
   0.91957404  0.90232493  0.86112859
   0.41957404  0.90232493  0.63887141
   0.58042596  0.09767504  0.36112862
   0.91957404  0.59767507  0.36112862
   0.08042597  0.40232496  0.63887141
   0.58042596  0.40232496  0.86112859
   0.41957404  0.59767507  0.13887138
   0.86171928  0.04892718  0.86310605
   0.13828072  0.95107280  0.13689395
   0.63828072  0.95107280  0.36310605
   0.36171928  0.04892718  0.63689395
   0.13828072  0.54892720  0.63689395
   0.86171928  0.45107283  0.36310605
   0.36171928  0.45107283  0.13689395
   0.63828072  0.54892720  0.86310605
   0.90015562  0.26186285  0.00087006
   0.09984436  0.73813716 -0.00087003
   0.59984438  0.73813716  0.50087003
   0.40015562  0.26186285  0.49912994
   0.09984436  0.76186284  0.49912994
   0.90015562  0.23813716  0.50087003
   0.40015562  0.23813716 -0.00087003
   0.59984438  0.76186284  0.00087006
   0.14264908  0.17268007  0.25054662
   0.85735091  0.82731992  0.74945336
   0.35735091  0.82731992  0.75054664
   0.64264909  0.17268007  0.24945336
   0.85735091  0.67268008  0.24945336
   0.14264908  0.32731992  0.75054664
   0.64264909  0.32731992  0.74945336
   0.35735091  0.67268008  0.25054662
   0.75362893  0.08573663  0.75949360
   0.24637105  0.91426338  0.24050641
   0.74637107  0.91426338  0.25949360
   0.25362893  0.08573663  0.74050640
   0.24637105  0.58573662  0.74050640
   0.75362893  0.41426338  0.25949360
   0.25362893  0.41426338  0.24050641
   0.74637107  0.58573662  0.75949360
Direct configuration=    11
   0.94372885  0.14661452  0.00234174
   0.05627113  0.85338548 -0.00234171
   0.55627115  0.85338548  0.50234171
   0.44372888  0.14661452  0.49765826
   0.05627113  0.64661452  0.49765826
   0.94372885  0.35338548  0.50234171
   0.44372888  0.35338548 -0.00234171
   0.55627115  0.64661452  0.00234174
   0.08050313  0.09781114  0.13898118
   0.91949688  0.90218884  0.86101879
   0.41949688  0.90218884  0.63898121
   0.58050312  0.09781114  0.36101882
   0.91949688  0.59781116  0.36101882
   0.08050313  0.40218887  0.63898121
   0.58050312  0.40218887  0.86101879
   0.41949688  0.59781116  0.13898118
   0.86243868  0.04873559  0.86371028
   0.13756132  0.95126439  0.13628972
   0.63756132  0.95126439  0.36371028
   0.36243868  0.04873559  0.63628972
   0.13756132  0.54873561  0.63628972
   0.86243868  0.45126442  0.36371028
   0.36243868  0.45126442  0.13628972
   0.63756132  0.54873561  0.86371028
   0.90035128  0.26130693  0.00052733
   0.09964871  0.73869309 -0.00052730
   0.59964872  0.73869309  0.50052730
   0.40035128  0.26130693  0.49947267
   0.09964871  0.76130691  0.49947267
   0.90035128  0.23869309  0.50052730
   0.40035128  0.23869309 -0.00052730
   0.59964872  0.76130691  0.00052733
   0.14246832  0.17240168  0.25043465
   0.85753166  0.82759830  0.74956534
   0.35753166  0.82759830  0.75043466
   0.64246834  0.17240168  0.24956534
   0.85753166  0.67240170  0.24956534
   0.14246832  0.32759830  0.75043466
   0.64246834  0.32759830  0.74956534
   0.35753166  0.67240170  0.25043465
   0.75315492  0.08595807  0.75924069
   0.24684507  0.91404195  0.24075933
   0.74684508  0.91404195  0.25924069
   0.25315492  0.08595807  0.74075931
   0.24684507  0.58595805  0.74075931
   0.75315492  0.41404195  0.25924069
   0.25315492  0.41404195  0.24075933
   0.74684508  0.58595805  0.75924069
Direct configuration=    12
   0.94355360  0.14675314  0.00211308
   0.05644638  0.85324686 -0.00211305
   0.55644640  0.85324686  0.50211305
   0.44355363  0.14675314  0.49788692
   0.05644638  0.64675314  0.49788692
   0.94355360  0.35324686  0.50211305
   0.44355363  0.35324686 -0.00211305
   0.55644640  0.64675314  0.00211308
   0.08075835  0.09771807  0.13926939
   0.91924166  0.90228191  0.86073058
   0.41924166  0.90228191  0.63926942
   0.58075834  0.09771807  0.36073061
   0.91924166  0.59771809  0.36073061
   0.08075835  0.40228194  0.63926942
   0.58075834  0.40228194  0.86073058
   0.41924166  0.59771809  0.13926939
   0.86223509  0.04874321  0.86362897
   0.13776491  0.95125677  0.13637103
   0.63776491  0.95125677  0.36362897
   0.36223509  0.04874321  0.63637103
   0.13776491  0.54874323  0.63637103
   0.86223509  0.45125680  0.36362897
   0.36223509  0.45125680  0.13637103
   0.63776491  0.54874323  0.86362897
   0.90036474  0.26139533  0.00109723
   0.09963524  0.73860469 -0.00109720
   0.59963526  0.73860469  0.50109720
   0.40036474  0.26139533  0.49890277
   0.09963524  0.76139531  0.49890277
   0.90036474  0.23860469  0.50109720
   0.40036474  0.23860469 -0.00109720
   0.59963526  0.76139531  0.00109723
   0.14247850  0.17255810  0.25015232
   0.85752149  0.82744189  0.74984767
   0.35752149  0.82744189  0.75015233
   0.64247851  0.17255810  0.24984767
   0.85752149  0.67255811  0.24984767
   0.14247850  0.32744189  0.75015233
   0.64247851  0.32744189  0.74984767
   0.35752149  0.67255811  0.25015232
   0.75343057  0.08577869  0.75920828
   0.24656942  0.91422133  0.24079173
   0.74656943  0.91422133  0.25920828
   0.25343057  0.08577869  0.74079172
   0.24656942  0.58577867  0.74079172
   0.75343057  0.41422133  0.25920828
   0.25343057  0.41422133  0.24079173
   0.74656943  0.58577867  0.75920828
Direct configuration=    13
   0.94360290  0.14671414  0.00217741
   0.05639708  0.85328586 -0.00217738
   0.55639710  0.85328586  0.50217738
   0.44360293  0.14671414  0.49782259
   0.05639708  0.64671414  0.49782259
   0.94360290  0.35328586  0.50217738
   0.44360293  0.35328586 -0.00217738
   0.55639710  0.64671414  0.00217741
   0.08068655  0.09774425  0.13918831
   0.91931347  0.90225573  0.86081166
   0.41931347  0.90225573  0.63918834
   0.58068653  0.09774425  0.36081169
   0.91931347  0.59774427  0.36081169
   0.08068655  0.40225576  0.63918834
   0.58068653  0.40225576  0.86081166
   0.41931347  0.59774427  0.13918831
   0.86229237  0.04874107  0.86365185
   0.13770763  0.95125891  0.13634815
   0.63770763  0.95125891  0.36365185
   0.36229237  0.04874107  0.63634815
   0.13770763  0.54874109  0.63634815
   0.86229237  0.45125894  0.36365185
   0.36229237  0.45125894  0.13634815
   0.63770763  0.54874109  0.86365185
   0.90036095  0.26137046  0.00093689
   0.09963903  0.73862956 -0.00093686
   0.59963905  0.73862956  0.50093686
   0.40036095  0.26137046  0.49906311
   0.09963903  0.76137044  0.49906311
   0.90036095  0.23862956  0.50093686
   0.40036095  0.23862956 -0.00093686
   0.59963905  0.76137044  0.00093689
   0.14247564  0.17251409  0.25023175
   0.85752435  0.82748589  0.74976824
   0.35752435  0.82748589  0.75023176
   0.64247565  0.17251409  0.24976824
   0.85752435  0.67251411  0.24976824
   0.14247564  0.32748589  0.75023176
   0.64247565  0.32748589  0.74976824
   0.35752435  0.67251411  0.25023175
   0.75335301  0.08582916  0.75921740
   0.24664697  0.91417086  0.24078262
   0.74664699  0.91417086  0.25921740
   0.25335301  0.08582916  0.74078260
   0.24664697  0.58582914  0.74078260
   0.75335301  0.41417086  0.25921740
   0.25335301  0.41417086  0.24078262
   0.74664699  0.58582914  0.75921740
Direct configuration=    14
   0.94364099  0.14676542  0.00220186
   0.05635899  0.85323458 -0.00220184
   0.55635901  0.85323458  0.50220183
   0.44364102  0.14676542  0.49779814
   0.05635899  0.64676542  0.49779814
   0.94364099  0.35323458  0.50220183
   0.44364102  0.35323458 -0.00220184
   0.55635901  0.64676542  0.00220186
   0.08065649  0.09774378  0.13914556
   0.91934353  0.90225620  0.86085441
   0.41934353  0.90225620  0.63914559
   0.58065647  0.09774378  0.36085444
   0.91934353  0.59774380  0.36085444
   0.08065649  0.40225623  0.63914559
   0.58065647  0.40225623  0.86085441
   0.41934353  0.59774380  0.13914556
   0.86228633  0.04873504  0.86375572
   0.13771367  0.95126494  0.13624428
   0.63771367  0.95126494  0.36375572
   0.36228633  0.04873504  0.63624428
   0.13771367  0.54873506  0.63624428
   0.86228633  0.45126497  0.36375572
   0.36228633  0.45126497  0.13624428
   0.63771367  0.54873506  0.86375572
   0.90037877  0.26143002  0.00154506
   0.09962122  0.73856999 -0.00154503
   0.59962123  0.73856999  0.50154503
   0.40037877  0.26143002  0.49845494
   0.09962122  0.76143001  0.49845494
   0.90037877  0.23856999  0.50154503
   0.40037877  0.23856999 -0.00154503
   0.59962123  0.76143001  0.00154506
   0.14251661  0.17269805  0.24996708
   0.85748338  0.82730193  0.75003291
   0.35748338  0.82730193  0.74996709
   0.64251662  0.17269805  0.25003291
   0.85748338  0.67269807  0.25003291
   0.14251661  0.32730193  0.74996709
   0.64251662  0.32730193  0.75003291
   0.35748338  0.67269807  0.24996708
   0.75346243  0.08570033  0.75900726
   0.24653755  0.91429969  0.24099275
   0.74653757  0.91429969  0.25900726
   0.25346243  0.08570033  0.74099274
   0.24653755  0.58570031  0.74099274
   0.75346243  0.41429969  0.25900726
   0.25346243  0.41429969  0.24099275
   0.74653757  0.58570031  0.75900726
Direct configuration=    15
   0.94375526  0.14691925  0.00227524
   0.05624472  0.85308075 -0.00227521
   0.55624474  0.85308075  0.50227521
   0.44375529  0.14691925  0.49772476
   0.05624472  0.64691925  0.49772476
   0.94375526  0.35308075  0.50227521
   0.44375529  0.35308075 -0.00227521
   0.55624474  0.64691925  0.00227524
   0.08056629  0.09774236  0.13901731
   0.91943372  0.90225761  0.86098266
   0.41943372  0.90225761  0.63901734
   0.58056628  0.09774236  0.36098269
   0.91943372  0.59774239  0.36098269
   0.08056629  0.40225764  0.63901734
   0.58056628  0.40225764  0.86098266
   0.41943372  0.59774239  0.13901731
   0.86226822  0.04871694  0.86406735
   0.13773178  0.95128304  0.13593265
   0.63773178  0.95128304  0.36406735
   0.36226822  0.04871694  0.63593265
   0.13773178  0.54871696  0.63593265
   0.86226822  0.45128306  0.36406735
   0.36226822  0.45128306  0.13593265
   0.63773178  0.54871696  0.86406735
   0.90043222  0.26160870  0.00336957
   0.09956776  0.73839131 -0.00336955
   0.59956778  0.73839131  0.50336955
   0.40043222  0.26160870  0.49663043
   0.09956776  0.76160869  0.49663043
   0.90043222  0.23839131  0.50336955
   0.40043222  0.23839131 -0.00336955
   0.59956778  0.76160869  0.00336957
   0.14263952  0.17324992  0.24917306
   0.85736047  0.82675006  0.75082692
   0.35736047  0.82675006  0.74917308
   0.64263953  0.17324992  0.25082692
   0.85736047  0.67324994  0.25082692
   0.14263952  0.32675006  0.74917308
   0.64263953  0.32675006  0.75082692
   0.35736047  0.67324994  0.24917306
   0.75379068  0.08531385  0.75837686
   0.24620930  0.91468616  0.24162316
   0.74620932  0.91468616  0.25837686
   0.25379068  0.08531385  0.74162314
   0.24620930  0.58531384  0.74162314
   0.75379068  0.41468616  0.25837686
   0.25379068  0.41468616  0.24162316
   0.74620932  0.58531384  0.75837686
Direct configuration=    16
   0.94378843  0.14696390  0.00229653
   0.05621155  0.85303610 -0.00229651
   0.55621157  0.85303610  0.50229650
   0.44378846  0.14696390  0.49770347
   0.05621155  0.64696390  0.49770347
   0.94378843  0.35303610  0.50229650
   0.44378846  0.35303610 -0.00229651
   0.55621157  0.64696390  0.00229653
   0.08054011  0.09774195  0.13898008
   0.91945990  0.90225802  0.86101989
   0.41945990  0.90225802  0.63898011
   0.58054010  0.09774195  0.36101992
   0.91945990  0.59774198  0.36101992
   0.08054011  0.40225805  0.63898011
   0.58054010  0.40225805  0.86101989
   0.41945990  0.59774198  0.13898008
   0.86226297  0.04871169  0.86415781
   0.13773703  0.95128829  0.13584219
   0.63773703  0.95128829  0.36415781
   0.36226297  0.04871169  0.63584219
   0.13773703  0.54871171  0.63584219
   0.86226297  0.45128832  0.36415781
   0.36226297  0.45128832  0.13584219
   0.63773703  0.54871171  0.86415781
   0.90044774  0.26166057  0.00389918
   0.09955225  0.73833944 -0.00389915
   0.59955226  0.73833944  0.50389915
   0.40044774  0.26166057  0.49610082
   0.09955225  0.76166056  0.49610082
   0.90044774  0.23833944  0.50389915
   0.40044774  0.23833944 -0.00389915
   0.59955226  0.76166056  0.00389918
   0.14267520  0.17341012  0.24894259
   0.85732479  0.82658987  0.75105740
   0.35732479  0.82658987  0.74894260
   0.64267521  0.17341012  0.25105740
   0.85732479  0.67341013  0.25105740
   0.14267520  0.32658987  0.74894260
   0.64267521  0.32658987  0.75105740
   0.35732479  0.67341013  0.24894259
   0.75388596  0.08520167  0.75819387
   0.24611402  0.91479835  0.24180615
   0.74611404  0.91479835  0.25819387
   0.25388596  0.08520167  0.74180613
   0.24611402  0.58520165  0.74180613
   0.75388596  0.41479835  0.25819387
   0.25388596  0.41479835  0.24180615
   0.74611404  0.58520165  0.75819387
Direct configuration=    17
   0.94363671  0.14688746  0.00253835
   0.05636327  0.85311254 -0.00253833
   0.55636329  0.85311254  0.50253832
   0.44363674  0.14688746  0.49746165