  32  32   0   0
  0.5760957E+01  0.4934311E-09  0.4934311E-09  0.8743465E-09  0.5000000E-15
  1.000000000000000E-004
  CAR 
 graphite                                
     20.74195767    -13.63858721  301      9.74949339      1.00000000
    -13.639  0.0000E+00  0.0000E+00
    -13.524  0.0000E+00  0.0000E+00
    -13.409  0.0000E+00  0.0000E+00
    -13.295  0.0000E+00  0.0000E+00
    -13.180  0.0000E+00  0.0000E+00
    -13.066  0.0000E+00  0.0000E+00
    -12.951  0.0000E+00  0.0000E+00
    -12.836  0.0000E+00  0.0000E+00
    -12.722  0.0000E+00  0.0000E+00
    -12.607  0.1543E-14  0.1768E-15
    -12.493  0.1023E-09  0.1173E-10
    -12.378  0.5342E-06  0.6123E-07
    -12.263  0.2484E-03  0.2853E-04
    -12.149  0.1462E-01  0.1704E-02
    -12.034  0.1741E+00  0.2166E-01
    -11.920  0.5696E+00  0.8693E-01
    -11.805  0.8347E+00  0.1826E+00
    -11.690  0.1151E+01  0.3145E+00
    -11.576  0.1186E+01  0.4505E+00
    -11.461  0.1555E+01  0.6287E+00
    -11.347  0.1711E+01  0.8247E+00
    -11.232  0.1282E+01  0.9716E+00
    -11.117  0.1956E+01  0.1196E+01
    -11.003  0.2553E+01  0.1488E+01
    -10.888  0.1884E+01  0.1704E+01
    -10.774  0.1642E+01  0.1892E+01
    -10.659  0.2562E+01  0.2186E+01
    -10.544  0.2408E+01  0.2462E+01
    -10.430  0.2677E+01  0.2769E+01
    -10.315  0.2884E+01  0.3099E+01
    -10.201  0.2581E+01  0.3395E+01
    -10.086  0.2610E+01  0.3694E+01
     -9.971  0.2451E+01  0.3975E+01
     -9.857  0.2788E+01  0.4295E+01
     -9.742  0.3690E+01  0.4718E+01
     -9.628  0.4342E+01  0.5215E+01
     -9.513  0.2871E+01  0.5544E+01
     -9.398  0.2105E+01  0.5785E+01
     -9.284  0.3064E+01  0.6137E+01
     -9.169  0.4040E+01  0.6600E+01
     -9.055  0.4320E+01  0.7095E+01
     -8.940  0.4374E+01  0.7596E+01
     -8.825  0.3660E+01  0.8015E+01
     -8.711  0.3350E+01  0.8399E+01
     -8.596  0.3414E+01  0.8791E+01
     -8.482  0.4169E+01  0.9268E+01
     -8.367  0.5121E+01  0.9855E+01
     -8.252  0.5229E+01  0.1045E+02
     -8.138  0.3830E+01  0.1089E+02
     -8.023  0.5002E+01  0.1147E+02
     -7.908  0.5554E+01  0.1210E+02
     -7.794  0.4650E+01  0.1264E+02
     -7.679  0.5258E+01  0.1324E+02
     -7.565  0.5147E+01  0.1383E+02
     -7.450  0.4122E+01  0.1430E+02
     -7.335  0.4855E+01  0.1486E+02
     -7.221  0.5170E+01  0.1545E+02
     -7.106  0.6205E+01  0.1616E+02
     -6.992  0.6721E+01  0.1693E+02
     -6.877  0.4578E+01  0.1746E+02
     -6.762  0.3801E+01  0.1789E+02
     -6.648  0.4101E+01  0.1836E+02
     -6.533  0.5300E+01  0.1897E+02
     -6.419  0.6262E+01  0.1969E+02
     -6.304  0.6803E+01  0.2047E+02
     -6.189  0.5503E+01  0.2110E+02
     -6.075  0.5595E+01  0.2174E+02
     -5.960  0.4583E+01  0.2226E+02
     -5.846  0.4628E+01  0.2279E+02
     -5.731  0.5059E+01  0.2337E+02
     -5.616  0.4311E+01  0.2387E+02
     -5.502  0.5827E+01  0.2454E+02
     -5.387  0.4964E+01  0.2510E+02
     -5.273  0.4550E+01  0.2563E+02
     -5.158  0.6566E+01  0.2638E+02
     -5.043  0.5711E+01  0.2703E+02
     -4.929  0.5673E+01  0.2768E+02
     -4.814  0.4998E+01  0.2826E+02
     -4.700  0.5956E+01  0.2894E+02
     -4.585  0.5465E+01  0.2956E+02
     -4.470  0.4307E+01  0.3006E+02
     -4.356  0.3053E+01  0.3041E+02
     -4.241  0.2787E+01  0.3073E+02
     -4.127  0.3283E+01  0.3110E+02
     -4.012  0.3349E+01  0.3149E+02
     -3.897  0.4995E+01  0.3206E+02
     -3.783  0.5671E+01  0.3271E+02
     -3.668  0.4641E+01  0.3324E+02
     -3.554  0.4837E+01  0.3380E+02
     -3.439  0.6213E+01  0.3451E+02
     -3.324  0.4417E+01  0.3501E+02
     -3.210  0.5423E+01  0.3564E+02
     -3.095  0.7332E+01  0.3648E+02
     -2.981  0.8359E+01  0.3743E+02
     -2.866  0.5055E+01  0.3801E+02
     -2.751  0.4451E+01  0.3852E+02
     -2.637  0.6333E+01  0.3925E+02
     -2.522  0.4880E+01  0.3981E+02
     -2.408  0.4908E+01  0.4037E+02
     -2.293  0.4628E+01  0.4090E+02
     -2.178  0.5735E+01  0.4156E+02
     -2.064  0.6446E+01  0.4230E+02
     -1.949  0.5368E+01  0.4291E+02
     -1.835  0.6494E+01  0.4366E+02
     -1.720  0.4830E+01  0.4421E+02
     -1.605  0.4881E+01  0.4477E+02
     -1.491  0.4810E+01  0.4532E+02
     -1.376  0.4372E+01  0.4582E+02
     -1.262  0.5557E+01  0.4646E+02
     -1.147  0.6272E+01  0.4718E+02
     -1.032  0.8231E+01  0.4812E+02
     -0.918  0.6811E+01  0.4890E+02
     -0.803  0.4200E+01  0.4938E+02
     -0.689  0.4740E+01  0.4993E+02
     -0.574  0.6671E+01  0.5069E+02
     -0.459  0.7588E+01  0.5156E+02
     -0.345  0.9023E+01  0.5259E+02
     -0.230  0.8905E+01  0.5361E+02
     -0.116  0.5570E+01  0.5425E+02
     -0.001  0.5614E+01  0.5490E+02
      0.114  0.6877E+01  0.5568E+02
      0.228  0.7323E+01  0.5652E+02
      0.343  0.8175E+01  0.5746E+02
      0.457  0.7924E+01  0.5837E+02
      0.572  0.7348E+01  0.5921E+02
      0.687  0.8903E+01  0.6023E+02
      0.801  0.9059E+01  0.6127E+02
      0.916  0.5272E+01  0.6187E+02
      1.030  0.6722E+01  0.6264E+02
      1.145  0.1017E+02  0.6381E+02
      1.260  0.7973E+01  0.6472E+02
      1.374  0.7551E+01  0.6559E+02
      1.489  0.1019E+02  0.6676E+02
      1.603  0.9683E+01  0.6787E+02
      1.718  0.7689E+01  0.6875E+02
      1.833  0.7978E+01  0.6966E+02
      1.947  0.8592E+01  0.7065E+02
      2.062  0.1230E+02  0.7205E+02
      2.176  0.1378E+02  0.7363E+02
      2.291  0.9343E+01  0.7471E+02
      2.406  0.9043E+01  0.7574E+02
      2.520  0.9830E+01  0.7687E+02
      2.635  0.1067E+02  0.7809E+02
      2.749  0.1195E+02  0.7946E+02
      2.864  0.1234E+02  0.8087E+02
      2.979  0.1372E+02  0.8245E+02
      3.093  0.1240E+02  0.8387E+02
      3.208  0.1102E+02  0.8513E+02
      3.322  0.8712E+01  0.8613E+02
      3.437  0.9501E+01  0.8722E+02
      3.552  0.1389E+02  0.8881E+02
      3.666  0.1408E+02  0.9042E+02
      3.781  0.1233E+02  0.9184E+02
      3.895  0.1086E+02  0.9308E+02
      4.010  0.8440E+01  0.9405E+02
      4.125  0.1058E+02  0.9526E+02
      4.239  0.7517E+01  0.9612E+02
      4.354  0.7421E+01  0.9697E+02
      4.468  0.8600E+01  0.9796E+02
      4.583  0.1097E+02  0.9921E+02
      4.698  0.1044E+02  0.1004E+03
      4.812  0.8747E+01  0.1014E+03
      4.927  0.6336E+01  0.1021E+03
      5.042  0.6408E+01  0.1029E+03
      5.156  0.6747E+01  0.1036E+03
      5.271  0.8120E+01  0.1046E+03
      5.385  0.9127E+01  0.1056E+03
      5.500  0.8251E+01  0.1066E+03
      5.615  0.5886E+01  0.1072E+03
      5.729  0.5069E+01  0.1078E+03
      5.844  0.7372E+01  0.1087E+03
      5.958  0.7361E+01  0.1095E+03
      6.073  0.5455E+01  0.1101E+03
      6.188  0.5222E+01  0.1107E+03
      6.302  0.5436E+01  0.1114E+03
      6.417  0.4712E+01  0.1119E+03
      6.531  0.3456E+01  0.1123E+03
      6.646  0.3495E+01  0.1127E+03
      6.761  0.4325E+01  0.1132E+03
      6.875  0.5024E+01  0.1138E+03
      6.990  0.3318E+01  0.1141E+03
      7.104  0.3056E+01  0.1145E+03
      7.219  0.1801E+01  0.1147E+03
      7.334  0.2712E+01  0.1150E+03
      7.448  0.5243E+01  0.1156E+03
      7.563  0.6242E+01  0.1163E+03
      7.677  0.5772E+01  0.1170E+03
      7.792  0.3225E+01  0.1174E+03
      7.907  0.2362E+01  0.1176E+03
      8.021  0.4333E+01  0.1181E+03
      8.136  0.8260E+01  0.1191E+03
      8.250  0.8024E+01  0.1200E+03
      8.365  0.5829E+01  0.1207E+03
      8.480  0.5611E+01  0.1213E+03
      8.594  0.5128E+01  0.1219E+03
      8.709  0.5312E+01  0.1225E+03
      8.823  0.7144E+01  0.1233E+03
      8.938  0.7243E+01  0.1242E+03
      9.053  0.4282E+01  0.1246E+03
      9.167  0.4741E+01  0.1252E+03
      9.282  0.3772E+01  0.1256E+03
      9.396  0.4287E+01  0.1261E+03
      9.511  0.6239E+01  0.1268E+03
      9.626  0.5865E+01  0.1275E+03
      9.740  0.4083E+01  0.1280E+03
      9.855  0.3115E+01  0.1283E+03
      9.969  0.1551E+01  0.1285E+03
     10.084  0.1142E+01  0.1286E+03
     10.199  0.1169E+01  0.1288E+03
     10.313  0.4180E+00  0.1288E+03
     10.428  0.4629E+00  0.1289E+03
     10.542  0.2774E+01  0.1292E+03
     10.657  0.3703E+01  0.1296E+03
     10.772  0.3178E+01  0.1300E+03
     10.886  0.2251E+01  0.1302E+03
     11.001  0.6021E+00  0.1303E+03
     11.115  0.8984E+00  0.1304E+03
     11.230  0.3675E+01  0.1308E+03
     11.345  0.6295E+01  0.1315E+03
     11.459  0.5798E+01  0.1322E+03
     11.574  0.5956E+01  0.1329E+03
     11.688  0.6896E+01  0.1337E+03
     11.803  0.4714E+01  0.1342E+03
     11.918  0.4093E+01  0.1347E+03
     12.032  0.4236E+01  0.1352E+03
     12.147  0.5299E+01  0.1358E+03
     12.261  0.6659E+01  0.1365E+03
     12.376  0.6092E+01  0.1372E+03
     12.491  0.5328E+01  0.1379E+03
     12.605  0.4469E+01  0.1384E+03
     12.720  0.3377E+01  0.1388E+03
     12.834  0.2997E+01  0.1391E+03
     12.949  0.4138E+01  0.1396E+03
     13.064  0.6499E+01  0.1403E+03
     13.178  0.6052E+01  0.1410E+03
     13.293  0.4029E+01  0.1415E+03
     13.407  0.3614E+01  0.1419E+03
     13.522  0.3318E+01  0.1423E+03
     13.637  0.3769E+01  0.1427E+03
     13.751  0.4991E+01  0.1433E+03
     13.866  0.3335E+01  0.1437E+03
     13.980  0.2119E+01  0.1439E+03
     14.095  0.2824E+01  0.1442E+03
     14.210  0.3357E+01  0.1446E+03
     14.324  0.4812E+01  0.1452E+03
     14.439  0.6361E+01  0.1459E+03
     14.553  0.6657E+01  0.1466E+03
     14.668  0.3730E+01  0.1471E+03
     14.783  0.5902E+01  0.1478E+03
     14.897  0.6219E+01  0.1485E+03
     15.012  0.5283E+01  0.1491E+03
     15.126  0.5426E+01  0.1497E+03
     15.241  0.6452E+01  0.1504E+03
     15.356  0.7014E+01  0.1512E+03
     15.470  0.4336E+01  0.1517E+03
     15.585  0.3774E+01  0.1522E+03
     15.699  0.6385E+01  0.1529E+03
     15.814  0.6463E+01  0.1536E+03
     15.929  0.4966E+01  0.1542E+03
     16.043  0.4946E+01  0.1548E+03
     16.158  0.6707E+01  0.1555E+03
     16.272  0.9455E+01  0.1566E+03
     16.387  0.5501E+01  0.1573E+03
     16.502  0.4885E+01  0.1578E+03
     16.616  0.5197E+01  0.1584E+03
     16.731  0.6904E+01  0.1592E+03
     16.845  0.8422E+01  0.1602E+03
     16.960  0.7089E+01  0.1610E+03
     17.075  0.5315E+01  0.1616E+03
     17.189  0.7664E+01  0.1625E+03
     17.304  0.7330E+01  0.1633E+03
     17.419  0.5271E+01  0.1639E+03
     17.533  0.5443E+01  0.1645E+03
     17.648  0.3482E+01  0.1649E+03
     17.762  0.3044E+01  0.1653E+03
     17.877  0.2939E+01  0.1656E+03
     17.992  0.3831E+01  0.1661E+03
     18.106  0.5221E+01  0.1667E+03
     18.221  0.3398E+01  0.1670E+03
     18.335  0.2600E+01  0.1673E+03
     18.450  0.1868E+01  0.1676E+03
     18.565  0.1607E+01  0.1677E+03
     18.679  0.8693E+00  0.1678E+03
     18.794  0.4060E+00  0.1679E+03
     18.908  0.4080E+00  0.1679E+03
     19.023  0.3116E+00  0.1680E+03
     19.138  0.1091E+00  0.1680E+03
     19.252  0.1168E+00  0.1680E+03
     19.367  0.2448E-01  0.1680E+03
     19.481  0.5672E-03  0.1680E+03
     19.596  0.1229E-05  0.1680E+03
     19.711  0.2246E-09  0.1680E+03
     19.825  0.3265E-14  0.1680E+03
     19.940  0.0000E+00  0.1680E+03
     20.054  0.0000E+00  0.1680E+03
     20.169  0.0000E+00  0.1680E+03
     20.284  0.0000E+00  0.1680E+03
     20.398  0.0000E+00  0.1680E+03
     20.513  0.0000E+00  0.1680E+03
     20.627  0.0000E+00  0.1680E+03
     20.742  0.0000E+00  0.1680E+03
