       N       E                     dE             d eps       ncg     rms          rms(c)
DAV:   1     0.556109399341E+03    0.55611E+03   -0.72743E+04 27384   0.161E+03
DAV:   2    -0.266277995903E+03   -0.82239E+03   -0.79195E+03 33864   0.310E+02
DAV:   3    -0.311344587025E+03   -0.45067E+02   -0.44610E+02 33348   0.723E+01
DAV:   4    -0.312151617487E+03   -0.80703E+00   -0.80570E+00 33960   0.105E+01
DAV:   5    -0.312175045398E+03   -0.23428E-01   -0.23418E-01 34188   0.170E+00    0.221E+01
DAV:   6    -0.298155486569E+03    0.14020E+02   -0.14447E+01 31296   0.106E+01    0.116E+01
DAV:   7    -0.293786924116E+03    0.43686E+01   -0.14707E+01 31176   0.108E+01    0.188E+00
DAV:   8    -0.293834638289E+03   -0.47714E-01   -0.33511E-01 30984   0.167E+00    0.235E-01
DAV:   9    -0.293836143135E+03   -0.15048E-02   -0.10766E-02 33480   0.347E-01    0.961E-02
DAV:  10    -0.293836745780E+03   -0.60265E-03   -0.95828E-04 32304   0.105E-01    0.497E-02
DAV:  11    -0.293836956533E+03   -0.21075E-03   -0.24543E-04 31872   0.557E-02    0.822E-03
DAV:  12    -0.293836959566E+03   -0.30325E-05   -0.32235E-05 33912   0.168E-02    0.456E-03
DAV:  13    -0.293836960363E+03   -0.79709E-06   -0.44229E-06 25368   0.685E-03
   1 F= -.29935292E+03 E0= -.29935292E+03  d E =0.000000E+00
