32   
4    

1    
  0.0036790314978478  -0.0000014314399268   0.0092986410398952
  -0.2400192500    0.0069972000   -0.1344785800
   0.0281646400    0.0058678400   -0.0032287300
  -0.0113540400   -0.0169519500   -0.0031605600
  -0.0114640200    0.0288322100   -0.0033897500
  -0.0102669100    0.0058644900    0.0030995900
  -0.0102259700    0.0058650200    0.0032068900
  -0.0102500400    0.0058507200    0.0032069100
  -0.0102496200    0.0058748400    0.0032068000
   0.0101536700   -0.0060105600   -0.0032840900
   0.0097228700   -0.0061228400   -0.0034491000
   0.0100398800   -0.0056979900   -0.0033651600
   0.0097672800   -0.0059544200   -0.0019087900
   0.0100388600   -0.0055581000   -0.0034538200
   0.0104428100   -0.0056478000   -0.0032967900
   0.0103163900   -0.0059560100   -0.0033796700
   0.0100660700   -0.0057285500   -0.0018043800
   0.0116550600   -0.0054319100    0.0122748900
   0.0409297600   -0.0061558100    0.0452339300
   0.0891149700    0.0222533700    0.0456869600
   0.0894692900   -0.0335213500    0.0447153100
   0.0094393300   -0.0054097900   -0.0004854700
   0.0094435300   -0.0054103300   -0.0004388400
   0.0094374300   -0.0054120200   -0.0004389000
   0.0094350100   -0.0054072700   -0.0004374400
  -0.0098056100    0.0057476400    0.0014765000
  -0.0085340700    0.0059568800    0.0015690800
  -0.0093462300    0.0047652400    0.0015203800
  -0.0090594100    0.0054904200    0.0001194300
  -0.0086711800    0.0048165600    0.0015844800
  -0.0098102000    0.0050308000    0.0014561900
  -0.0094280300    0.0059117800    0.0014967600
  -0.0091522900    0.0052517100    0.0001459900

1    
 -0.0036790314978478   0.0000014314399268  -0.0092986410398952
   0.2196272000    0.0069652500    0.1344446900
  -0.0485850800    0.0058094800    0.0032118600
  -0.0089383600    0.0287351300    0.0032786000
  -0.0090419700   -0.0170783000    0.0032390200
  -0.0101733600    0.0059193200   -0.0030261000
  -0.0102112100    0.0059209100   -0.0031334700
  -0.0101929900    0.0059322900   -0.0031333100
  -0.0101885600    0.0059041200   -0.0031336500
   0.0100111400   -0.0060290300    0.0032914500
   0.0104046000   -0.0059204000    0.0034516700
   0.0101219500   -0.0063318600    0.0033670800
   0.0103717500   -0.0060808900    0.0017993800
   0.0106950100   -0.0060333600    0.0033968400
   0.0102887200   -0.0059371800    0.0032348000
   0.0104106400   -0.0056138900    0.0033191500
   0.0106602100   -0.0058481500    0.0018576000
   0.0071207100   -0.0053827200   -0.0123262400
  -0.0221442200   -0.0059041700   -0.0452835500
  -0.0708968200   -0.0335283900   -0.0448179400
  -0.0701338900    0.0222512000   -0.0456801900
   0.0093778700   -0.0054393600    0.0005393700
   0.0093751200   -0.0054420600    0.0004897600
   0.0093818300   -0.0054351400    0.0004899500
   0.0093781000   -0.0054454700    0.0004888900
  -0.0089906100    0.0053863600   -0.0014477500
  -0.0101406000    0.0051943900   -0.0015270200
  -0.0093912500    0.0062676300   -0.0014888700
  -0.0096687500    0.0056272100   -0.0001182300
  -0.0102799500    0.0058549200   -0.0016292800
  -0.0090288900    0.0056431200   -0.0014804000
  -0.0094695800    0.0046607800   -0.0015278500
  -0.0097487800    0.0053782500   -0.0001462700

17   
  0.0036790314978478  -0.0000014314399268   0.0092986410398952
  -0.0077809700    0.0057110100    0.0098633100
   0.0214426500    0.0062487500    0.0428183900
   0.0702105000    0.0338561500    0.0423446200
   0.0694630800   -0.0219434700    0.0432218900
  -0.0093354000    0.0057829900   -0.0029586900
  -0.0093294500    0.0057829100   -0.0029115300
  -0.0093363700    0.0057786500   -0.0029127300
  -0.0093363100    0.0057871400   -0.0029092800
   0.0105356500   -0.0062832700    0.0037308800
   0.0108403600   -0.0060984800    0.0041815900
   0.0105330500   -0.0064156000    0.0039457700
   0.0107884300   -0.0062632800    0.0025572400
   0.0109141100   -0.0062031400    0.0042104200
   0.0106332700   -0.0059589300    0.0037110100
   0.0105675500   -0.0058769200    0.0039453700
   0.0108755500   -0.0060165600    0.0025819500
  -0.2208190700   -0.0062689100   -0.1367056000
   0.0469623900   -0.0051129600   -0.0067669800
   0.0086501200   -0.0272658700   -0.0068292300
   0.0087568100    0.0170152600   -0.0068195600
   0.0084723000   -0.0052944300    0.0006225300
   0.0084478400   -0.0052946800    0.0003547600
   0.0084548300   -0.0052915200    0.0003546800
   0.0084548800   -0.0052987400    0.0003553900
  -0.0101417100    0.0059002600    0.0001098700
  -0.0097202400    0.0058295300    0.0002532300
  -0.0098657200    0.0055062200    0.0001700600
  -0.0100591000    0.0057336400   -0.0005417500
  -0.0095797800    0.0054014000    0.0002873000
  -0.0100128300    0.0053225700    0.0000921200
  -0.0097242700    0.0057310300    0.0001759500
  -0.0099621400    0.0054992300   -0.0005329700

17   
 -0.0036790314978478   0.0000014314399268  -0.0092986410398952
  -0.0123835100    0.0058922000   -0.0096788700
  -0.0415989600    0.0066141500   -0.0426351300
  -0.0898198600   -0.0218116800   -0.0430945700
  -0.0901595600    0.0339869000   -0.0421113300
  -0.0103795900    0.0058588400    0.0031515000
  -0.0103859500    0.0058600100    0.0031042700
  -0.0103792800    0.0058627300    0.0031031000
  -0.0103779900    0.0058546100    0.0031042600
   0.0102409000   -0.0060113100   -0.0039123700
   0.0099499100   -0.0061851800   -0.0043585300
   0.0102409100   -0.0058790700   -0.0041241400
   0.0099835400   -0.0060273200   -0.0027630300
   0.0099976000   -0.0055561200   -0.0044103000
   0.0102867600   -0.0058144400   -0.0039118000
   0.0103616900   -0.0059014200   -0.0041467100
   0.0100552300   -0.0057536500   -0.0027542800
   0.2393869600   -0.0065961600    0.1366914100
  -0.0284222500   -0.0054603700    0.0067227600
   0.0098007500    0.0166142200    0.0066589700
   0.0099078400   -0.0276853400    0.0069023700
   0.0096153500   -0.0054064900   -0.0006390000
   0.0096406700   -0.0054059400   -0.0003703700
   0.0096340300   -0.0054105000   -0.0003705100
   0.0096335800   -0.0054015400   -0.0003708800
  -0.0092309900    0.0054462400   -0.0000712400
  -0.0096544300    0.0055330300   -0.0002234300
  -0.0095225800    0.0058520900   -0.0001408800
  -0.0093221600    0.0056212000    0.0005555600
  -0.0095206500    0.0054252400   -0.0002581900
  -0.0090904200    0.0054807600   -0.0000715300
  -0.0093576500    0.0050866400   -0.0001526300
  -0.0091299000    0.0053177000    0.0005755400
