  32  32   0   0
  0.9079817E+01  0.4932875E-09  0.4932875E-09  0.1379404E-08  0.5000000E-15
  1.000000000000000E-004
  CAR 
 graphite                                
     15.24942712    -17.16708435  301      4.43840975      1.00000000
    -17.167  0.0000E+00  0.0000E+00
    -17.059  0.0000E+00  0.0000E+00
    -16.951  0.0000E+00  0.0000E+00
    -16.843  0.0000E+00  0.0000E+00
    -16.735  0.0000E+00  0.0000E+00
    -16.627  0.0000E+00  0.0000E+00
    -16.519  0.0000E+00  0.0000E+00
    -16.411  0.0000E+00  0.0000E+00
    -16.303  0.0000E+00  0.0000E+00
    -16.195  0.0000E+00  0.0000E+00
    -16.087  0.0000E+00  0.0000E+00
    -15.978  0.0000E+00  0.0000E+00
    -15.870  0.0000E+00  0.0000E+00
    -15.762  0.0000E+00  0.0000E+00
    -15.654  0.0000E+00  0.0000E+00
    -15.546  0.0000E+00  0.0000E+00
    -15.438  0.0000E+00  0.0000E+00
    -15.330  0.0000E+00  0.0000E+00
    -15.222  0.0000E+00  0.0000E+00
    -15.114  0.1171E+01  0.2400E-01
    -15.006  0.2712E+01  0.2459E+00
    -14.898  0.4887E+01  0.6451E+00
    -14.790  0.4875E+01  0.1173E+01
    -14.682  0.4947E+01  0.1709E+01
    -14.574  0.4938E+01  0.2241E+01
    -14.466  0.4948E+01  0.2776E+01
    -14.358  0.4908E+01  0.3306E+01
    -14.250  0.5001E+01  0.3842E+01
    -14.142  0.4989E+01  0.4381E+01
    -14.033  0.4974E+01  0.4920E+01
    -13.925  0.5671E+01  0.5491E+01
    -13.817  0.5956E+01  0.6121E+01
    -13.709  0.6638E+01  0.6830E+01
    -13.601  0.4628E+01  0.7416E+01
    -13.493  0.1748E+01  0.7743E+01
    -13.385  0.3620E+01  0.8005E+01
    -13.277  0.4395E+01  0.8469E+01
    -13.169  0.4570E+01  0.8957E+01
    -13.061  0.6220E+01  0.9708E+01
    -12.953  0.6401E+01  0.1044E+02
    -12.845  0.4357E+01  0.1094E+02
    -12.737  0.4515E+01  0.1142E+02
    -12.629  0.4633E+01  0.1192E+02
    -12.521  0.4746E+01  0.1242E+02
    -12.413  0.5219E+01  0.1296E+02
    -12.305  0.5784E+01  0.1355E+02
    -12.197  0.5535E+01  0.1418E+02
    -12.088  0.5559E+01  0.1477E+02
    -11.980  0.5142E+01  0.1535E+02
    -11.872  0.4807E+01  0.1589E+02
    -11.764  0.4913E+01  0.1641E+02
    -11.656  0.5003E+01  0.1695E+02
    -11.548  0.5060E+01  0.1749E+02
    -11.440  0.5165E+01  0.1804E+02
    -11.332  0.5505E+01  0.1862E+02
    -11.224  0.5867E+01  0.1924E+02
    -11.116  0.5750E+01  0.1987E+02
    -11.008  0.5696E+01  0.2048E+02
    -10.900  0.5773E+01  0.2110E+02
    -10.792  0.5313E+01  0.2172E+02
    -10.684  0.4645E+01  0.2224E+02
    -10.576  0.5253E+01  0.2278E+02
    -10.468  0.5339E+01  0.2336E+02
    -10.360  0.5453E+01  0.2394E+02
    -10.252  0.5658E+01  0.2454E+02
    -10.144  0.5899E+01  0.2516E+02
    -10.035  0.7411E+01  0.2587E+02
     -9.927  0.1022E+02  0.2685E+02
     -9.819  0.6859E+01  0.2777E+02
     -9.711  0.5894E+01  0.2840E+02
     -9.603  0.6212E+01  0.2913E+02
     -9.495  0.3610E+01  0.2964E+02
     -9.387  0.3241E+01  0.3001E+02
     -9.279  0.2872E+01  0.3034E+02
     -9.171  0.2503E+01  0.3063E+02
     -9.063  0.2367E+01  0.3088E+02
     -8.955  0.3239E+01  0.3120E+02
     -8.847  0.1864E+01  0.3148E+02
     -8.739  0.1576E+01  0.3164E+02
     -8.631  0.2478E+01  0.3186E+02
     -8.523  0.6401E+01  0.3226E+02
     -8.415  0.4483E+01  0.3302E+02
     -8.307  0.3899E+01  0.3346E+02
     -8.199  0.4225E+01  0.3390E+02
     -8.090  0.6966E+01  0.3451E+02
     -7.982  0.6214E+01  0.3529E+02
     -7.874  0.7286E+01  0.3602E+02
     -7.766  0.8367E+01  0.3687E+02
     -7.658  0.8291E+01  0.3782E+02
     -7.550  0.6305E+01  0.3858E+02
     -7.442  0.6046E+01  0.3924E+02
     -7.334  0.5789E+01  0.3988E+02
     -7.226  0.5554E+01  0.4050E+02
     -7.118  0.5363E+01  0.4108E+02
     -7.010  0.5182E+01  0.4165E+02
     -6.902  0.4989E+01  0.4220E+02
     -6.794  0.4851E+01  0.4273E+02
     -6.686  0.4823E+01  0.4326E+02
     -6.578  0.4793E+01  0.4378E+02
     -6.470  0.4652E+01  0.4429E+02
     -6.362  0.4425E+01  0.4478E+02
     -6.254  0.4371E+01  0.4526E+02
     -6.145  0.4048E+01  0.4567E+02
     -6.037  0.4253E+01  0.4611E+02
     -5.929  0.4880E+01  0.4660E+02
     -5.821  0.5686E+01  0.4717E+02
     -5.713  0.6465E+01  0.4783E+02
     -5.605  0.1054E+02  0.4871E+02
     -5.497  0.8764E+01  0.4978E+02
     -5.389  0.6505E+01  0.5061E+02
     -5.281  0.4246E+01  0.5119E+02
     -5.173  0.2662E+01  0.5154E+02
     -5.065  0.2972E+01  0.5183E+02
     -4.957  0.4184E+01  0.5222E+02
     -4.849  0.5501E+01  0.5274E+02
     -4.741  0.7042E+01  0.5341E+02
     -4.633  0.8101E+01  0.5426E+02
     -4.525  0.6919E+01  0.5507E+02
     -4.417  0.5699E+01  0.5575E+02
     -4.309  0.6931E+01  0.5638E+02
     -4.200  0.7316E+01  0.5719E+02
     -4.092  0.6801E+01  0.5796E+02
     -3.984  0.6286E+01  0.5866E+02
     -3.876  0.6212E+01  0.5933E+02
     -3.768  0.6545E+01  0.6000E+02
     -3.660  0.1261E+02  0.6106E+02
     -3.552  0.9145E+01  0.6220E+02
     -3.444  0.7964E+01  0.6313E+02
     -3.336  0.6976E+01  0.6393E+02
     -3.228  0.6776E+01  0.6467E+02
     -3.120  0.7483E+01  0.6543E+02
     -3.012  0.8545E+01  0.6630E+02
     -2.904  0.1021E+02  0.6729E+02
     -2.796  0.1444E+02  0.6861E+02
     -2.688  0.1283E+02  0.7017E+02
     -2.580  0.1208E+02  0.7146E+02
     -2.472  0.1295E+02  0.7284E+02
     -2.364  0.1412E+02  0.7422E+02
     -2.255  0.1360E+02  0.7579E+02
     -2.147  0.1684E+02  0.7723E+02
     -2.039  0.1276E+02  0.7907E+02
     -1.931  0.1356E+02  0.8035E+02
     -1.823  0.1640E+02  0.8242E+02
     -1.715  0.1800E+02  0.8435E+02
     -1.607  0.1539E+02  0.8622E+02
     -1.499  0.1173E+02  0.8769E+02
     -1.391  0.9986E+01  0.8885E+02
     -1.283  0.9403E+01  0.8987E+02
     -1.175  0.7958E+01  0.9084E+02
     -1.067  0.1078E+02  0.9183E+02
     -0.959  0.1300E+02  0.9317E+02
     -0.851  0.1543E+02  0.9460E+02
     -0.743  0.9150E+01  0.9607E+02
     -0.635  0.1005E+02  0.9712E+02
     -0.527  0.1087E+02  0.9826E+02
     -0.419  0.1040E+02  0.9938E+02
     -0.310  0.1120E+02  0.1005E+03
     -0.202  0.9415E+01  0.1016E+03
     -0.094  0.1000E+02  0.1026E+03
      0.014  0.9676E+01  0.1037E+03
      0.122  0.9584E+01  0.1048E+03
      0.230  0.9258E+01  0.1058E+03
      0.338  0.9169E+01  0.1068E+03
      0.446  0.9491E+01  0.1078E+03
      0.554  0.9423E+01  0.1088E+03
      0.662  0.9401E+01  0.1098E+03
      0.770  0.9205E+01  0.1108E+03
      0.878  0.9104E+01  0.1118E+03
      0.986  0.9435E+01  0.1128E+03
      1.094  0.9533E+01  0.1139E+03
      1.202  0.9910E+01  0.1149E+03
      1.310  0.1024E+02  0.1160E+03
      1.418  0.7552E+01  0.1170E+03
      1.526  0.6577E+01  0.1177E+03
      1.634  0.5778E+01  0.1184E+03
      1.743  0.4894E+01  0.1190E+03
      1.851  0.3865E+01  0.1194E+03
      1.959  0.3763E+01  0.1198E+03
      2.067  0.6349E+01  0.1204E+03
      2.175  0.9787E+01  0.1212E+03
      2.283  0.5381E+01  0.1221E+03
      2.391  0.9363E+01  0.1230E+03
      2.499  0.6402E+01  0.1238E+03
      2.607  0.5101E+01  0.1245E+03
      2.715  0.4340E+01  0.1250E+03
      2.823  0.3693E+01  0.1254E+03
      2.931  0.3261E+01  0.1258E+03
      3.039  0.3104E+01  0.1261E+03
      3.147  0.2878E+01  0.1264E+03
      3.255  0.2426E+01  0.1267E+03
      3.363  0.2077E+01  0.1270E+03
      3.471  0.1847E+01  0.1272E+03
      3.579  0.1611E+01  0.1274E+03
      3.688  0.1371E+01  0.1275E+03
      3.796  0.1137E+01  0.1277E+03
      3.904  0.9129E+00  0.1278E+03
      4.012  0.6909E+00  0.1279E+03
      4.120  0.4946E+00  0.1279E+03
      4.228  0.3135E+00  0.1280E+03
      4.336  0.1452E+00  0.1280E+03
      4.444  0.4934E-03  0.1280E+03
      4.552  0.1165E+00  0.1280E+03
      4.660  0.2484E+00  0.1280E+03
      4.768  0.3954E+00  0.1281E+03
      4.876  0.5601E+00  0.1281E+03
      4.984  0.7529E+00  0.1282E+03
      5.092  0.9995E+00  0.1283E+03
      5.200  0.1360E+01  0.1284E+03
      5.308  0.1739E+01  0.1286E+03
      5.416  0.2088E+01  0.1288E+03
      5.524  0.2489E+01  0.1290E+03
      5.633  0.2932E+01  0.1293E+03
      5.741  0.3312E+01  0.1296E+03
      5.849  0.4231E+01  0.1301E+03
      5.957  0.6659E+01  0.1307E+03
      6.065  0.7963E+01  0.1317E+03
      6.173  0.8456E+01  0.1326E+03
      6.281  0.8152E+01  0.1335E+03
      6.389  0.7364E+01  0.1344E+03
      6.497  0.6402E+01  0.1351E+03
      6.605  0.6182E+01  0.1358E+03
      6.713  0.5616E+01  0.1364E+03
      6.821  0.5060E+01  0.1370E+03
      6.929  0.4512E+01  0.1375E+03
      7.037  0.3760E+01  0.1380E+03
      7.145  0.3594E+01  0.1383E+03
      7.253  0.3844E+01  0.1387E+03
      7.361  0.4380E+01  0.1392E+03
      7.469  0.4677E+01  0.1397E+03
      7.578  0.4653E+01  0.1402E+03
      7.686  0.4496E+01  0.1407E+03
      7.794  0.4348E+01  0.1412E+03
      7.902  0.4191E+01  0.1416E+03
      8.010  0.4040E+01  0.1421E+03
      8.118  0.3868E+01  0.1425E+03
      8.226  0.3717E+01  0.1429E+03
      8.334  0.3593E+01  0.1433E+03
      8.442  0.3512E+01  0.1437E+03
      8.550  0.3452E+01  0.1441E+03
      8.658  0.3662E+01  0.1444E+03
      8.766  0.3835E+01  0.1449E+03
      8.874  0.3921E+01  0.1453E+03
      8.982  0.4074E+01  0.1457E+03
      9.090  0.4175E+01  0.1461E+03
      9.198  0.4261E+01  0.1466E+03
      9.306  0.4260E+01  0.1471E+03
      9.414  0.4061E+01  0.1475E+03
      9.523  0.4031E+01  0.1479E+03
      9.631  0.4005E+01  0.1484E+03
      9.739  0.4028E+01  0.1488E+03
      9.847  0.4067E+01  0.1493E+03
      9.955  0.4175E+01  0.1497E+03
     10.063  0.4344E+01  0.1502E+03
     10.171  0.4416E+01  0.1506E+03
     10.279  0.4564E+01  0.1511E+03
     10.387  0.5390E+01  0.1516E+03
     10.495  0.5243E+01  0.1523E+03
     10.603  0.5798E+01  0.1528E+03
     10.711  0.4622E+01  0.1533E+03
     10.819  0.4378E+01  0.1538E+03
     10.927  0.3783E+01  0.1544E+03
     11.035  0.3980E+01  0.1548E+03
     11.143  0.3987E+01  0.1552E+03
     11.251  0.3867E+01  0.1556E+03
     11.359  0.2941E+01  0.1560E+03
     11.468  0.2774E+01  0.1563E+03
     11.576  0.4246E+01  0.1567E+03
     11.684  0.4793E+01  0.1572E+03
     11.792  0.6653E+01  0.1578E+03
     11.900  0.1023E+02  0.1587E+03
     12.008  0.1189E+02  0.1599E+03
     12.116  0.1344E+02  0.1614E+03
     12.224  0.1364E+02  0.1628E+03
     12.332  0.1124E+02  0.1642E+03
     12.440  0.8672E+01  0.1653E+03
     12.548  0.6394E+01  0.1661E+03
     12.656  0.5409E+01  0.1667E+03
     12.764  0.4442E+01  0.1673E+03
     12.872  0.2608E+01  0.1676E+03
     12.980  0.1563E+01  0.1679E+03
     13.088  0.5532E+00  0.1680E+03
     13.196  0.1434E-01  0.1680E+03
     13.304  0.0000E+00  0.1680E+03
     13.412  0.0000E+00  0.1680E+03
     13.521  0.0000E+00  0.1680E+03
     13.629  0.0000E+00  0.1680E+03
     13.737  0.0000E+00  0.1680E+03
     13.845  0.0000E+00  0.1680E+03
     13.953  0.0000E+00  0.1680E+03
     14.061  0.0000E+00  0.1680E+03
     14.169  0.0000E+00  0.1680E+03
     14.277  0.0000E+00  0.1680E+03
     14.385  0.0000E+00  0.1680E+03
     14.493  0.0000E+00  0.1680E+03
     14.601  0.0000E+00  0.1680E+03
     14.709  0.0000E+00  0.1680E+03
     14.817  0.0000E+00  0.1680E+03
     14.925  0.0000E+00  0.1680E+03
     15.033  0.0000E+00  0.1680E+03
     15.141  0.0000E+00  0.1680E+03
     15.249  0.0000E+00  0.1680E+03
