   32   32    1    1
  0.9079817E+01  0.4932875E-09  0.4932875E-09  0.1379404E-08  0.5000000E-15
  1.000000000000000E-004
  CAR 
 graphite                                
    128    163     84
 
  0.0000000E+00  0.0000000E+00  0.0000000E+00  0.3086420E-02
    1      -15.167084
    2      -15.050064
    3      -15.049023
    4      -14.925295
    5       -9.858779
    6       -9.850427
    7       -9.847342
    8       -9.811742
    9       -9.811396
   10       -9.803842
   11       -9.799729
   12       -9.799725
   13       -9.798345
   14       -9.770643
   15       -9.759889
   16       -9.757468
   17       -8.791069
   18       -8.787491
   19       -8.785862
   20       -8.766005
   21       -8.761732
   22       -8.760358
   23       -8.759101
   24       -8.759097
   25       -8.756283
   26       -8.724081
   27       -8.719553
   28       -8.717057
   29       -3.950030
   30       -3.176654
   31       -3.174959
   32       -2.245025
   33       -1.963862
   34       -1.961036
   35       -1.944558
   36       -1.942101
   37       -1.939842
   38       -1.939838
   39       -1.939319
   40       -1.921140
   41       -1.921079
   42       -1.920136
   43       -1.917597
   44       -1.899021
   45        1.421894
   46        1.432375
   47        1.436867
   48        1.442076
   49        1.447075
   50        1.453024
   51        1.455946
   52        1.465586
   53        1.744672
   54        1.745780
   55        1.747834
   56        2.082199
   57        2.083307
   58        2.085719
   59        2.089799
   60        2.089820
   61        2.090525
   62        2.327368
   63        2.340506
   64        2.342354
   65        5.947487
   66        5.949359
   67        5.949872
   68        6.091991
   69        6.098166
   70        6.102222
   71        6.103474
   72        6.103841
   73        6.108912
   74        6.545271
   75        6.558297
   76        6.561361
   77        8.527568
   78       10.953733
   79       10.956808
   80       11.669534
   81       11.673837
   82       11.707104
   83       11.831115
   84       11.837697
 
  0.1111111E+00  0.0000000E+00  0.0000000E+00  0.6172840E-02
    1      -15.093487
    2      -14.976993
    3      -14.975956
    4      -14.852815
    5      -10.639208
    6      -10.557043
    7      -10.555788
    8      -10.471036
    9      -10.102915
   10      -10.094585
   11      -10.032453
   12      -10.031543
   13      -10.023247
   14      -10.022768
   15       -9.960516
   16       -9.951345
   17       -8.480447
   18       -8.473916
   19       -8.424995
   20       -8.421462
   21       -8.416750
   22       -8.415974
   23       -8.360940
   24       -8.353965
   25       -7.958823
   26       -7.894610
   27       -7.893659
   28       -7.826783
   29       -3.860786
   30       -3.089593
   31       -3.087897
   32       -2.187923
   33       -2.168783
   34       -2.164498
   35       -2.163663
   36       -2.160869
   37       -2.145326
   38       -2.144214
   39       -2.139779
   40       -2.120470
   41       -1.890531
   42       -1.871021
   43       -1.867595
   44       -1.847924
   45        1.141582
   46        1.150621
   47        1.152566
   48        1.160853
   49        1.172293
   50        1.270525
   51        1.280002
   52        1.284641
   53        1.291672
   54        1.633705
   55        1.636358
   56        1.660345
   57        1.663010
   58        2.030529
   59        2.031506
   60        2.037265
   61        2.037779
   62        2.153610
   63        2.366926
   64        2.379035
   65        6.034305
   66        6.035985
   67        6.223291
   68        6.229267
   69        6.233646
   70        6.235801
   71        6.350757
   72        6.643920
   73        6.647395
   74        6.680176
   75        6.691893
   76        7.150420
   77        8.617421
   78       11.034106
   79       11.037172
   80       11.711402
   81       11.865348
   82       11.867640
   83       12.005647
   84       12.033659
 
  0.2222222E+00  0.0000000E+00  0.0000000E+00  0.6172840E-02
    1      -14.873113
    2      -14.758121
    3      -14.757093
    4      -14.635703
    5      -11.648654
    6      -11.556542
    7      -11.555556
    8      -11.459766
    9      -10.448097
   10      -10.442349
   11      -10.367804
   12      -10.366412
   13      -10.361190
   14      -10.360701
   15      -10.283199
   16      -10.277158
   17       -7.798173
   18       -7.788904
   19       -7.737246
   20       -7.734085
   21       -7.726743
   22       -7.725830
   23       -7.670362
   24       -7.661082
   25       -6.633966
   26       -6.574217
   27       -6.573403
   28       -6.511706
   29       -3.593866
   30       -2.829239
   31       -2.827529
   32       -2.793423
   33       -2.775205
   34       -2.764480
   35       -2.763563
   36       -2.746341
   37       -2.744931
   38       -2.733854
   39       -2.715458
   40       -1.909895
   41       -1.675743
   42       -1.656582
   43       -1.653020
   44       -1.633833
   45        0.159988
   46        0.317070
   47        0.332295
   48        0.335432
   49        0.351399
   50        0.771185
   51        0.773274
   52        0.851783
   53        0.863512
   54        0.868530
   55        0.878887
   56        1.420609
   57        1.423786
   58        1.461337
   59        1.909637
   60        1.910117
   61        1.914883
   62        1.915832
   63        2.398902
   64        2.407221
   65        6.298474
   66        6.302635
   67        6.557640
   68        6.563251
   69        6.567454
   70        6.569471
   71        6.992121
   72        7.000438
   73        7.502696
   74        7.866204
   75        7.869035
   76        8.362359
   77        8.887623
   78       11.274472
   79       11.277523
   80       11.824919
   81       11.973817
   82       11.976132
   83       12.104939
   84       12.888037
 
  0.3333333E+00  0.2775558E-16  0.0000000E+00  0.6172840E-02
    1      -14.507074
    2      -14.394614
    3      -14.393600
    4      -14.275088
    5      -12.560553
    6      -12.461843
    7      -12.460898
    8      -12.357475
    9      -10.703751
   10      -10.700127
   11      -10.619828
   12      -10.618075
   13      -10.615118
   14      -10.614771
   15      -10.530792
   16      -10.527063
   17       -6.991164
   18       -6.980463
   19       -6.935297
   20       -6.932012
   21       -6.923568
   22       -6.922349
   23       -6.874424
   24       -6.863955
   25       -5.201772
   26       -5.150226
   27       -5.149229
   28       -5.096405
   29       -3.607681
   30       -3.591782
   31       -3.573113
   32       -3.572544
   33       -3.557520
   34       -3.555940
   35       -3.536865
   36       -3.520712
   37       -3.151997
   38       -2.398926
   39       -2.397204
   40       -1.495906
   41       -1.326777
   42       -1.308659
   43       -1.304888
   44       -1.286424
   45       -0.867420
   46       -0.855981
   47       -0.842906
   48       -0.839333
   49       -0.816082
   50       -0.182532
   51       -0.180689
   52        0.290169
   53        0.304092
   54        0.308842
   55        0.322223
   56        0.603497
   57        1.234786
   58        1.237504
   59        1.785670
   60        1.786246
   61        1.789384
   62        1.790883
   63        2.385285
   64        2.390374
   65        6.667883
   66        6.673252
   67        6.949135
   68        6.954338
   69        6.957341
   70        6.959110
   71        7.310513
   72        7.315348
   73        9.010936
   74        9.333499
   75        9.344345
   76        9.350180
   77        9.777877
   78       11.662540
   79       11.665703
   80       11.682864
   81       12.057650
   82       12.137537
   83       12.140054
   84       12.384756
 
  0.4444444E+00  0.0000000E+00  0.0000000E+00  0.6172840E-02
    1      -13.997188
    2      -13.888311
    3      -13.887303
    4      -13.772802
    5      -13.346569
    6      -13.242306
    7      -13.241364
    8      -13.131941
    9      -10.835436
   10      -10.833429
   11      -10.750465
   12      -10.748171
   13      -10.747145
   14      -10.746824
   15      -10.659301
   16      -10.657274
   17       -6.244006
   18       -6.236063
   19       -6.204501
   20       -6.200531
   21       -6.195916
   22       -6.193777
   23       -6.161040
   24       -6.154007
   25       -4.356483
   26       -4.347737
   27       -4.327801
   28       -4.327204
   29       -4.319198
   30       -4.317164
   31       -4.295515
   32       -4.285886
   33       -3.722389
   34       -3.680154
   35       -3.678768
   36       -3.635564
   37       -2.540410
   38       -2.251765
   39       -2.218949
   40       -2.217075
   41       -2.183328
   42       -1.804358
   43       -1.802663
   44       -1.768518
   45       -1.058306
   46       -1.056547
   47       -0.926502
   48       -0.860995
   49       -0.843680
   50       -0.839594
   51       -0.822346
   52       -0.306078
   53       -0.290231
   54       -0.285927
   55       -0.270112
   56       -0.216603
   57        1.131611
   58        1.133653
   59        1.710959
   60        1.712319
   61        1.713426
   62        1.715671
   63        2.363373
   64        2.366082
   65        6.957366
   66        6.961003
   67        7.216761
   68        7.221953
   69        7.222556
   70        7.223811
   71        7.492757
   72        7.495449
   73        9.966863
   74       10.628785
   75       10.766192
   76       10.880036
   77       10.883775
   78       11.244263
   79       12.046279
   80       12.055525
   81       12.214365
   82       12.273147
   83       12.310073
   84       12.312939
 
  0.0000000E+00  0.1111111E+00  0.0000000E+00  0.6172840E-02
    1      -15.093489
    2      -14.976996
    3      -14.975956
    4      -14.852817
    5      -10.639129
    6      -10.556876
    7      -10.555785
    8      -10.470945
    9      -10.102903
   10      -10.094885
   11      -10.032446
   12      -10.031542
   13      -10.023847
   14      -10.022783
   15       -9.960487
   16       -9.951705
   17       -8.480573
   18       -8.472719
   19       -8.425279
   20       -8.421462
   21       -8.415983
   22       -8.414144
   23       -8.361025
   24       -8.352632
   25       -7.959737
   26       -7.895540
   27       -7.894591
   28       -7.827732
   29       -3.860781
   30       -3.089586
   31       -3.087894
   32       -2.189244
   33       -2.168599
   34       -2.166905
   35       -2.163665
   36       -2.160864
   37       -2.145326
   38       -2.144073
   39       -2.141215
   40       -2.120633
   41       -1.889040
   42       -1.868525
   43       -1.867594
   44       -1.846829
   45        1.139060
   46        1.147534
   47        1.150621
   48        1.158749
   49        1.171343
   50        1.275694
   51        1.284603
   52        1.284642
   53        1.293503
   54        1.633505
   55        1.635297
   56        1.662197
   57        1.663120
   58        2.030513
   59        2.031513
   60        2.035016
   61        2.037578
   62        2.154678
   63        2.366945
   64        2.377858
   65        6.034784
   66        6.037321
   67        6.223707
   68        6.229224
   69        6.234612
   70        6.238562
   71        6.349031
   72        6.642589
   73        6.645248
   74        6.680331
   75        6.693954
   76        7.148652
   77        8.617426
   78       11.034126
   79       11.037191
   80       11.711881
   81       11.866394
   82       11.867714
   83       12.009630
   84       12.030579
 
  0.1111111E+00  0.1111111E+00  0.0000000E+00  0.6172840E-02
    1      -14.946408
    2      -14.830900
    3      -14.829869
    4      -14.707895
    5      -11.103720
    6      -11.100764
    7      -11.017649
    8      -11.013696
    9      -11.013675
   10      -11.011757
   11      -10.924074
   12      -10.921117
   13       -9.669649
   14       -9.623464
   15       -9.623026
   16       -9.583404
   17       -8.607041
   18       -8.582724
   19       -8.578767
   20       -8.542944
   21       -7.276825
   22       -7.273742
   23       -7.215752
   24       -7.212446
   25       -7.212425
   26       -7.209413
   27       -7.148884
   28       -7.145589
   29       -3.682582
   30       -2.915760
   31       -2.914058
   32       -2.850466
   33       -2.821287
   34       -2.820060
   35       -2.790306
   36       -2.044767
   37       -2.041753
   38       -2.023331
   39       -2.018694
   40       -2.018690
   41       -2.018252
   42       -1.997207
   43       -1.994933
   44       -1.993216
   45        0.612974
   46        0.621847
   47        0.624730
   48        0.634609
   49        0.740091
   50        0.742858
   51        0.955241
   52        0.964431
   53        0.968815
   54        0.975239
   55        1.300322
   56        1.304006
   57        1.304101
   58        1.305201
   59        1.910790
   60        1.913083
   61        2.013021
   62        2.348294
   63        2.350021
   64        2.589501
   65        5.925176
   66        6.019651
   67        6.025086
   68        6.385555
   69        6.845194
   70        6.847533
   71        7.184371
   72        7.186366
   73        7.187019
   74        7.190758
   75        7.676820
   76        7.679463
   77        8.797753
   78       11.195441
   79       11.198495
   80       12.082659
   81       12.086651
   82       12.236260
   83       12.240859
   84       12.243582
 
  0.2222222E+00  0.1111111E+00  0.0000000E+00  0.6172840E-02
    1      -14.653076
    2      -14.539618
    3      -14.538602
    4      -14.418930
    5      -12.067834
    6      -11.972605
    7      -11.971617
    8      -11.872387
    9      -11.444056
   10      -11.353730
   11      -11.352675
   12      -11.258336
   13       -9.717413
   14       -9.649395
   15       -9.649077
   16       -9.580706
   17       -8.134048
   18       -8.082607
   19       -8.079128
   20       -8.023154
   21       -6.492874
   22       -6.435983
   23       -6.434657
   24       -6.376298
   25       -5.894189
   26       -5.839021
   27       -5.838185
   28       -5.781813
   29       -3.757434
   30       -3.721544
   31       -3.720353
   32       -3.683564
   33       -3.328003
   34       -2.570277
   35       -2.568580
   36       -2.568251
   37       -2.540376
   38       -2.539771
   39       -2.511127
   40       -1.757864
   41       -1.736832
   42       -1.733335
   43       -1.712123
   44       -1.660468
   45       -0.340116
   46       -0.324336
   47       -0.321316
   48       -0.305907
   49       -0.291738
   50        0.350739
   51        0.352757
   52        0.407142
   53        0.415063
   54        0.424518
   55        0.429306
   56        0.439506
   57        1.015393
   58        1.016522
   59        1.094195
   60        1.698368
   61        2.153949
   62        2.550788
   63        2.552401
   64        2.886513
   65        5.910183
   66        6.027859
   67        6.032964
   68        6.337403
   69        7.424300
   70        7.754626
   71        7.757297
   72        8.174474
   73        8.209546
   74        8.556823
   75        8.559259
   76        9.004505
   77        9.159252
   78       11.516119
   79       11.519204
   80       12.167058
   81       12.349934
   82       12.375538
   83       12.377810
   84       12.692926
 
  0.3333333E+00  0.1111111E+00  0.0000000E+00  0.6172840E-02
    1      -14.214962
    2      -14.104591
    3      -14.103591
    4      -13.987384
    5      -12.917285
    6      -12.816025
    7      -12.815058
    8      -12.708954
    9      -11.652744
   10      -11.560772
   11      -11.559682
   12      -11.463549
   13       -9.860047
   14       -9.783985
   15       -9.783237
   16       -9.704778
   17       -7.367847
   18       -7.316522
   19       -7.313179
   20       -7.260153
   21       -5.695469
   22       -5.649102
   23       -5.647084
   24       -5.599967
   25       -4.695489
   26       -4.657871
   27       -4.656531
   28       -4.617217
   29       -4.446064
   30       -4.399940
   31       -4.398905
   32       -4.351763
   33       -3.266430
   34       -3.235765
   35       -3.235530
   36       -3.203491
   37       -2.800933
   38       -2.057776
   39       -2.055991
   40       -1.584971
   41       -1.558569
   42       -1.555844
   43       -1.529978
   44       -1.341779
   45       -1.322025
   46       -1.318370
   47       -1.298493
   48       -1.264432
   49       -1.168173
   50       -0.572914
   51       -0.571176
   52       -0.209998
   53       -0.194986
   54       -0.189935
   55       -0.175363
   56        0.202543
   57        0.241459
   58        0.831280
   59        0.832410
   60        1.554007
   61        2.159188
   62        2.641180
   63        2.642432
   64        3.130893
   65        5.929579
   66        6.147173
   67        6.151472
   68        6.438220
   69        7.930026
   70        8.208862
   71        8.211640
   72        8.517499
   73        9.699791
   74        9.772420
   75       10.062358
   76       10.064981
   77       10.435679
   78       11.299513
   79       11.968046
   80       11.972194
   81       12.474729
   82       12.539790
   83       12.542172
   84       12.766354
 
  0.4444444E+00  0.1111111E+00  0.0000000E+00  0.6172840E-02
    1      -13.636644
    2      -13.633736
    3      -13.531595
    4      -13.528363
    5      -13.527402
    6      -13.526010
    7      -13.417618
    8      -13.414685
    9      -11.723292
   10      -11.630836
   11      -11.629728
   12      -11.533053
   13       -9.914648
   14       -9.837063
   15       -9.836142
   16       -9.755763
   17       -6.861477
   18       -6.829277
   19       -6.826068
   20       -6.795450
   21       -5.227174
   22       -5.222059
   23       -5.202040
   24       -5.201892
   25       -5.199768
   26       -5.197244
   27       -5.175898
   28       -5.171915
   29       -3.683421
   30       -3.665393
   31       -3.663393
   32       -3.641944
   33       -2.988619
   34       -2.985484
   35       -2.952185
   36       -2.951710
   37       -2.949737
   38       -2.946097
   39       -2.913897
   40       -2.909991
   41       -2.110005
   42       -2.107614
   43       -1.388780
   44       -1.385566
   45       -1.384745
   46       -1.383243
   47       -0.818696
   48       -0.811398
   49       -0.799753
   50       -0.793157
   51       -0.791647
   52       -0.790952
   53       -0.775636
   54       -0.771927
   55       -0.528817
   56       -0.526184
   57        0.131481
   58        0.767624
   59        0.768744
   60        1.502740
   61        2.150280
   62        2.664360
   63        2.665213
   64        3.218856
   65        5.953064
   66        6.215362
   67        6.218639
   68        6.494463
   69        8.145732
   70        8.385435
   71        8.388597
   72        8.628153
   73       10.416557
   74       10.418140
   75       11.357114
   76       11.360262
   77       11.545659
   78       11.549886
   79       11.551059
   80       11.557188
   81       11.860891
   82       11.864200
   83       12.530771
   84       12.532361
 
 -0.4444444E+00  0.1111111E+00  0.0000000E+00  0.6172840E-02
    1      -14.215743
    2      -14.105366
    3      -14.104344
    4      -13.988151
    5      -12.916079
    6      -12.814803
    7      -12.813872
    8      -12.707813
    9      -11.654526
   10      -11.562507
   11      -11.561397
   12      -11.465346
   13       -9.857354
   14       -9.781276
   15       -9.780287
   16       -9.701805
   17       -7.359465
   18       -7.307402
   19       -7.305713
   20       -7.251983
   21       -5.706831
   22       -5.660912
   23       -5.657476
   24       -5.610803
   25       -4.707663
   26       -4.669740
   27       -4.669432
   28       -4.629934
   29       -4.448280
   30       -4.402319
   31       -4.400942
   32       -4.353966
   33       -3.252022
   34       -3.221943
   35       -3.220026
   36       -3.188610
   37       -2.801676
   38       -2.058480
   39       -2.056736
   40       -1.584871
   41       -1.557951
   42       -1.556605
   43       -1.530414
   44       -1.339767
   45       -1.320111
   46       -1.316093
   47       -1.296374
   48       -1.263372
   49       -1.168873
   50       -0.571915
   51       -0.570090
   52       -0.209571
   53       -0.194682
   54       -0.190923
   55       -0.175968
   56        0.201139
   57        0.242402
   58        0.829633
   59        0.830739
   60        1.551929
   61        2.160059
   62        2.643942
   63        2.644564
   64        3.136367
   65        5.931103
   66        6.150965
   67        6.153509
   68        6.440070
   69        7.924576
   70        8.203701
   71        8.207483
   72        8.514852
   73        9.698779
   74        9.772708
   75       10.061876
   76       10.064635
   77       10.434706
   78       11.301004
   79       11.967524
   80       11.971646
   81       12.471404
   82       12.536549
   83       12.539697
   84       12.762374
 
 -0.3333333E+00  0.1111111E+00  0.0000000E+00  0.6172840E-02
    1      -14.653619
    2      -14.540166
    3      -14.539134
    4      -14.419483
    5      -12.066277
    6      -11.971226
    7      -11.970285
    8      -11.870964
    9      -11.447646
   10      -11.357357
   11      -11.356270
   12      -11.261972
   13       -9.711549
   14       -9.643444
   15       -9.642433
   16       -9.573889
   17       -8.127182
   18       -8.074282
   19       -8.073135
   20       -8.015772
   21       -6.504456
   22       -6.448270
   23       -6.445325
   24       -6.387666
   25       -5.896495
   26       -5.841447
   27       -5.840475
   28       -5.784113
   29       -3.773277
   30       -3.737280
   31       -3.736448
   32       -3.699551
   33       -3.328544
   34       -2.570715
   35       -2.569017
   36       -2.550172
   37       -2.522514
   38       -2.520930
   39       -2.492657
   40       -1.756169
   41       -1.735216
   42       -1.731497
   43       -1.710386
   44       -1.660980
   45       -0.343921
   46       -0.327257
   47       -0.326767
   48       -0.310599
   49       -0.291182
   50        0.351817
   51        0.353925
   52        0.406229
   53        0.419206
   54        0.429354
   55        0.432003
   56        0.442825
   57        1.012168
   58        1.013286
   59        1.095149
   60        1.694145
   61        2.154760
   62        2.555842
   63        2.556531
   64        2.897356
   65        5.910048
   66        6.034150
   67        6.036536
   68        6.343595
   69        7.417194
   70        7.746282
   71        7.750597
   72        8.168335
   73        8.209259
   74        8.555944
   75        8.558569
   76        9.003277
   77        9.158506
   78       11.515493
   79       11.518568
   80       12.165815
   81       12.349307
   82       12.373030
   83       12.375692
   84       12.691650
 
 -0.2222222E+00  0.1111111E+00  0.0000000E+00  0.6172840E-02
    1      -14.946740
    2      -14.831238
    3      -14.830198
    4      -14.708230
    5      -11.107610
    6      -11.100590
    7      -11.020187
    8      -11.019168
    9      -11.013133
   10      -11.012086
   11      -10.928337
   12      -10.921078
   13       -9.659977
   14       -9.613166
   15       -9.612164
   16       -9.571718
   17       -8.603890
   18       -8.577606
   19       -8.576615
   20       -8.538719
   21       -7.285608
   22       -7.276918
   23       -7.224191
   24       -7.221415
   25       -7.214613
   26       -7.213763
   27       -7.157630
   28       -7.149057
   29       -3.682910
   30       -2.916076
   31       -2.914389
   32       -2.868236
   33       -2.839066
   34       -2.838063
   35       -2.808208
   36       -2.042726
   37       -2.022831
   38       -2.021001
   39       -2.017502
   40       -2.000222
   41       -1.998737
   42       -1.995627
   43       -1.993543
   44       -1.975854
   45        0.600993
   46        0.610221
   47        0.611888
   48        0.620799
   49        0.738107
   50        0.742274
   51        0.970831
   52        0.977974
   53        0.978667
   54        0.986466
   55        1.298464
   56        1.299677
   57        1.302889
   58        1.305306
   59        1.905861
   60        1.912244
   61        2.013497
   62        2.354730
   63        2.355592
   64        2.603654
   65        5.923389
   66        6.027334
   67        6.029848
   68        6.395893
   69        6.839325
   70        6.846832
   71        7.175410
   72        7.180100
   73        7.185563
   74        7.188712
   75        7.668673
   76        7.677633
   77        8.797292
   78       11.195011
   79       11.198062
   80       12.083060
   81       12.118859
   82       12.239312
   83       12.255587
   84       12.274768
 
 -0.1111111E+00  0.1111111E+00  0.0000000E+00  0.6172840E-02
    1      -15.093598
    2      -14.977107
    3      -14.976063
    4      -14.852925
    5      -10.646508
    6      -10.564299
    7      -10.563438
    8      -10.478594
    9      -10.094572
   10      -10.092297
   11      -10.024934
   12      -10.021390
   13      -10.021377
   14      -10.020467
   15       -9.951408
   16       -9.949229
   17       -8.475827
   18       -8.474061
   19       -8.419251
   20       -8.417591
   21       -8.417583
   22       -8.415529
   23       -8.356075
   24       -8.354136
   25       -7.967412
   26       -7.904124
   27       -7.901302
   28       -7.835422
   29       -3.860891
   30       -3.089691
   31       -3.088005
   32       -2.189611
   33       -2.186898
   34       -2.167747
   35       -2.163273
   36       -2.163264
   37       -2.163167
   38       -2.160962
   39       -2.141335
   40       -2.139288
   41       -1.869372
   42       -1.848996
   43       -1.847531
   44       -1.826904
   45        1.122159
   46        1.133190
   47        1.138488
   48        1.146246
   49        1.166617
   50        1.288905
   51        1.296805
   52        1.299891
   53        1.309795
   54        1.634963
   55        1.637373
   56        1.656119
   57        1.657560
   58        2.033728
   59        2.037987
   60        2.038127
   61        2.038464
   62        2.145559
   63        2.377525
   64        2.379527
   65        6.035299
   66        6.037485
   67        6.232142
   68        6.234077
   69        6.234441
   70        6.239188
   71        6.345189
   72        6.633187
   73        6.638264
   74        6.690562
   75        6.693571
   76        7.138640
   77        8.617270
   78       11.033973
   79       11.037037
   80       11.746381
   81       11.901266
   82       11.901748
   83       12.004815
   84       12.011985
 
  0.0000000E+00  0.2222222E+00  0.0000000E+00  0.6172840E-02
    1      -14.873119
    2      -14.758133
    3      -14.757093
    4      -14.635709
    5      -11.648689
    6      -11.556609
    7      -11.555557
    8      -11.459800
    9      -10.448248
   10      -10.442314
   11      -10.368254
   12      -10.366414
   13      -10.360916
   14      -10.360664
   15      -10.283284
   16      -10.277105
   17       -7.798336
   18       -7.787853
   19       -7.737622
   20       -7.734086
   21       -7.725842
   22       -7.724290
   23       -7.670412
   24       -7.659857
   25       -6.634820
   26       -6.575183
   27       -6.574199
   28       -6.512614
   29       -3.593847
   30       -2.829206
   31       -2.827518
   32       -2.794729
   33       -2.775256
   34       -2.766794
   35       -2.763565
   36       -2.746341
   37       -2.745113
   38       -2.734993
   39       -2.715603
   40       -1.909867
   41       -1.674175
   42       -1.654002
   43       -1.653019
   44       -1.632714
   45        0.160452
   46        0.315342
   47        0.331080
   48        0.332295
   49        0.348365
   50        0.772146
   51        0.773410
   52        0.855680
   53        0.867656
   54        0.868531
   55        0.880456
   56        1.420172
   57        1.423169
   58        1.462033
   59        1.909029
   60        1.909857
   61        1.914048
   62        1.915292
   63        2.398776
   64        2.406136
   65        6.298715
   66        6.304377
   67        6.558133
   68        6.563218
   69        6.568551
   70        6.572002
   71        6.992334
   72        7.002327
   73        7.501294
   74        7.865030
   75        7.867610
   76        8.361072
   77        8.887637
   78       11.274544
   79       11.277591
   80       11.825490
   81       11.974957
   82       11.976142
   83       12.105507
   84       12.864387
 
  0.1111111E+00  0.2222222E+00  0.0000000E+00  0.6172840E-02
    1      -14.653081
    2      -14.539626
    3      -14.538602
    4      -14.418935
    5      -12.067886
    6      -11.972706
    7      -11.971618
    8      -11.872439
    9      -11.444020
   10      -11.353661
   11      -11.352674
   12      -11.258302
   13       -9.717404
   14       -9.649381
   15       -9.649076
   16       -9.580699
   17       -8.133987
   18       -8.082492
   19       -8.079128
   20       -8.023098
   21       -6.491911
   22       -6.434673
   23       -6.433993
   24       -6.375287
   25       -5.895132
   26       -5.840149
   27       -5.839007
   28       -5.782822
   29       -3.757507
   30       -3.721545
   31       -3.720511
   32       -3.683651
   33       -3.327988
   34       -2.570461
   35       -2.569619
   36       -2.568444
   37       -2.542993
   38       -2.539774
   39       -2.512334
   40       -1.756262
   41       -1.734101
   42       -1.733333
   43       -1.710911
   44       -1.660446
   45       -0.340843
   46       -0.324337
   47       -0.323316
   48       -0.307283
   49       -0.291690