 running on    6 total cores
 distrk:  each k-point on    6 cores,    1 groups
 distr:  one band on    1 cores,    6 groups
 using from now: INCAR     
 vasp.5.3.5 31Mar14 (build Nov 02 2014 15:17:37) complex                        
  
 POSCAR found :  1 types and      32 ions
 scaLAPACK will be used

 ----------------------------------------------------------------------------- 
|                                                                             |
|           W    W    AA    RRRRR   N    N  II  N    N   GGGG   !!!           |
|           W    W   A  A   R    R  NN   N  II  NN   N  G    G  !!!           |
|           W    W  A    A  R    R  N N  N  II  N N  N  G       !!!           |
|           W WW W  AAAAAA  RRRRR   N  N N  II  N  N N  G  GGG   !            |
|           WW  WW  A    A  R   R   N   NN  II  N   NN  G    G                |
|           W    W  A    A  R    R  N    N  II  N    N   GGGG   !!!           |
|                                                                             |
|      For optimal performance we recommend to set                            |
|        NCORE= 4 - approx SQRT( number of cores)                             |
|      NCORE specifies how many cores store one orbital (NPAR=cpu/NCORE).     |
|      This setting can  greatly improve the performance of VASP for DFT.     |
|      The default, NPAR=number of cores might be grossly inefficient         |
|      on modern multi-core architectures or massively parallel machines.     |
|      Do your own testing !!!!                                               |
|      Unfortunately you need to use the default for GW and RPA calculations. |
|      (for HF NCORE is supported but not extensively tested yet)             |
|                                                                             |
 ----------------------------------------------------------------------------- 


 ----------------------------------------------------------------------------- 
|                                                                             |
|  ADVICE TO THIS USER RUNNING 'VASP/VAMP'   (HEAR YOUR MASTER'S VOICE ...):  |
|                                                                             |
|      You have a (more or less) 'large supercell' and for larger cells       |
|      it might be more efficient to use real space projection operators      |
|      So try LREAL= Auto  in the INCAR   file.                               |
|      Mind: If you want to do a very accurate calculations keep the          |
|      reciprocal projection scheme          (i.e. LREAL=.FALSE.)             |
|                                                                             |
 ----------------------------------------------------------------------------- 

 LDA part: xc-table for Pade appr. of Perdew
 POSCAR, INCAR and KPOINTS ok, starting setup
 WARNING: small aliasing (wrap around) errors must be expected
 FFT: planning ...
 WAVECAR not read
 WARNING: random wavefunctions but no delay for mixing, default for NELMDL
 entering main loop
       N       E                     dE             d eps       ncg     rms          rms(c)
DAV:   1     0.604709827554E+03    0.60471E+03   -0.71436E+04 27384   0.159E+03
DAV:   2    -0.261703473510E+03   -0.86641E+03   -0.83499E+03 34104   0.312E+02
DAV:   3    -0.312946257071E+03   -0.51243E+02   -0.50760E+02 33252   0.765E+01
DAV:   4    -0.313934296910E+03   -0.98804E+00   -0.98622E+00 35088   0.115E+01
DAV:   5    -0.313963123105E+03   -0.28826E-01   -0.28814E-01 35268   0.182E+00    0.221E+01
DAV:   6    -0.299394332733E+03    0.14569E+02   -0.15000E+01 31296   0.107E+01    0.116E+01
DAV:   7    -0.294745679204E+03    0.46487E+01   -0.15921E+01 30828   0.110E+01    0.195E+00
DAV:   8    -0.294815374943E+03   -0.69696E-01   -0.44179E-01 30696   0.191E+00    0.377E-01
DAV:   9    -0.294815540859E+03   -0.16592E-03   -0.21783E-02 32424   0.514E-01    0.165E-01
DAV:  10    -0.294815832783E+03   -0.29192E-03   -0.60958E-03 34896   0.227E-01    0.122E-01
DAV:  11    -0.294816229951E+03   -0.39717E-03   -0.34998E-03 31344   0.164E-01    0.761E-02
DAV:  12    -0.294816614225E+03   -0.38427E-03   -0.17929E-03 31380   0.101E-01    0.716E-02
DAV:  13    -0.294816677942E+03   -0.63717E-04   -0.12586E-03 31416   0.739E-02    0.391E-02
DAV:  14    -0.294816748383E+03   -0.70441E-04   -0.37004E-04 31296   0.476E-02    0.228E-02
DAV:  15    -0.294816756117E+03   -0.77339E-05   -0.35254E-04 33444   0.271E-02    0.188E-02
DAV:  16    -0.294816747994E+03    0.81230E-05   -0.45215E-05 28704   0.182E-02    0.101E-02
DAV:  17    -0.294816748374E+03   -0.38017E-06   -0.10596E-05 26472   0.786E-03    0.901E-03
DAV:  18    -0.294816750411E+03   -0.20368E-05   -0.61433E-05 20148   0.913E-03    0.205E-02
DAV:  19    -0.294816747323E+03    0.30882E-05   -0.38210E-05 19236   0.637E-03    0.544E-03
DAV:  20    -0.294816747263E+03    0.59895E-07   -0.63136E-07 18936   0.213E-03
   1 F= -.29965689E+03 E0= -.29965689E+03  d E =0.000000E+00
