<?xml version="1.0" encoding="ISO-8859-1"?>
<modeling>
 <generator>
  <i name="program" type="string">vasp </i>
  <i name="version" type="string">5.3.5  </i>
  <i name="subversion" type="string">31Mar14 (build Nov 02 2014 15:17:37) complex                          parallel </i>
  <i name="platform" type="string">ion-Intel-MKL </i>
  <i name="date" type="string">2016 11 23 </i>
  <i name="time" type="string">11:54:17 </i>
 </generator>
 <incar>
  <i type="string" name="SYSTEM">graphite</i>
  <i type="string" name="PREC">accurate</i>
  <i type="int" name="NELM">   200</i>
  <i type="int" name="IBRION">    -1</i>
  <i name="EDIFF">      0.00000001</i>
  <i name="EDIFFG">      0.00100000</i>
  <i type="int" name="NSW">     0</i>
  <i type="int" name="ISIF">     2</i>
  <i name="ENCUT">    800.00000000</i>
  <i type="int" name="ISMEAR">    -5</i>
  <i type="logical" name="LWAVE"> F  </i>
  <i type="logical" name="LCHARG"> F  </i>
  <i type="int" name="NELM">   200</i>
  <i type="string" name="GGA">PE</i>
 </incar>
 <kpoints>
  <generation param="Gamma">
   <v type="int" name="divisions">       6        6        4 </v>
   <v name="usershift">      0.00000000       0.00000000       0.00000000 </v>
   <v name="genvec1">      0.16666667       0.00000000       0.00000000 </v>
   <v name="genvec2">      0.00000000       0.16666667       0.00000000 </v>
   <v name="genvec3">      0.00000000       0.00000000       0.25000000 </v>
   <v name="shift">      0.00000000       0.00000000       0.00000000 </v>
  </generation>
  <varray name="kpointlist" >
   <v>       0.00000000       0.00000000       0.00000000 </v>
   <v>       0.16666667       0.00000000       0.00000000 </v>
   <v>       0.33333333       0.00000000       0.00000000 </v>
   <v>       0.50000000       0.00000000       0.00000000 </v>
   <v>      -0.00000000       0.16666667       0.00000000 </v>
   <v>       0.16666667       0.16666667       0.00000000 </v>
   <v>       0.33333333       0.16666667       0.00000000 </v>
   <v>       0.50000000       0.16666667       0.00000000 </v>
   <v>      -0.33333333       0.16666667       0.00000000 </v>
   <v>      -0.16666667       0.16666667       0.00000000 </v>
   <v>      -0.00000000       0.33333333       0.00000000 </v>
   <v>       0.16666667       0.33333333       0.00000000 </v>
   <v>       0.33333333       0.33333333       0.00000000 </v>
   <v>       0.50000000       0.33333333       0.00000000 </v>
   <v>      -0.33333333       0.33333333       0.00000000 </v>
   <v>      -0.16666667       0.33333333       0.00000000 </v>
   <v>      -0.00000000       0.50000000       0.00000000 </v>
   <v>       0.16666667       0.50000000       0.00000000 </v>
   <v>       0.33333333       0.50000000       0.00000000 </v>
   <v>       0.50000000       0.50000000       0.00000000 </v>
   <v>       0.00000000       0.00000000       0.25000000 </v>
   <v>       0.16666667       0.00000000       0.25000000 </v>
   <v>       0.33333333       0.00000000       0.25000000 </v>
   <v>       0.50000000       0.00000000       0.25000000 </v>
   <v>      -0.33333333      -0.00000000       0.25000000 </v>
   <v>      -0.16666667      -0.00000000       0.25000000 </v>
   <v>      -0.00000000       0.16666667       0.25000000 </v>
   <v>       0.16666667       0.16666667       0.25000000 </v>
   <v>       0.33333333       0.16666667       0.25000000 </v>
   <v>       0.50000000       0.16666667       0.25000000 </v>
   <v>      -0.33333333       0.16666667       0.25000000 </v>
   <v>      -0.16666667       0.16666667       0.25000000 </v>
   <v>      -0.00000000       0.33333333       0.25000000 </v>
   <v>       0.16666667       0.33333333       0.25000000 </v>
   <v>       0.33333333       0.33333333       0.25000000 </v>
   <v>       0.50000000       0.33333333       0.25000000 </v>
   <v>      -0.33333333       0.33333333       0.25000000 </v>
   <v>      -0.16666667       0.33333333       0.25000000 </v>
   <v>      -0.00000000       0.50000000       0.25000000 </v>
   <v>       0.16666667       0.50000000       0.25000000 </v>
   <v>       0.33333333       0.50000000       0.25000000 </v>
   <v>       0.50000000       0.50000000       0.25000000 </v>
   <v>      -0.33333333       0.50000000       0.25000000 </v>
   <v>      -0.16666667       0.50000000       0.25000000 </v>
   <v>       0.00000000      -0.33333333       0.25000000 </v>
   <v>       0.16666667      -0.33333333       0.25000000 </v>
   <v>       0.33333333      -0.33333333       0.25000000 </v>
   <v>       0.50000000      -0.33333333       0.25000000 </v>
   <v>      -0.33333333      -0.33333333       0.25000000 </v>
   <v>      -0.16666667      -0.33333333       0.25000000 </v>
   <v>       0.00000000      -0.16666667       0.25000000 </v>
   <v>       0.16666667      -0.16666667       0.25000000 </v>
   <v>       0.33333333      -0.16666667       0.25000000 </v>
   <v>       0.50000000      -0.16666667       0.25000000 </v>
   <v>      -0.33333333      -0.16666667       0.25000000 </v>
   <v>      -0.16666667      -0.16666667       0.25000000 </v>
   <v>       0.00000000       0.00000000       0.50000000 </v>
   <v>       0.16666667       0.00000000       0.50000000 </v>
   <v>       0.33333333       0.00000000       0.50000000 </v>
   <v>       0.50000000       0.00000000       0.50000000 </v>
   <v>      -0.00000000       0.16666667       0.50000000 </v>
   <v>       0.16666667       0.16666667       0.50000000 </v>
   <v>       0.33333333       0.16666667       0.50000000 </v>
   <v>       0.50000000       0.16666667       0.50000000 </v>
   <v>      -0.33333333       0.16666667       0.50000000 </v>
   <v>      -0.16666667       0.16666667       0.50000000 </v>
   <v>      -0.00000000       0.33333333       0.50000000 </v>
   <v>       0.16666667       0.33333333       0.50000000 </v>
   <v>       0.33333333       0.33333333       0.50000000 </v>
   <v>       0.50000000       0.33333333       0.50000000 </v>
   <v>      -0.33333333       0.33333333       0.50000000 </v>
   <v>      -0.16666667       0.33333333       0.50000000 </v>
   <v>      -0.00000000       0.50000000       0.50000000 </v>
   <v>       0.16666667       0.50000000       0.50000000 </v>
   <v>       0.33333333       0.50000000       0.50000000 </v>
   <v>       0.50000000       0.50000000       0.50000000 </v>
  </varray>
  <varray name="weights" >
   <v>       0.00694444 </v>
   <v>       0.01388889 </v>
   <v>       0.01388889 </v>
   <v>       0.00694444 </v>
   <v>       0.01388889 </v>
   <v>       0.01388889 </v>
   <v>       0.01388889 </v>
   <v>       0.01388889 </v>
   <v>       0.01388889 </v>
   <v>       0.01388889 </v>
   <v>       0.01388889 </v>
   <v>       0.01388889 </v>
   <v>       0.01388889 </v>
   <v>       0.01388889 </v>
   <v>       0.01388889 </v>
   <v>       0.01388889 </v>
   <v>       0.00694444 </v>
   <v>       0.01388889 </v>
   <v>       0.01388889 </v>
   <v>       0.00694444 </v>
   <v>       0.01388889 </v>
   <v>       0.01388889 </v>
   <v>       0.01388889 </v>
   <v>       0.01388889 </v>
   <v>       0.01388889 </v>
   <v>       0.01388889 </v>
   <v>       0.01388889 </v>
   <v>       0.01388889 </v>
   <v>       0.01388889 </v>
   <v>       0.01388889 </v>
   <v>       0.01388889 </v>
   <v>       0.01388889 </v>
   <v>       0.01388889 </v>
   <v>       0.01388889 </v>
   <v>       0.01388889 </v>
   <v>       0.01388889 </v>
   <v>       0.01388889 </v>
   <v>       0.01388889 </v>
   <v>       0.01388889 </v>
   <v>       0.01388889 </v>
   <v>       0.01388889 </v>
   <v>       0.01388889 </v>
   <v>       0.01388889 </v>
   <v>       0.01388889 </v>
   <v>       0.01388889 </v>
   <v>       0.01388889 </v>
   <v>       0.01388889 </v>
   <v>       0.01388889 </v>
   <v>       0.01388889 </v>
   <v>       0.01388889 </v>
   <v>       0.01388889 </v>
   <v>       0.01388889 </v>
   <v>       0.01388889 </v>
   <v>       0.01388889 </v>
   <v>       0.01388889 </v>
   <v>       0.01388889 </v>
   <v>       0.00694444 </v>
   <v>       0.01388889 </v>
   <v>       0.01388889 </v>
   <v>       0.00694444 </v>
   <v>       0.01388889 </v>
   <v>       0.01388889 </v>
   <v>       0.01388889 </v>
   <v>       0.01388889 </v>
   <v>       0.01388889 </v>
   <v>       0.01388889 </v>
   <v>       0.01388889 </v>
   <v>       0.01388889 </v>
   <v>       0.01388889 </v>
   <v>       0.01388889 </v>
   <v>       0.01388889 </v>
   <v>       0.01388889 </v>
   <v>       0.00694444 </v>
   <v>       0.01388889 </v>
   <v>       0.01388889 </v>
   <v>       0.00694444 </v>
  </varray>
  <varray name="tetrahedronlist"  type="int" >
   <v type="int" >        2        2        5        6       27 </v>
   <v type="int" >        2        1        2        5       27 </v>
   <v type="int" >        2        1        2       21       27 </v>
   <v type="int" >        2        2        6       27       28 </v>
   <v type="int" >        2        2       22       27       28 </v>
   <v type="int" >        2        2       21       22       27 </v>
   <v type="int" >        2        3        6        7       28 </v>
   <v type="int" >        2        2        3        6       28 </v>
   <v type="int" >        2        2        3       22       28 </v>
   <v type="int" >        2        3        7       28       29 </v>
   <v type="int" >        2        3       23       28       29 </v>
   <v type="int" >        2        3       22       23       28 </v>
   <v type="int" >        2        4        7        8       29 </v>
   <v type="int" >        2        3        4        7       29 </v>
   <v type="int" >        2        3        4       23       29 </v>
   <v type="int" >        2        4        8       29       30 </v>
   <v type="int" >        2        4       24       29       30 </v>
   <v type="int" >        2        4       23       24       29 </v>
   <v type="int" >        2        3        8        9       30 </v>
   <v type="int" >        2        3        4        8       30 </v>
   <v type="int" >        2        3        4       24       30 </v>
   <v type="int" >        2        3        9       30       31 </v>
   <v type="int" >        2        3       25       30       31 </v>
   <v type="int" >        2        3       24       25       30 </v>
   <v type="int" >        2        2        9       10       31 </v>
   <v type="int" >        2        2        3        9       31 </v>
   <v type="int" >        2        2        3       25       31 </v>
   <v type="int" >        2        2       10       31       32 </v>
   <v type="int" >        2        2       26       31       32 </v>
   <v type="int" >        2        2       25       26       31 </v>
   <v type="int" >        2        1        5       10       32 </v>
   <v type="int" >        2        1        2       10       32 </v>
   <v type="int" >        2        1        2       26       32 </v>
   <v type="int" >        2        1        5       27       32 </v>
   <v type="int" >        2        1       21       27       32 </v>
   <v type="int" >        2        1       21       26       32 </v>
   <v type="int" >        2        6       11       12       33 </v>
   <v type="int" >        2        5        6       11       33 </v>
   <v type="int" >        2        5        6       27       33 </v>
   <v type="int" >        2        6       12       33       34 </v>
   <v type="int" >        2        6       28       33       34 </v>
   <v type="int" >        2        6       27       28       33 </v>
   <v type="int" >        2        7       12       13       34 </v>
   <v type="int" >        2        6        7       12       34 </v>
   <v type="int" >        2        6        7       28       34 </v>
   <v type="int" >        2        7       13       34       35 </v>
   <v type="int" >        2        7       29       34       35 </v>
   <v type="int" >        2        7       28       29       34 </v>
   <v type="int" >        2        8       13       14       35 </v>
   <v type="int" >        2        7        8       13       35 </v>
   <v type="int" >        2        7        8       29       35 </v>
   <v type="int" >        2        8       14       35       36 </v>
   <v type="int" >        2        8       30       35       36 </v>
   <v type="int" >        2        8       29       30       35 </v>
   <v type="int" >        2        9       14       15       36 </v>
   <v type="int" >        2        8        9       14       36 </v>
   <v type="int" >        2        8        9       30       36 </v>
   <v type="int" >        2        9       15       36       37 </v>
   <v type="int" >        2        9       31       36       37 </v>
   <v type="int" >        2        9       30       31       36 </v>
   <v type="int" >        2       10       15       16       37 </v>
   <v type="int" >        2        9       10       15       37 </v>
   <v type="int" >        2        9       10       31       37 </v>
   <v type="int" >        2       10       16       37       38 </v>
   <v type="int" >        2       10       32       37       38 </v>
   <v type="int" >        2       10       31       32       37 </v>
   <v type="int" >        2        5       11       16       38 </v>
   <v type="int" >        2        5       10       16       38 </v>
   <v type="int" >        2        5       10       32       38 </v>
   <v type="int" >        2        5       11       33       38 </v>
   <v type="int" >        2        5       27       33       38 </v>
   <v type="int" >        2        5       27       32       38 </v>
   <v type="int" >        2       12       17       18       39 </v>
   <v type="int" >        2       11       12       17       39 </v>
   <v type="int" >        2       11       12       33       39 </v>
   <v type="int" >        2       12       18       39       40 </v>
   <v type="int" >        2       12       34       39       40 </v>
   <v type="int" >        2       12       33       34       39 </v>
   <v type="int" >        2       13       18       19       40 </v>
   <v type="int" >        2       12       13       18       40 </v>
   <v type="int" >        2       12       13       34       40 </v>
   <v type="int" >        2       13       19       40       41 </v>
   <v type="int" >        2       13       35       40       41 </v>
   <v type="int" >        2       13       34       35       40 </v>
   <v type="int" >        2       14       19       20       41 </v>
   <v type="int" >        2       13       14       19       41 </v>
   <v type="int" >        2       13       14       35       41 </v>
   <v type="int" >        2       14       20       41       42 </v>
   <v type="int" >        2       14       36       41       42 </v>
   <v type="int" >        2       14       35       36       41 </v>
   <v type="int" >        2       15       19       20       42 </v>
   <v type="int" >        2       14       15       20       42 </v>
   <v type="int" >        2       14       15       36       42 </v>
   <v type="int" >        2       15       19       42       43 </v>
   <v type="int" >        2       15       37       42       43 </v>
   <v type="int" >        2       15       36       37       42 </v>
   <v type="int" >        2       16       18       19       43 </v>
   <v type="int" >        2       15       16       19       43 </v>
   <v type="int" >        2       15       16       37       43 </v>
   <v type="int" >        2       16       18       43       44 </v>
   <v type="int" >        2       16       38       43       44 </v>
   <v type="int" >        2       16       37       38       43 </v>
   <v type="int" >        2       11       17       18       44 </v>
   <v type="int" >        2       11       16       18       44 </v>
   <v type="int" >        2       11       16       38       44 </v>
   <v type="int" >        2       11       17       39       44 </v>
   <v type="int" >        2       11       33       39       44 </v>
   <v type="int" >        2       11       33       38       44 </v>
   <v type="int" >        2       11       16       18       45 </v>
   <v type="int" >        2       11       17       18       45 </v>
   <v type="int" >        2       17       18       39       45 </v>
   <v type="int" >        2       16       18       45       46 </v>
   <v type="int" >        2       18       40       45       46 </v>
   <v type="int" >        2       18       39       40       45 </v>
   <v type="int" >        2       15       16       19       46 </v>
   <v type="int" >        2       16       18       19       46 </v>
   <v type="int" >        2       18       19       40       46 </v>
   <v type="int" >        2       15       19       46       47 </v>
   <v type="int" >        2       19       41       46       47 </v>
   <v type="int" >        2       19       40       41       46 </v>
   <v type="int" >        2       14       15       20       47 </v>
   <v type="int" >        2       15       19       20       47 </v>
   <v type="int" >        2       19       20       41       47 </v>
   <v type="int" >        2       14       20       47       48 </v>
   <v type="int" >        2       20       42       47       48 </v>
   <v type="int" >        2       20       41       42       47 </v>
   <v type="int" >        2       13       14       19       48 </v>
   <v type="int" >        2       14       19       20       48 </v>
   <v type="int" >        2       19       20       42       48 </v>
   <v type="int" >        2       13       19       48       49 </v>
   <v type="int" >        2       19       43       48       49 </v>
   <v type="int" >        2       19       42       43       48 </v>
   <v type="int" >        2       12       13       18       49 </v>
   <v type="int" >        2       13       18       19       49 </v>
   <v type="int" >        2       18       19       43       49 </v>
   <v type="int" >        2       12       18       49       50 </v>
   <v type="int" >        2       18       44       49       50 </v>
   <v type="int" >        2       18       43       44       49 </v>
   <v type="int" >        2       11       12       17       50 </v>
   <v type="int" >        2       12       17       18       50 </v>
   <v type="int" >        2       17       18       44       50 </v>
   <v type="int" >        2       11       17       45       50 </v>
   <v type="int" >        2       17       39       45       50 </v>
   <v type="int" >        2       17       39       44       50 </v>
   <v type="int" >        2        5       10       16       51 </v>
   <v type="int" >        2        5       11       16       51 </v>
   <v type="int" >        2       11       16       45       51 </v>
   <v type="int" >        2       10       16       51       52 </v>
   <v type="int" >        2       16       46       51       52 </v>
   <v type="int" >        2       16       45       46       51 </v>
   <v type="int" >        2        9       10       15       52 </v>
   <v type="int" >        2       10       15       16       52 </v>
   <v type="int" >        2       15       16       46       52 </v>
   <v type="int" >        2        9       15       52       53 </v>
   <v type="int" >        2       15       47       52       53 </v>
   <v type="int" >        2       15       46       47       52 </v>
   <v type="int" >        2        8        9       14       53 </v>
   <v type="int" >        2        9       14       15       53 </v>
   <v type="int" >        2       14       15       47       53 </v>
   <v type="int" >        2        8       14       53       54 </v>
   <v type="int" >        2       14       48       53       54 </v>
   <v type="int" >        2       14       47       48       53 </v>
   <v type="int" >        2        7        8       13       54 </v>
   <v type="int" >        2        8       13       14       54 </v>
   <v type="int" >        2       13       14       48       54 </v>
   <v type="int" >        2        7       13       54       55 </v>
   <v type="int" >        2       13       49       54       55 </v>
   <v type="int" >        2       13       48       49       54 </v>
   <v type="int" >        2        6        7       12       55 </v>
   <v type="int" >        2        7       12       13       55 </v>
   <v type="int" >        2       12       13       49       55 </v>
   <v type="int" >        2        6       12       55       56 </v>
   <v type="int" >        2       12       50       55       56 </v>
   <v type="int" >        2       12       49       50       55 </v>
   <v type="int" >        2        5        6       11       56 </v>
   <v type="int" >        2        6       11       12       56 </v>
   <v type="int" >        2       11       12       50       56 </v>
   <v type="int" >        2        5       11       51       56 </v>
   <v type="int" >        2       11       45       51       56 </v>
   <v type="int" >        2       11       45       50       56 </v>
   <v type="int" >        2        1        2       10       21 </v>
   <v type="int" >        2        1        5       10       21 </v>
   <v type="int" >        2        5       10       21       51 </v>
   <v type="int" >        2        2       10       21       22 </v>
   <v type="int" >        2       10       21       22       52 </v>
   <v type="int" >        2       10       21       51       52 </v>
   <v type="int" >        2        2        3        9       22 </v>
   <v type="int" >        2        2        9       10       22 </v>
   <v type="int" >        2        9       10       22       52 </v>
   <v type="int" >        2        3        9       22       23 </v>
   <v type="int" >        2        9       22       23       53 </v>
   <v type="int" >        2        9       22       52       53 </v>
   <v type="int" >        2        3        4        8       23 </v>
   <v type="int" >        2        3        8        9       23 </v>
   <v type="int" >        2        8        9       23       53 </v>
   <v type="int" >        2        4        8       23       24 </v>
   <v type="int" >        2        8       23       24       54 </v>
   <v type="int" >        2        8       23       53       54 </v>
   <v type="int" >        2        3        4        7       24 </v>
   <v type="int" >        2        4        7        8       24 </v>
   <v type="int" >        2        7        8       24       54 </v>
   <v type="int" >        2        3        7       24       25 </v>
   <v type="int" >        2        7       24       25       55 </v>
   <v type="int" >        2        7       24       54       55 </v>
   <v type="int" >        2        2        3        6       25 </v>
   <v type="int" >        2        3        6        7       25 </v>
   <v type="int" >        2        6        7       25       55 </v>
   <v type="int" >        2        2        6       25       26 </v>
   <v type="int" >        2        6       25       26       56 </v>
   <v type="int" >        2        6       25       55       56 </v>
   <v type="int" >        2        1        2        5       26 </v>
   <v type="int" >        2        2        5        6       26 </v>
   <v type="int" >        2        5        6       26       56 </v>
   <v type="int" >        2        1        5       21       26 </v>
   <v type="int" >        2        5       21       26       51 </v>
   <v type="int" >        2        5       26       51       56 </v>
   <v type="int" >        2       22       27       28       61 </v>
   <v type="int" >        2       21       22       27       61 </v>
   <v type="int" >        2       21       22       57       61 </v>
   <v type="int" >        2       22       28       61       62 </v>
   <v type="int" >        2       22       58       61       62 </v>
   <v type="int" >        2       22       57       58       61 </v>
   <v type="int" >        2       23       28       29       62 </v>
   <v type="int" >        2       22       23       28       62 </v>
   <v type="int" >        2       22       23       58       62 </v>
   <v type="int" >        2       23       29       62       63 </v>
   <v type="int" >        2       23       59       62       63 </v>
   <v type="int" >        2       23       58       59       62 </v>
   <v type="int" >        2       24       29       30       63 </v>
   <v type="int" >        2       23       24       29       63 </v>
   <v type="int" >        2       23       24       59       63 </v>
   <v type="int" >        2       24       30       63       64 </v>
   <v type="int" >        2       24       60       63       64 </v>
   <v type="int" >        2       24       59       60       63 </v>
   <v type="int" >        2       25       30       31       64 </v>
   <v type="int" >        2       24       25       30       64 </v>
   <v type="int" >        2       24       25       60       64 </v>
   <v type="int" >        2       25       31       64       65 </v>
   <v type="int" >        2       25       59       64       65 </v>
   <v type="int" >        2       25       59       60       64 </v>
   <v type="int" >        2       26       31       32       65 </v>
   <v type="int" >        2       25       26       31       65 </v>
   <v type="int" >        2       25       26       59       65 </v>
   <v type="int" >        2       26       32       65       66 </v>
   <v type="int" >        2       26       58       65       66 </v>
   <v type="int" >        2       26       58       59       65 </v>
   <v type="int" >        2       21       27       32       66 </v>
   <v type="int" >        2       21       26       32       66 </v>
   <v type="int" >        2       21       26       58       66 </v>
   <v type="int" >        2       21       27       61       66 </v>
   <v type="int" >        2       21       57       61       66 </v>
   <v type="int" >        2       21       57       58       66 </v>
   <v type="int" >        2       28       33       34       67 </v>
   <v type="int" >        2       27       28       33       67 </v>
   <v type="int" >        2       27       28       61       67 </v>
   <v type="int" >        2       28       34       67       68 </v>
   <v type="int" >        2       28       62       67       68 </v>
   <v type="int" >        2       28       61       62       67 </v>
   <v type="int" >        2       29       34       35       68 </v>
   <v type="int" >        2       28       29       34       68 </v>
   <v type="int" >        2       28       29       62       68 </v>
   <v type="int" >        2       29       35       68       69 </v>
   <v type="int" >        2       29       63       68       69 </v>
   <v type="int" >        2       29       62       63       68 </v>
   <v type="int" >        2       30       35       36       69 </v>
   <v type="int" >        2       29       30       35       69 </v>
   <v type="int" >        2       29       30       63       69 </v>
   <v type="int" >        2       30       36       69       70 </v>
   <v type="int" >        2       30       64       69       70 </v>
   <v type="int" >        2       30       63       64       69 </v>
   <v type="int" >        2       31       36       37       70 </v>
   <v type="int" >        2       30       31       36       70 </v>
   <v type="int" >        2       30       31       64       70 </v>
   <v type="int" >        2       31       37       70       71 </v>
   <v type="int" >        2       31       65       70       71 </v>
   <v type="int" >        2       31       64       65       70 </v>
   <v type="int" >        2       32       37       38       71 </v>
   <v type="int" >        2       31       32       37       71 </v>
   <v type="int" >        2       31       32       65       71 </v>
   <v type="int" >        2       32       38       71       72 </v>
   <v type="int" >        2       32       66       71       72 </v>
   <v type="int" >        2       32       65       66       71 </v>
   <v type="int" >        2       27       33       38       72 </v>
   <v type="int" >        2       27       32       38       72 </v>
   <v type="int" >        2       27       32       66       72 </v>
   <v type="int" >        2       27       33       67       72 </v>
   <v type="int" >        2       27       61       67       72 </v>
   <v type="int" >        2       27       61       66       72 </v>
   <v type="int" >        2       34       39       40       73 </v>
   <v type="int" >        2       33       34       39       73 </v>
   <v type="int" >        2       33       34       67       73 </v>
   <v type="int" >        2       34       40       73       74 </v>
   <v type="int" >        2       34       68       73       74 </v>
   <v type="int" >        2       34       67       68       73 </v>
   <v type="int" >        2       35       40       41       74 </v>
   <v type="int" >        2       34       35       40       74 </v>
   <v type="int" >        2       34       35       68       74 </v>
   <v type="int" >        2       35       41       74       75 </v>
   <v type="int" >        2       35       69       74       75 </v>
   <v type="int" >        2       35       68       69       74 </v>
   <v type="int" >        2       36       41       42       75 </v>
   <v type="int" >        2       35       36       41       75 </v>
   <v type="int" >        2       35       36       69       75 </v>
   <v type="int" >        2       36       42       75       76 </v>
   <v type="int" >        2       36       70       75       76 </v>
   <v type="int" >        2       36       69       70       75 </v>
   <v type="int" >        2       37       42       43       76 </v>
   <v type="int" >        2       36       37       42       76 </v>
   <v type="int" >        2       36       37       70       76 </v>
   <v type="int" >        2       37       43       75       76 </v>
   <v type="int" >        2       37       71       75       76 </v>
   <v type="int" >        2       37       70       71       76 </v>
   <v type="int" >        2       38       43       44       75 </v>
   <v type="int" >        2       37       38       43       75 </v>
   <v type="int" >        2       37       38       71       75 </v>
   <v type="int" >        2       38       44       74       75 </v>
   <v type="int" >        2       38       72       74       75 </v>
   <v type="int" >        2       38       71       72       75 </v>
   <v type="int" >        2       33       39       44       74 </v>
   <v type="int" >        2       33       38       44       74 </v>
   <v type="int" >        2       33       38       72       74 </v>
   <v type="int" >        2       33       39       73       74 </v>
   <v type="int" >        2       33       67       73       74 </v>
   <v type="int" >        2       33       67       72       74 </v>
   <v type="int" >        2       40       45       46       67 </v>
   <v type="int" >        2       39       40       45       67 </v>
   <v type="int" >        2       39       40       67       73 </v>
   <v type="int" >        2       40       46       67       72 </v>
   <v type="int" >        2       40       67       72       74 </v>
   <v type="int" >        2       40       67       73       74 </v>
   <v type="int" >        2       41       46       47       72 </v>
   <v type="int" >        2       40       41       46       72 </v>
   <v type="int" >        2       40       41       72       74 </v>
   <v type="int" >        2       41       47       71       72 </v>
   <v type="int" >        2       41       71       72       75 </v>
   <v type="int" >        2       41       72       74       75 </v>
   <v type="int" >        2       42       47       48       71 </v>
   <v type="int" >        2       41       42       47       71 </v>
   <v type="int" >        2       41       42       71       75 </v>
   <v type="int" >        2       42       48       70       71 </v>
   <v type="int" >        2       42       70       71       76 </v>
   <v type="int" >        2       42       71       75       76 </v>
   <v type="int" >        2       43       48       49       70 </v>
   <v type="int" >        2       42       43       48       70 </v>
   <v type="int" >        2       42       43       70       76 </v>
   <v type="int" >        2       43       49       69       70 </v>
   <v type="int" >        2       43       69       70       75 </v>
   <v type="int" >        2       43       70       75       76 </v>
   <v type="int" >        2       44       49       50       69 </v>
   <v type="int" >        2       43       44       49       69 </v>
   <v type="int" >        2       43       44       69       75 </v>
   <v type="int" >        2       44       50       68       69 </v>
   <v type="int" >        2       44       68       69       74 </v>
   <v type="int" >        2       44       69       74       75 </v>
   <v type="int" >        2       39       45       50       68 </v>
   <v type="int" >        2       39       44       50       68 </v>
   <v type="int" >        2       39       44       68       74 </v>
   <v type="int" >        2       39       45       67       68 </v>
   <v type="int" >        2       39       67       68       73 </v>
   <v type="int" >        2       39       68       73       74 </v>
   <v type="int" >        2       46       51       52       61 </v>
   <v type="int" >        2       45       46       51       61 </v>
   <v type="int" >        2       45       46       61       67 </v>
   <v type="int" >        2       46       52       61       66 </v>
   <v type="int" >        2       46       61       66       72 </v>
   <v type="int" >        2       46       61       67       72 </v>
   <v type="int" >        2       47       52       53       66 </v>
   <v type="int" >        2       46       47       52       66 </v>
   <v type="int" >        2       46       47       66       72 </v>
   <v type="int" >        2       47       53       65       66 </v>
   <v type="int" >        2       47       65       66       71 </v>
   <v type="int" >        2       47       66       71       72 </v>
   <v type="int" >        2       48       53       54       65 </v>
   <v type="int" >        2       47       48       53       65 </v>
   <v type="int" >        2       47       48       65       71 </v>
   <v type="int" >        2       48       54       64       65 </v>
   <v type="int" >        2       48       64       65       70 </v>
   <v type="int" >        2       48       65       70       71 </v>
   <v type="int" >        2       49       54       55       64 </v>
   <v type="int" >        2       48       49       54       64 </v>
   <v type="int" >        2       48       49       64       70 </v>
   <v type="int" >        2       49       55       63       64 </v>
   <v type="int" >        2       49       63       64       69 </v>
   <v type="int" >        2       49       64       69       70 </v>
   <v type="int" >        2       50       55       56       63 </v>
   <v type="int" >        2       49       50       55       63 </v>
   <v type="int" >        2       49       50       63       69 </v>
   <v type="int" >        2       50       56       62       63 </v>
   <v type="int" >        2       50       62       63       68 </v>
   <v type="int" >        2       50       63       68       69 </v>
   <v type="int" >        2       45       51       56       62 </v>
   <v type="int" >        2       45       50       56       62 </v>
   <v type="int" >        2       45       50       62       68 </v>
   <v type="int" >        2       45       51       61       62 </v>
   <v type="int" >        2       45       61       62       67 </v>
   <v type="int" >        2       45       62       67       68 </v>
   <v type="int" >        2       21       22       52       57 </v>
   <v type="int" >        2       21       51       52       57 </v>
   <v type="int" >        2       51       52       57       61 </v>
   <v type="int" >        2       22       52       57       58 </v>
   <v type="int" >        2       52       57       58       66 </v>
   <v type="int" >        2       52       57       61       66 </v>
   <v type="int" >        2       22       23       53       58 </v>
   <v type="int" >        2       22       52       53       58 </v>
   <v type="int" >        2       52       53       58       66 </v>
   <v type="int" >        2       23       53       58       59 </v>
   <v type="int" >        2       53       58       59       65 </v>
   <v type="int" >        2       53       58       65       66 </v>
   <v type="int" >        2       23       24       54       59 </v>
   <v type="int" >        2       23       53       54       59 </v>
   <v type="int" >        2       53       54       59       65 </v>
   <v type="int" >        2       24       54       59       60 </v>
   <v type="int" >        2       54       59       60       64 </v>
   <v type="int" >        2       54       59       64       65 </v>
   <v type="int" >        2       24       25       55       60 </v>
   <v type="int" >        2       24       54       55       60 </v>
   <v type="int" >        2       54       55       60       64 </v>
   <v type="int" >        2       25       55       59       60 </v>
   <v type="int" >        2       55       59       60       63 </v>
   <v type="int" >        2       55       60       63       64 </v>
   <v type="int" >        2       25       26       56       59 </v>
   <v type="int" >        2       25       55       56       59 </v>
   <v type="int" >        2       55       56       59       63 </v>
   <v type="int" >        2       26       56       58       59 </v>
   <v type="int" >        2       56       58       59       62 </v>
   <v type="int" >        2       56       59       62       63 </v>
   <v type="int" >        2       21       26       51       58 </v>
   <v type="int" >        2       26       51       56       58 </v>
   <v type="int" >        2       51       56       58       62 </v>
   <v type="int" >        2       21       51       57       58 </v>
   <v type="int" >        2       51       57       58       61 </v>
   <v type="int" >        2       51       58       61       62 </v>
  </varray>
  <i name="volumeweight">      0.00115741 </i>
 </kpoints>
 <parameters>
  <separator name="general" >
   <i type="string" name="SYSTEM">graphite</i>
   <i type="logical" name="LCOMPAT"> F  </i>
  </separator>
  <separator name="electronic" >
   <i type="string" name="PREC">accura</i>
   <i name="ENMAX">    800.00000000</i>
   <i name="ENAUG">    644.87300000</i>
   <i name="EDIFF">      0.00000001</i>
   <i type="int" name="IALGO">    38</i>
   <i type="int" name="IWAVPR">    10</i>
   <i type="int" name="NBANDS">    84</i>
   <i name="NELECT">    128.00000000</i>
   <i type="int" name="TURBO">     0</i>
   <i type="int" name="IRESTART">     0</i>
   <i type="int" name="NREBOOT">     0</i>
   <i type="int" name="NMIN">     0</i>
   <i name="EREF">      0.00000000</i>
   <separator name="electronic smearing" >
    <i type="int" name="ISMEAR">    -5</i>
    <i name="SIGMA">      0.20000000</i>
    <i name="KSPACING">      0.50000000</i>
    <i type="logical" name="KGAMMA"> T  </i>
   </separator>
   <separator name="electronic projectors" >
    <i type="logical" name="LREAL"> F  </i>
    <v name="ROPT">      0.00000000</v>
    <i type="int" name="LMAXPAW">  -100</i>
    <i type="int" name="LMAXMIX">     2</i>
    <i type="logical" name="NLSPLINE"> F  </i>
   </separator>
   <separator name="electronic startup" >
    <i type="int" name="ISTART">     0</i>
    <i type="int" name="ICHARG">     2</i>
    <i type="int" name="INIWAV">     1</i>
   </separator>
   <separator name="electronic spin" >
    <i type="int" name="ISPIN">     1</i>
    <i type="logical" name="LNONCOLLINEAR"> F  </i>
    <v name="MAGMOM">      1.00000000      1.00000000      1.00000000      1.00000000      1.00000000      1.00000000      1.00000000      1.00000000      1.00000000      1.00000000      1.00000000      1.00000000      1.00000000      1.00000000      1.00000000      1.00000000      1.00000000      1.00000000      1.00000000      1.00000000
      1.00000000      1.00000000      1.00000000      1.00000000      1.00000000      1.00000000      1.00000000      1.00000000      1.00000000      1.00000000      1.00000000      1.00000000</v>
    <i name="NUPDOWN">     -1.00000000</i>
    <i type="logical" name="LSORBIT"> F  </i>
    <v name="SAXIS">      0.00000000      0.00000000      1.00000000</v>
    <i type="logical" name="LSPIRAL"> F  </i>
    <v name="QSPIRAL">      0.00000000      0.00000000      0.00000000</v>
    <i type="logical" name="LZEROZ"> F  </i>
   </separator>
   <separator name="electronic exchange-correlation" >
    <i type="logical" name="LASPH"> F  </i>
    <i type="logical" name="LMETAGGA"> F  </i>
   </separator>
   <separator name="electronic convergence" >
    <i type="int" name="NELM">   200</i>
    <i type="int" name="NELMDL">     0</i>
    <i type="int" name="NELMIN">     2</i>
    <i name="ENINI">    800.00000000</i>
    <separator name="electronic convergence detail" >
     <i type="logical" name="LDIAG"> T  </i>
     <i type="logical" name="LSUBROT"> F  </i>
     <i name="WEIMIN">      0.00000000</i>
     <i name="EBREAK">      0.00000000</i>
     <i name="DEPER">      0.30000000</i>
     <i type="int" name="NRMM">     4</i>
     <i name="TIME">      0.40000000</i>
    </separator>
   </separator>
   <separator name="electronic mixer" >
    <i name="AMIX">      0.40000000</i>
    <i name="BMIX">      1.00000000</i>
    <i name="AMIN">      0.10000000</i>
    <i name="AMIX_MAG">      1.60000000</i>
    <i name="BMIX_MAG">      1.00000000</i>
    <separator name="electronic mixer details" >
     <i type="int" name="IMIX">     4</i>
     <i type="int" name="MAXMIX">   -45</i>
     <i name="WC">    100.00000000</i>
     <i type="int" name="INIMIX">     1</i>
     <i type="int" name="MIXPRE">     1</i>
     <i type="int" name="MREMOVE">     5</i>
    </separator>
   </separator>
   <separator name="electronic dipolcorrection" >
    <i type="logical" name="LDIPOL"> F  </i>
    <i type="logical" name="LMONO"> F  </i>
    <i type="int" name="IDIPOL">     0</i>
    <i name="EPSILON">      1.00000000</i>
    <v name="DIPOL">   -100.00000000   -100.00000000   -100.00000000</v>
    <i name="EFIELD">      0.00000000</i>
   </separator>
  </separator>
  <separator name="grids" >
   <i type="int" name="NGX">    48</i>
   <i type="int" name="NGY">    48</i>
   <i type="int" name="NGZ">   126</i>
   <i type="int" name="NGXF">    96</i>
   <i type="int" name="NGYF">    96</i>
   <i type="int" name="NGZF">   252</i>
   <i type="logical" name="ADDGRID"> F  </i>
  </separator>
  <separator name="ionic" >
   <i type="int" name="NSW">     0</i>
   <i type="int" name="IBRION">    -1</i>
   <i type="int" name="ISIF">     2</i>
   <i name="PSTRESS">      0.00000000</i>
   <i name="EDIFFG">      0.00100000</i>
   <i type="int" name="NFREE">     0</i>
   <i name="POTIM">      0.50000000</i>
   <i name="SMASS">     -3.00000000</i>
   <i name="SCALEE">      1.00000000</i>
  </separator>
  <separator name="ionic md" >
   <i name="TEBEG">      0.00010000</i>
   <i name="TEEND">      0.00010000</i>
   <i type="int" name="NBLOCK">     1</i>
   <i type="int" name="KBLOCK">     1</i>
   <i type="int" name="NPACO">   256</i>
   <i name="APACO">     16.00000000</i>
  </separator>
  <separator name="symmetry" >
   <i type="int" name="ISYM">     2</i>
   <i name="SYMPREC">      0.00001000</i>
  </separator>
  <separator name="dos" >
   <i type="logical" name="LORBIT"> F  </i>
   <v name="RWIGS">     -1.00000000</v>
   <i type="int" name="NEDOS">   301</i>
   <i name="EMIN">     10.00000000</i>
   <i name="EMAX">    -10.00000000</i>
   <i name="EFERMI">      0.00000000</i>
  </separator>
  <separator name="writing" >
   <i type="int" name="NWRITE">     2</i>
   <i type="logical" name="LWAVE"> F  </i>
   <i type="logical" name="LCHARG"> F  </i>
   <i type="logical" name="LPARD"> F  </i>
   <i type="logical" name="LVTOT"> F  </i>
   <i type="logical" name="LVHAR"> F  </i>
   <i type="logical" name="LELF"> F  </i>
   <i type="logical" name="LOPTICS"> F  </i>
   <v name="STM">      0.00000000      0.00000000      0.00000000      0.00000000      0.00000000      0.00000000      0.00000000</v>
  </separator>
  <separator name="performance" >
   <i type="int" name="NPAR">     6</i>
   <i type="int" name="NSIM">     4</i>
   <i type="int" name="NBLK">    -1</i>
   <i type="logical" name="LPLANE"> T  </i>
   <i type="logical" name="LSCALAPACK"> T  </i>
   <i type="logical" name="LSCAAWARE"> F  </i>
   <i type="logical" name="LSCALU"> F  </i>
   <i type="logical" name="LASYNC"> F  </i>
   <i type="logical" name="LORBITALREAL"> F  </i>
  </separator>
  <separator name="miscellaneous" >
   <i type="int" name="IDIOT">     3</i>
   <i type="logical" name="LMUSIC"> F  </i>
   <v name="POMASS">     12.01100000</v>
   <v name="DARWINR">      0.00000000</v>
   <v name="DARWINV">      1.00000000</v>
   <i type="logical" name="LCORR"> T  </i>
  </separator>
  <i type="logical" name="GGA_COMPAT"> T  </i>
  <i type="logical" name="LBERRY"> F  </i>
  <i type="int" name="ICORELEVEL">     0</i>
  <i type="logical" name="LDAU"> F  </i>
  <i type="int" name="I_CONSTRAINED_M">     0</i>
  <separator name="electronic exchange-correlation" >
   <i type="string" name="GGA">PE</i>
   <i type="int" name="VOSKOWN">     0</i>
   <i type="logical" name="LHFCALC"> F  </i>
   <i type="string" name="PRECFOCK"></i>
   <i type="logical" name="LSYMGRAD"> F  </i>
   <i type="logical" name="LHFONE"> F  </i>
   <i type="logical" name="LRHFCALC"> F  </i>
   <i type="logical" name="LTHOMAS"> F  </i>
   <i type="logical" name="LMODELHF"> F  </i>
   <i name="ENCUT4O">     -1.00000000</i>
   <i type="int" name="EXXOEP">     0</i>
   <i type="int" name="FOURORBIT">     0</i>
   <i name="AEXX">      0.00000000</i>
   <i name="HFALPHA">      0.00000000</i>
   <i name="MCALPHA">      0.00000000</i>
   <i name="ALDAX">      1.00000000</i>
   <i name="AGGAX">      1.00000000</i>
   <i name="ALDAC">      1.00000000</i>
   <i name="AGGAC">      1.00000000</i>
   <i type="int" name="NKREDX">     1</i>
   <i type="int" name="NKREDY">     1</i>
   <i type="int" name="NKREDZ">     1</i>
   <i type="logical" name="SHIFTRED"> F  </i>
   <i type="logical" name="ODDONLY"> F  </i>
   <i type="logical" name="EVENONLY"> F  </i>
   <i type="int" name="LMAXFOCK">     0</i>
   <i type="int" name="NMAXFOCKAE">     0</i>
   <i type="logical" name="LFOCKAEDFT"> F  </i>
   <i name="HFSCREEN">      0.00000000</i>
   <i name="HFSCREENC">      0.00000000</i>
   <i type="int" name="NBANDSGWLOW">     0</i>
  </separator>
  <separator name="vdW DFT" >
   <i type="logical" name="LUSE_VDW"> F  </i>
   <i name="Zab_VDW">     -0.84910000</i>
   <i name="PARAM1">      0.12340000</i>
   <i name="PARAM2">      1.00000000</i>
   <i name="PARAM3">      0.00000000</i>
  </separator>
  <separator name="model GW" >
   <i type="int" name="MODEL_GW">     0</i>
   <i name="MODEL_EPS0">      5.32812634</i>
   <i name="MODEL_ALPHA">      1.00000000</i>
  </separator>
  <separator name="linear response parameters" >
   <i type="logical" name="LEPSILON"> F  </i>
   <i type="logical" name="LRPA"> F  </i>
   <i type="logical" name="LNABLA"> F  </i>
   <i type="logical" name="LVEL"> F  </i>
   <i type="int" name="KINTER">     0</i>
   <i name="CSHIFT">      0.10000000</i>
   <i name="OMEGAMAX">     -1.00000000</i>
   <i name="DEG_THRESHOLD">      0.00200000</i>
  </separator>
  <separator name="orbital magnetization" >
   <i type="logical" name="NUCIND"> F  </i>
   <v name="MAGPOS">      0.00000000      0.00000000      0.00000000</v>
   <i type="logical" name="LNICSALL"> T  </i>
   <i type="logical" name="ORBITALMAG"> F  </i>
   <i type="logical" name="LMAGBLOCH"> F  </i>
   <i type="logical" name="LCHIMAG"> F  </i>
   <i type="logical" name="LGAUGE"> T  </i>
   <i type="int" name="MAGATOM">     0</i>
   <v name="MAGDIPOL">      0.00000000      0.00000000      0.00000000</v>
   <v name="AVECCONST">      0.00000000      0.00000000      0.00000000</v>
  </separator>
  <separator name="response functions" >
   <i type="logical" name="LADDER"> F  </i>
   <i type="logical" name="LFXC"> F  </i>
   <i type="logical" name="LHARTREE"> T  </i>
   <i type="int" name="IBSE">     0</i>
   <i type="logical" name="LTCTE"> F  </i>
   <i type="logical" name="LTETE"> F  </i>
   <i type="logical" name="LTRIPLET"> F  </i>
   <i type="logical" name="LFXCEPS"> F  </i>
   <i type="logical" name="LFXHEG"> F  </i>
   <i type="logical" name="L2ORDER"> F  </i>
   <i type="logical" name="LUSEW"> F  </i>
   <i name="ENCUTGW">     -2.00000000</i>
   <i name="ENCUTGWSOFT">     -2.00000000</i>
   <i name="ENCUTLF">     -1.00000000</i>
   <i type="int" name="LMAXMP2">    -1</i>
   <i name="SCISSOR">      0.00000000</i>
   <i type="int" name="NOMEGA">     0</i>
   <i type="int" name="NOMEGAR">     0</i>
   <i type="int" name="NBANDSGW">    -1</i>
   <i type="int" name="NBANDSO">    -1</i>
   <i type="int" name="NBANDSV">    -1</i>
   <i type="int" name="NELM">   200</i>
   <i type="int" name="DIM">     3</i>
   <i type="int" name="ANTIRES">     0</i>
   <i name="OMEGAMAX">    -30.00000000</i>
   <i name="OMEGAMIN">    -30.00000000</i>
   <i name="OMEGATL">   -200.00000000</i>
   <i type="int" name="OMEGAGRID">     0</i>
   <i name="CSHIFT">     -0.10000000</i>
   <i type="logical" name="SELFENERGY"> F  </i>
   <i type="logical" name="LSPECTRAL"> F  </i>
   <i type="logical" name="ODDONLYGW"> F  </i>
   <i type="logical" name="EVENONLYGW"> F  </i>
   <i type="int" name="NKREDLFX">     1</i>
   <i type="int" name="NKREDLFY">     1</i>
   <i type="int" name="NKREDLFZ">     1</i>
   <i type="int" name="MAXMEM">  1800</i>
   <i type="int" name="TELESCOPE">     0</i>
   <i type="int" name="TAUPAR">     1</i>
  </separator>
  <separator name="External order field" >
   <i name="OFIELD_KAPPA">      0.00000000</i>
   <v name="OFIELD_K">      0.00000000      0.00000000      0.00000000</v>
   <i name="OFIELD_Q6_NEAR">      0.00000000</i>
   <i name="OFIELD_Q6_FAR">      0.00000000</i>
   <i name="OFIELD_A">      0.00000000</i>
  </separator>
 </parameters>
 <atominfo>
  <atoms>      32 </atoms>
  <types>       1 </types>
  <array name="atoms" >
   <dimension dim="1">ion</dimension>
   <field type="string">element</field>
   <field type="int">atomtype</field>
   <set>
    <rc><c>C </c><c>   1</c></rc>
    <rc><c>C </c><c>   1</c></rc>
    <rc><c>C </c><c>   1</c></rc>
    <rc><c>C </c><c>   1</c></rc>
    <rc><c>C </c><c>   1</c></rc>
    <rc><c>C </c><c>   1</c></rc>
    <rc><c>C </c><c>   1</c></rc>
    <rc><c>C </c><c>   1</c></rc>
    <rc><c>C </c><c>   1</c></rc>
    <rc><c>C </c><c>   1</c></rc>
    <rc><c>C </c><c>   1</c></rc>
    <rc><c>C </c><c>   1</c></rc>
    <rc><c>C </c><c>   1</c></rc>
    <rc><c>C </c><c>   1</c></rc>
    <rc><c>C </c><c>   1</c></rc>
    <rc><c>C </c><c>   1</c></rc>
    <rc><c>C </c><c>   1</c></rc>
    <rc><c>C </c><c>   1</c></rc>
    <rc><c>C </c><c>   1</c></rc>
    <rc><c>C </c><c>   1</c></rc>
    <rc><c>C </c><c>   1</c></rc>
    <rc><c>C </c><c>   1</c></rc>
    <rc><c>C </c><c>   1</c></rc>
    <rc><c>C </c><c>   1</c></rc>
    <rc><c>C </c><c>   1</c></rc>
    <rc><c>C </c><c>   1</c></rc>
    <rc><c>C </c><c>   1</c></rc>
    <rc><c>C </c><c>   1</c></rc>
    <rc><c>C </c><c>   1</c></rc>
    <rc><c>C </c><c>   1</c></rc>
    <rc><c>C </c><c>   1</c></rc>
    <rc><c>C </c><c>   1</c></rc>
   </set>
  </array>
  <array name="atomtypes" >
   <dimension dim="1">type</dimension>
   <field type="int">atomspertype</field>
   <field type="string">element</field>
   <field>mass</field>
   <field>valence</field>
   <field type="string">pseudopotential</field>
   <set>
    <rc><c>  32</c><c>C </c><c>     12.01100000</c><c>      4.00000000</c><c> PAW_PBE C 08Apr2002                    </c></rc>
   </set>
  </array>
 </atominfo>
 <structure name="initialpos" >
  <crystal>
   <varray name="basis" >
    <v>       4.93287450      -0.00191929       0.00000000 </v>
    <v>      -2.46809940       4.27103499       0.00000000 </v>
    <v>       0.00000000       0.00000000      13.49080000 </v>
   </varray>
   <i name="volume">    284.16673831 </i>
   <varray name="rec_basis" >
    <v>       0.20276715       0.11717288       0.00000000 </v>
    <v>       0.00009112       0.23418794       0.00000000 </v>
    <v>       0.00000000       0.00000000       0.07412459 </v>
   </varray>
  </crystal>
  <varray name="positions" >
   <v>       0.49967330       0.00032672       0.12500000 </v>
   <v>       0.99967330       0.00032672       0.12500000 </v>
   <v>       0.49967330       0.50032672       0.12500000 </v>
   <v>       0.99967330       0.50032672       0.12500000 </v>
   <v>       0.49967330       0.00032672       0.62500000 </v>
   <v>       0.99967330       0.00032672       0.62500000 </v>
   <v>       0.49967330       0.50032672       0.62500000 </v>
   <v>       0.99967330       0.50032672       0.62500000 </v>
   <v>       0.00032672       0.49967330       0.37500000 </v>
   <v>       0.50032672       0.49967330       0.37500000 </v>
   <v>       0.00032672       0.99967330       0.37500000 </v>
   <v>       0.50032672       0.99967330       0.37500000 </v>
   <v>       0.00032672       0.49967330       0.87500000 </v>
   <v>       0.50032672       0.49967330       0.87500000 </v>
   <v>       0.00032672       0.99967330       0.87500000 </v>
   <v>       0.50032672       0.99967330       0.87500000 </v>
   <v>       0.16698863       0.33370753       0.12569617 </v>
   <v>       0.66629246       0.33370753       0.12500000 </v>
   <v>       0.16629246       0.83370753       0.12500000 </v>
   <v>       0.66629246       0.83370753       0.12500000 </v>
   <v>       0.16629246       0.33370753       0.62500000 </v>
   <v>       0.66629246       0.33370753       0.62500000 </v>
   <v>       0.16629246       0.83370753       0.62500000 </v>
   <v>       0.66629246       0.83370753       0.62500000 </v>
   <v>       0.33370753       0.16629246       0.37500000 </v>
   <v>       0.83370753       0.16629246       0.37500000 </v>
   <v>       0.33370753       0.66629246       0.37500000 </v>
   <v>       0.83370753       0.66629246       0.37500000 </v>
   <v>       0.33370753       0.16629246       0.87500000 </v>
   <v>       0.83370753       0.16629246       0.87500000 </v>
   <v>       0.33370753       0.66629246       0.87500000 </v>
   <v>       0.83370753       0.66629246       0.87500000 </v>
  </varray>
 </structure>
 <calculation>
  <scstep>
   <time name="dav">  445.68  671.71</time>
   <time name="total">  447.92  674.82</time>
   <energy>
    <i name="alphaZ">    293.61525009 </i>
    <i name="ewald">  -3659.67107991 </i>
    <i name="hartreedc">  -1205.23126300 </i>
    <i name="XCdc">    443.02934128 </i>
    <i name="pawpsdc">   1210.60617908 </i>
    <i name="pawaedc">  -1247.42152856 </i>
    <i name="eentropy">      0.00000000 </i>
    <i name="bandstr">    162.35941081 </i>
    <i name="atom">   4708.94155045 </i>
    <i name="e_fr_energy">    706.22786025 </i>
    <i name="e_wo_entrp">    706.22786025 </i>
    <i name="e_0_energy">    706.22786025 </i>
   </energy>
  </scstep>
  <scstep>
   <time name="dav">  514.78  772.92</time>
   <time name="total">  514.84  773.09</time>
   <energy>
    <i name="e_fr_energy">   -254.66834775 </i>
    <i name="e_wo_entrp">   -254.66834775 </i>
    <i name="e_0_energy">   -254.66834775 </i>
   </energy>
  </scstep>
  <scstep>
   <time name="dav">  505.14  759.45</time>
   <time name="total">  505.21  759.57</time>
   <energy>
    <i name="e_fr_energy">   -312.66247841 </i>
    <i name="e_wo_entrp">   -312.66247841 </i>
    <i name="e_0_energy">   -312.66247841 </i>
   </energy>
  </scstep>
  <scstep>
   <time name="dav">  471.16  710.55</time>
   <time name="total">  471.21  710.63</time>
   <energy>
    <i name="e_fr_energy">   -313.80957283 </i>
    <i name="e_wo_entrp">   -313.80957283 </i>
    <i name="e_0_energy">   -313.80957283 </i>
   </energy>
  </scstep>
  <scstep>
   <time name="dav">  509.68  766.53</time>
   <time name="total">  515.96  777.03</time>
   <energy>
    <i name="e_fr_energy">   -313.84346847 </i>
    <i name="e_wo_entrp">   -313.84346847 </i>
    <i name="e_0_energy">   -313.84346847 </i>
   </energy>
  </scstep>
  <scstep>
   <time name="dav">  484.18  728.76</time>
   <time name="total">  494.08  742.75</time>
   <energy>
    <i name="e_fr_energy">   -299.39377475 </i>
    <i name="e_wo_entrp">   -299.39377475 </i>
    <i name="e_0_energy">   -299.39377475 </i>
   </energy>
  </scstep>
  <scstep>
   <time name="dav">  470.55  705.04</time>
   <time name="total">  480.50  721.28</time>
   <energy>
    <i name="e_fr_energy">   -294.80936616 </i>
    <i name="e_wo_entrp">   -294.80936616 </i>
    <i name="e_0_energy">   -294.80936616 </i>
   </energy>
  </scstep>
  <scstep>
   <time name="dav">  466.71  489.81</time>
   <time name="total">  476.12  499.92</time>
   <energy>
    <i name="e_fr_energy">   -294.87164745 </i>
    <i name="e_wo_entrp">   -294.87164745 </i>
    <i name="e_0_energy">   -294.87164745 </i>
   </energy>
  </scstep>
  <scstep>
   <time name="dav">  487.04  487.29</time>
   <time name="total">  495.93  496.18</time>
   <energy>
    <i name="e_fr_energy">   -294.87382889 </i>
    <i name="e_wo_entrp">   -294.87382889 </i>
    <i name="e_0_energy">   -294.87382889 </i>
   </energy>
  </scstep>
  <scstep>
   <time name="dav">  486.23  486.47</time>
   <time name="total">  495.89  496.14</time>
   <energy>
    <i name="e_fr_energy">   -294.86939253 </i>
    <i name="e_wo_entrp">   -294.86939253 </i>
    <i name="e_0_energy">   -294.86939253 </i>
   </energy>
  </scstep>
  <scstep>
   <time name="dav">  570.88  571.16</time>
   <time name="total">  580.81  581.10</time>
   <energy>
    <i name="e_fr_energy">   -294.87127715 </i>
    <i name="e_wo_entrp">   -294.87127715 </i>
    <i name="e_0_energy">   -294.87127715 </i>
   </energy>
  </scstep>
  <scstep>
   <time name="dav">  473.47  473.70</time>
   <time name="total">  483.15  483.39</time>
   <energy>
    <i name="e_fr_energy">   -294.86920791 </i>
    <i name="e_wo_entrp">   -294.86920791 </i>
    <i name="e_0_energy">   -294.86920791 </i>
   </energy>
  </scstep>
  <scstep>
   <time name="dav">  463.79  464.02</time>
   <time name="total">  471.67  472.01</time>
   <energy>
    <i name="e_fr_energy">   -294.86960259 </i>
    <i name="e_wo_entrp">   -294.86960259 </i>
    <i name="e_0_energy">   -294.86960259 </i>
   </energy>
  </scstep>
  <scstep>
   <time name="dav">  463.64  463.86</time>
   <time name="total">  472.93  473.17</time>
   <energy>
    <i name="e_fr_energy">   -294.86991266 </i>
    <i name="e_wo_entrp">   -294.86991266 </i>
    <i name="e_0_energy">   -294.86991266 </i>
   </energy>
  </scstep>
  <scstep>
   <time name="dav">  483.18  483.42</time>
   <time name="total">  492.67  492.92</time>
   <energy>
    <i name="e_fr_energy">   -294.86971637 </i>
    <i name="e_wo_entrp">   -294.86971637 </i>
    <i name="e_0_energy">   -294.86971637 </i>
   </energy>
  </scstep>
  <scstep>
   <time name="dav">  600.64  600.94</time>
   <time name="total">  609.64  609.94</time>
   <energy>
    <i name="e_fr_energy">   -294.86986579 </i>
    <i name="e_wo_entrp">   -294.86986579 </i>
    <i name="e_0_energy">   -294.86986579 </i>
   </energy>
  </scstep>
  <scstep>
   <time name="dav">  454.48  454.71</time>
   <time name="total">  463.55  463.78</time>
   <energy>
    <i name="e_fr_energy">   -294.86962148 </i>
    <i name="e_wo_entrp">   -294.86962148 </i>
    <i name="e_0_energy">   -294.86962148 </i>
   </energy>
  </scstep>
  <scstep>
   <time name="dav">  557.69  557.97</time>
   <time name="total">  567.32  567.60</time>
   <energy>
    <i name="e_fr_energy">   -294.86962181 </i>
    <i name="e_wo_entrp">   -294.86962181 </i>
    <i name="e_0_energy">   -294.86962181 </i>
   </energy>
  </scstep>
  <scstep>
   <time name="dav">  694.29  694.63</time>
   <time name="total">  703.93  704.29</time>
   <energy>
    <i name="e_fr_energy">   -294.86958490 </i>
    <i name="e_wo_entrp">   -294.86958490 </i>
    <i name="e_0_energy">   -294.86958490 </i>
   </energy>
  </scstep>
  <scstep>
   <time name="dav">  726.49  726.85</time>
   <time name="total">  737.58  737.95</time>
   <energy>
    <i name="e_fr_energy">   -294.86960272 </i>
    <i name="e_wo_entrp">   -294.86960272 </i>
    <i name="e_0_energy">   -294.86960272 </i>
   </energy>
  </scstep>
  <scstep>
   <time name="dav">  664.01  664.35</time>
   <time name="total">  673.92  674.26</time>
   <energy>
    <i name="e_fr_energy">   -294.86958649 </i>
    <i name="e_wo_entrp">   -294.86958649 </i>
    <i name="e_0_energy">   -294.86958649 </i>
   </energy>
  </scstep>
  <scstep>
   <time name="dav">  581.26  581.55</time>
   <time name="total">  590.66  590.95</time>
   <energy>
    <i name="e_fr_energy">   -294.86959938 </i>
    <i name="e_wo_entrp">   -294.86959938 </i>
    <i name="e_0_energy">   -294.86959938 </i>
   </energy>
  </scstep>
  <scstep>
   <time name="dav">  663.38  663.71</time>
   <time name="total">  674.61  674.95</time>
   <energy>
    <i name="e_fr_energy">   -294.86958246 </i>
    <i name="e_wo_entrp">   -294.86958246 </i>
    <i name="e_0_energy">   -294.86958246 </i>
   </energy>
  </scstep>
  <scstep>
   <time name="dav">  562.30  562.58</time>
   <time name="total">  573.16  573.45</time>
   <energy>
    <i name="e_fr_energy">   -294.86958052 </i>
    <i name="e_wo_entrp">   -294.86958052 </i>
    <i name="e_0_energy">   -294.86958052 </i>
   </energy>
  </scstep>
  <scstep>
   <time name="dav">  592.56  592.85</time>
   <time name="total">  602.43  602.73</time>
   <energy>
    <i name="e_fr_energy">   -294.86958020 </i>
    <i name="e_wo_entrp">   -294.86958020 </i>
    <i name="e_0_energy">   -294.86958020 </i>
   </energy>
  </scstep>
  <scstep>
   <time name="dav">  524.46  524.72</time>
   <time name="total">  535.40  535.67</time>
   <energy>
    <i name="e_fr_energy">   -294.86958034 </i>
    <i name="e_wo_entrp">   -294.86958034 </i>
    <i name="e_0_energy">   -294.86958034 </i>
   </energy>
  </scstep>
  <scstep>
   <time name="dav">  579.35  579.63</time>
   <time name="total">  590.70  591.00</time>
   <energy>
    <i name="e_fr_energy">   -294.86958154 </i>
    <i name="e_wo_entrp">   -294.86958154 </i>
    <i name="e_0_energy">   -294.86958154 </i>
   </energy>
  </scstep>
  <scstep>
   <time name="dav">  541.13  541.40</time>
   <time name="total">  551.58  551.86</time>
   <energy>
    <i name="e_fr_energy">   -294.86958132 </i>
    <i name="e_wo_entrp">   -294.86958132 </i>
    <i name="e_0_energy">   -294.86958132 </i>
   </energy>
  </scstep>
  <scstep>
   <time name="dav">  444.75  444.97</time>
   <time name="total">  454.22  454.45</time>
   <energy>
    <i name="e_fr_energy">   -294.86958057 </i>
    <i name="e_wo_entrp">   -294.86958057 </i>
    <i name="e_0_energy">   -294.86958057 </i>
   </energy>
  </scstep>
  <scstep>
   <time name="dav">  445.89  446.11</time>
   <time name="total">  455.52  455.75</time>
   <energy>
    <i name="e_fr_energy">   -294.86958100 </i>
    <i name="e_wo_entrp">   -294.86958100 </i>
    <i name="e_0_energy">   -294.86958100 </i>
   </energy>
  </scstep>
  <scstep>
   <time name="dav">  505.59  505.84</time>
   <time name="total">  515.01  515.27</time>
   <energy>
    <i name="e_fr_energy">   -294.86958015 </i>
    <i name="e_wo_entrp">   -294.86958015 </i>
    <i name="e_0_energy">   -294.86958015 </i>
   </energy>
  </scstep>
  <scstep>
   <time name="dav">  510.89  511.14</time>
   <time name="total">  520.58  520.85</time>
   <energy>
    <i name="e_fr_energy">   -294.86957990 </i>
    <i name="e_wo_entrp">   -294.86957990 </i>
    <i name="e_0_energy">   -294.86957990 </i>
   </energy>
  </scstep>
  <scstep>
   <time name="dav">  461.90  462.13</time>
   <time name="total">  471.79  472.03</time>
   <energy>
    <i name="e_fr_energy">   -294.86957989 </i>
    <i name="e_wo_entrp">   -294.86957989 </i>
    <i name="e_0_energy">   -294.86957989 </i>
   </energy>
  </scstep>
  <scstep>
   <time name="dav">  400.11  400.31</time>
   <time name="total">  409.29  409.50</time>
   <energy>
    <i name="e_fr_energy">   -294.86957988 </i>
    <i name="e_wo_entrp">   -294.86957988 </i>
    <i name="e_0_energy">   -294.86957988 </i>
   </energy>
  </scstep>
  <scstep>
   <time name="dav">  392.02  392.21</time>
   <time name="total">  401.60  401.80</time>
   <energy>
    <i name="e_fr_energy">   -294.86957990 </i>
    <i name="e_wo_entrp">   -294.86957990 </i>
    <i name="e_0_energy">   -294.86957990 </i>
   </energy>
  </scstep>
  <scstep>
   <time name="dav">  392.62  392.81</time>
   <time name="total">  402.41  402.61</time>
   <energy>
    <i name="e_fr_energy">   -294.86957988 </i>
    <i name="e_wo_entrp">   -294.86957988 </i>
    <i name="e_0_energy">   -294.86957988 </i>
   </energy>
  </scstep>
  <scstep>
   <time name="dav">  407.35  407.55</time>
   <time name="total">  417.27  417.48</time>
   <energy>
    <i name="e_fr_energy">   -294.86957989 </i>
    <i name="e_wo_entrp">   -294.86957989 </i>
    <i name="e_0_energy">   -294.86957989 </i>
   </energy>
  </scstep>
  <scstep>
   <time name="dav">  391.66  391.86</time>
   <time name="total">  402.67  402.87</time>
   <energy>
    <i name="e_fr_energy">   -294.86957987 </i>
    <i name="e_wo_entrp">   -294.86957987 </i>
    <i name="e_0_energy">   -294.86957987 </i>
   </energy>
  </scstep>
  <scstep>
   <time name="dav">  379.46  379.65</time>
   <time name="total">  389.27  389.47</time>
   <energy>
    <i name="e_fr_energy">   -294.86957990 </i>
    <i name="e_wo_entrp">   -294.86957990 </i>
    <i name="e_0_energy">   -294.86957990 </i>
   </energy>
  </scstep>
  <scstep>
   <time name="dav">  397.29  397.49</time>
   <time name="total">  406.65  406.86</time>
   <energy>
    <i name="e_fr_energy">   -294.86957988 </i>
    <i name="e_wo_entrp">   -294.86957988 </i>
    <i name="e_0_energy">   -294.86957988 </i>
   </energy>
  </scstep>
  <scstep>
   <time name="dav">  414.83  415.04</time>
   <time name="total">  425.30  425.53</time>
   <energy>
    <i name="e_fr_energy">   -294.86957990 </i>
    <i name="e_wo_entrp">   -294.86957990 </i>
    <i name="e_0_energy">   -294.86957990 </i>
   </energy>
  </scstep>
  <scstep>
   <time name="dav">  412.19  412.40</time>
   <time name="total">  413.76  413.97</time>
   <energy>
    <i name="alphaZ">    293.61525009 </i>
    <i name="ewald">  -3659.67107991 </i>
    <i name="hartreedc">  -1484.64498174 </i>
    <i name="XCdc">    461.10922321 </i>
    <i name="pawpsdc">   2222.70678121 </i>
    <i name="pawaedc">  -2263.92404789 </i>
    <i name="eentropy">      0.00000000 </i>
    <i name="bandstr">   -573.00227533 </i>
    <i name="atom">   4708.94155045 </i>
    <i name="e_fr_energy">   -294.86957989 </i>
    <i name="e_wo_entrp">   -294.86957989 </i>
    <i name="e_0_energy">   -294.86957989 </i>
   </energy>
  </scstep>
  <structure>
   <crystal>
    <varray name="basis" >
     <v>       4.93287450      -0.00191929       0.00000000 </v>
     <v>      -2.46809940       4.27103499       0.00000000 </v>
     <v>       0.00000000       0.00000000      13.49080000 </v>
    </varray>
    <i name="volume">    284.16673831 </i>
    <varray name="rec_basis" >
     <v>       0.20276715       0.11717288       0.00000000 </v>
     <v>       0.00009112       0.23418794       0.00000000 </v>
     <v>       0.00000000       0.00000000       0.07412459 </v>
    </varray>
   </crystal>
   <varray name="positions" >
    <v>       0.49967330       0.00032672       0.12500000 </v>
    <v>       0.99967330       0.00032672       0.12500000 </v>
    <v>       0.49967330       0.50032672       0.12500000 </v>
    <v>       0.99967330       0.50032672       0.12500000 </v>
    <v>       0.49967330       0.00032672       0.62500000 </v>
    <v>       0.99967330       0.00032672       0.62500000 </v>
    <v>       0.49967330       0.50032672       0.62500000 </v>
    <v>       0.99967330       0.50032672       0.62500000 </v>
    <v>       0.00032672       0.49967330       0.37500000 </v>
    <v>       0.50032672       0.49967330       0.37500000 </v>
    <v>       0.00032672       0.99967330       0.37500000 </v>
    <v>       0.50032672       0.99967330       0.37500000 </v>
    <v>       0.00032672       0.49967330       0.87500000 </v>
    <v>       0.50032672       0.49967330       0.87500000 </v>
    <v>       0.00032672       0.99967330       0.87500000 </v>
    <v>       0.50032672       0.99967330       0.87500000 </v>
    <v>       0.16698863       0.33370753       0.12569617 </v>
    <v>       0.66629246       0.33370753       0.12500000 </v>
    <v>       0.16629246       0.83370753       0.12500000 </v>
    <v>       0.66629246       0.83370753       0.12500000 </v>
    <v>       0.16629246       0.33370753       0.62500000 </v>
    <v>       0.66629246       0.33370753       0.62500000 </v>
    <v>       0.16629246       0.83370753       0.62500000 </v>
    <v>       0.66629246       0.83370753       0.62500000 </v>
    <v>       0.33370753       0.16629246       0.37500000 </v>
    <v>       0.83370753       0.16629246       0.37500000 </v>
    <v>       0.33370753       0.66629246       0.37500000 </v>
    <v>       0.83370753       0.66629246       0.37500000 </v>
    <v>       0.33370753       0.16629246       0.87500000 </v>
    <v>       0.83370753       0.16629246       0.87500000 </v>
    <v>       0.33370753       0.66629246       0.87500000 </v>
    <v>       0.83370753       0.66629246       0.87500000 </v>
   </varray>
  </structure>
  <varray name="forces" >
   <v>      -0.01956281       0.00763315       0.00822063 </v>
   <v>       0.00765869       0.00813483       0.04329674 </v>
   <v>       0.05329948       0.03393484       0.04288215 </v>
   <v>       0.05279846      -0.01838671       0.04362850 </v>
   <v>      -0.01155531       0.00798009      -0.00425087 </v>
   <v>      -0.01155493       0.00798097      -0.00423497 </v>
   <v>      -0.01155386       0.00798127      -0.00423904 </v>
   <v>      -0.01155306       0.00797896      -0.00422774 </v>
   <v>       0.01405497      -0.00966733       0.00462632 </v>
   <v>       0.01419095      -0.00960688       0.00478808 </v>
   <v>       0.01407583      -0.00969552       0.00470510 </v>
   <v>       0.01419691      -0.00965182       0.00401064 </v>
   <v>       0.01320865      -0.00638173       0.00478428 </v>
   <v>       0.01308972      -0.00622942       0.00457451 </v>
   <v>       0.01302258      -0.00626013       0.00466735 </v>
   <v>       0.01322755      -0.00630074       0.00398805 </v>
   <v>      -0.19502898      -0.00730025      -0.13543484 </v>
   <v>       0.05512251      -0.00636557      -0.00688002 </v>
   <v>       0.01915656      -0.02714191      -0.00694623 </v>
   <v>       0.01926455       0.01444485      -0.00691264 </v>
   <v>       0.00927606      -0.00666606       0.00072785 </v>
   <v>       0.00927210      -0.00666555       0.00054908 </v>
   <v>       0.00927459      -0.00666483       0.00054909 </v>
   <v>       0.00927453      -0.00666817       0.00055045 </v>
   <v>      -0.01273272       0.00853043      -0.00037056 </v>
   <v>      -0.01239629       0.00851743      -0.00030886 </v>
   <v>      -0.01254915       0.00824654      -0.00037315 </v>
   <v>      -0.01255988       0.00841624      -0.00064550 </v>
   <v>      -0.01042840       0.00487600      -0.00025143 </v>
   <v>      -0.01076628       0.00485893      -0.00043314 </v>
   <v>      -0.01057846       0.00515647      -0.00038010 </v>
   <v>      -0.01064457       0.00498163      -0.00065971 </v>
  </varray>
  <varray name="stress" >
   <v>      -3.02741489       2.76564256       0.11198801 </v>
   <v>       2.76564256       0.06080177      -0.05293421 </v>
   <v>       0.11198800      -0.05293423      -3.06751873 </v>
  </varray>
  <energy>
   <i name="e_fr_energy">   -299.84055287 </i>
   <i name="e_wo_entrp">   -299.84055287 </i>
   <i name="e_0_energy">      0.00000000 </i>
  </energy>
  <time name="totalsc">21490.0423252.26</time>
  <eigenvalues>
   <array>
    <dimension dim="1">band</dimension>
    <dimension dim="2">kpoint</dimension>
    <dimension dim="3">spin</dimension>
    <field>eigene</field>
    <field>occ</field>
    <set>
     <set comment="spin 1">
      <set comment="kpoint 1">
       <r>  -14.9961    1.0000 </r>
       <r>  -14.8570    1.0000 </r>
       <r>  -14.8564    1.0000 </r>
       <r>  -14.7080    1.0000 </r>
       <r>   -9.6780    1.0000 </r>
       <r>   -9.6677    1.0000 </r>
       <r>   -9.6648    1.0000 </r>
       <r>   -9.6211    1.0000 </r>
       <r>   -9.6195    1.0000 </r>
       <r>   -9.6093    1.0000 </r>
       <r>   -9.6079    1.0000 </r>
       <r>   -9.6079    1.0000 </r>
       <r>   -9.6039    1.0000 </r>
       <r>   -9.5720    1.0000 </r>
       <r>   -9.5592    1.0000 </r>
       <r>   -9.5566    1.0000 </r>
       <r>   -8.6017    1.0000 </r>
       <r>   -8.6005    1.0000 </r>
       <r>   -8.5993    1.0000 </r>
       <r>   -8.5713    1.0000 </r>
       <r>   -8.5706    1.0000 </r>
       <r>   -8.5684    1.0000 </r>
       <r>   -8.5679    1.0000 </r>
       <r>   -8.5679    1.0000 </r>
       <r>   -8.5654    1.0000 </r>
       <r>   -8.5205    1.0000 </r>
       <r>   -8.5196    1.0000 </r>
       <r>   -8.5172    1.0000 </r>
       <r>   -3.8495    1.0000 </r>
       <r>   -2.9864    1.0000 </r>
       <r>   -2.9846    1.0000 </r>
       <r>   -1.9367    1.0000 </r>
       <r>   -1.7756    1.0000 </r>
       <r>   -1.7734    1.0000 </r>
       <r>   -1.7578    1.0000 </r>
       <r>   -1.7498    1.0000 </r>
       <r>   -1.7490    1.0000 </r>
       <r>   -1.7490    1.0000 </r>
       <r>   -1.7450    1.0000 </r>
       <r>   -1.7323    1.0000 </r>
       <r>   -1.7303    1.0000 </r>
       <r>   -1.7229    1.0000 </r>
       <r>   -1.7202    1.0000 </r>
       <r>   -1.7048    1.0000 </r>
       <r>    1.6200    1.0000 </r>
       <r>    1.6271    1.0000 </r>
       <r>    1.6276    1.0000 </r>
       <r>    1.6328    1.0000 </r>
       <r>    1.6389    1.0000 </r>
       <r>    1.6438    1.0000 </r>
       <r>    1.6446    1.0000 </r>
       <r>    1.6512    1.0000 </r>
       <r>    1.8799    1.0000 </r>
       <r>    1.8830    1.0000 </r>
       <r>    1.8850    1.0000 </r>
       <r>    2.2681    1.0000 </r>
       <r>    2.2707    1.0000 </r>
       <r>    2.2779    1.0000 </r>
       <r>    2.2783    1.0000 </r>
       <r>    2.2783    1.0000 </r>
       <r>    2.2823    1.0000 </r>
       <r>    2.5371    1.0000 </r>
       <r>    2.5547    1.0000 </r>
       <r>    2.5564    1.0000 </r>
       <r>    6.1397    0.0000 </r>
       <r>    6.1419    0.0000 </r>
       <r>    6.1477    0.0000 </r>
       <r>    6.2819    0.0000 </r>
       <r>    6.2848    0.0000 </r>
       <r>    6.2869    0.0000 </r>
       <r>    6.2892    0.0000 </r>
       <r>    6.2896    0.0000 </r>
       <r>    6.2930    0.0000 </r>
       <r>    6.7965    0.0000 </r>
       <r>    6.8030    0.0000 </r>
       <r>    6.8063    0.0000 </r>
       <r>    8.8906    0.0000 </r>
       <r>   11.4845    0.0000 </r>
       <r>   11.4875    0.0000 </r>
       <r>   11.8334    0.0000 </r>
       <r>   11.8373    0.0000 </r>
       <r>   11.8690    0.0000 </r>
       <r>   12.0183    0.0000 </r>
       <r>   12.0253    0.0000 </r>
      </set>
      <set comment="kpoint 2">
       <r>  -14.8305    1.0000 </r>
       <r>  -14.6927    1.0000 </r>
       <r>  -14.6922    1.0000 </r>
       <r>  -14.5453    1.0000 </r>
       <r>  -10.9770    1.0000 </r>
       <r>  -10.8716    1.0000 </r>
       <r>  -10.8711    1.0000 </r>
       <r>  -10.7608    1.0000 </r>
       <r>  -10.1054    1.0000 </r>
       <r>  -10.0982    1.0000 </r>
       <r>  -10.0129    1.0000 </r>
       <r>  -10.0123    1.0000 </r>
       <r>  -10.0052    1.0000 </r>
       <r>  -10.0043    1.0000 </r>
       <r>   -9.9167    1.0000 </r>
       <r>   -9.9088    1.0000 </r>
       <r>   -7.9823    1.0000 </r>
       <r>   -7.9763    1.0000 </r>
       <r>   -7.9092    1.0000 </r>
       <r>   -7.9071    1.0000 </r>
       <r>   -7.9021    1.0000 </r>
       <r>   -7.9013    1.0000 </r>
       <r>   -7.8287    1.0000 </r>
       <r>   -7.8223    1.0000 </r>
       <r>   -7.1384    1.0000 </r>
       <r>   -7.0628    1.0000 </r>
       <r>   -7.0614    1.0000 </r>
       <r>   -6.9827    1.0000 </r>
       <r>   -3.6485    1.0000 </r>
       <r>   -2.7907    1.0000 </r>
       <r>   -2.7889    1.0000 </r>
       <r>   -2.2670    1.0000 </r>
       <r>   -2.2503    1.0000 </r>
       <r>   -2.2346    1.0000 </r>
       <r>   -2.2344    1.0000 </r>
       <r>   -2.2186    1.0000 </r>
       <r>   -2.2167    1.0000 </r>
       <r>   -2.2014    1.0000 </r>
       <r>   -2.1846    1.0000 </r>
       <r>   -1.7486    1.0000 </r>
       <r>   -1.6112    1.0000 </r>
       <r>   -1.5867    1.0000 </r>
       <r>   -1.5838    1.0000 </r>
       <r>   -1.5590    1.0000 </r>
       <r>    0.7972    1.0000 </r>
       <r>    0.9689    1.0000 </r>
       <r>    0.9839    1.0000 </r>
       <r>    0.9880    1.0000 </r>
       <r>    1.0024    1.0000 </r>
       <r>    1.2813    1.0000 </r>
       <r>    1.2930    1.0000 </r>
       <r>    1.2976    1.0000 </r>
       <r>    1.3104    1.0000 </r>
       <r>    1.4307    1.0000 </r>
       <r>    1.4329    1.0000 </r>
       <r>    1.6555    1.0000 </r>
       <r>    1.6600    1.0000 </r>
       <r>    2.1177    1.0000 </r>
       <r>    2.1606    1.0000 </r>
       <r>    2.1631    1.0000 </r>
       <r>    2.1693    1.0000 </r>
       <r>    2.1701    1.0000 </r>
       <r>    2.6227    1.0000 </r>
       <r>    2.6358    1.0000 </r>
       <r>    6.3228    0.0000 </r>
       <r>    6.3252    0.0000 </r>
       <r>    6.5638    0.0000 </r>
       <r>    6.5673    0.0000 </r>
       <r>    6.5694    0.0000 </r>
       <r>    6.5732    0.0000 </r>
       <r>    7.0057    0.0000 </r>
       <r>    7.0755    0.0000 </r>
       <r>    7.0823    0.0000 </r>
       <r>    7.3876    0.0000 </r>
       <r>    7.3915    0.0000 </r>
       <r>    7.9680    0.0000 </r>
       <r>    9.0910    0.0000 </r>
       <r>   11.6586    0.0000 </r>
       <r>   11.6616    0.0000 </r>
       <r>   11.9262    0.0000 </r>
       <r>   12.1050    0.0000 </r>
       <r>   12.1064    0.0000 </r>
       <r>   12.2851    0.0000 </r>
       <r>   12.5669    0.0000 </r>
      </set>
      <set comment="kpoint 3">
       <r>  -14.3355    1.0000 </r>
       <r>  -14.2017    1.0000 </r>
       <r>  -14.2012    1.0000 </r>
       <r>  -14.0590    1.0000 </r>
       <r>  -12.3873    1.0000 </r>
       <r>  -12.2694    1.0000 </r>
       <r>  -12.2689    1.0000 </r>
       <r>  -12.1445    1.0000 </r>
       <r>  -10.5280    1.0000 </r>
       <r>  -10.5243    1.0000 </r>
       <r>  -10.4269    1.0000 </r>
       <r>  -10.4263    1.0000 </r>
       <r>  -10.4231    1.0000 </r>
       <r>  -10.4219    1.0000 </r>
       <r>  -10.3204    1.0000 </r>
       <r>  -10.3166    1.0000 </r>
       <r>   -6.8087    1.0000 </r>
       <r>   -6.7997    1.0000 </r>
       <r>   -6.7407    1.0000 </r>
       <r>   -6.7385    1.0000 </r>
       <r>   -6.7310    1.0000 </r>
       <r>   -6.7298    1.0000 </r>
       <r>   -6.6677    1.0000 </r>
       <r>   -6.6588    1.0000 </r>
       <r>   -5.0227    1.0000 </r>
[...]
       <r>   -4.2641    1.0000 </r>
       <r>   -4.2641    1.0000 </r>
       <r>   -4.2626    1.0000 </r>
       <r>   -4.2593    1.0000 </r>
       <r>   -2.7992    1.0000 </r>
       <r>   -2.7989    1.0000 </r>
       <r>   -2.7989    1.0000 </r>
       <r>   -2.7936    1.0000 </r>
       <r>   -2.7320    1.0000 </r>
       <r>   -2.7317    1.0000 </r>
       <r>   -2.7317    1.0000 </r>
       <r>   -2.7253    1.0000 </r>
       <r>   -1.8487    1.0000 </r>
       <r>   -1.8462    1.0000 </r>
       <r>   -1.8460    1.0000 </r>
       <r>   -1.8437    1.0000 </r>
       <r>   -0.6004    1.0000 </r>
       <r>   -0.5974    1.0000 </r>
       <r>   -0.5973    1.0000 </r>
       <r>   -0.5949    1.0000 </r>
       <r>   -0.3898    1.0000 </r>
       <r>   -0.3801    1.0000 </r>
       <r>   -0.3800    1.0000 </r>
       <r>   -0.3785    1.0000 </r>
       <r>   -0.3541    1.0000 </r>
       <r>   -0.3479    1.0000 </r>
       <r>   -0.3479    1.0000 </r>
       <r>   -0.3461    1.0000 </r>
       <r>    1.4242    1.0000 </r>
       <r>    1.4252    1.0000 </r>
       <r>    1.4253    1.0000 </r>
       <r>    1.4284    1.0000 </r>
       <r>    2.4101    1.0000 </r>
       <r>    2.4111    1.0000 </r>
       <r>    2.4112    1.0000 </r>
       <r>    2.4150    1.0000 </r>
       <r>    7.2383    0.0000 </r>
       <r>    7.2434    0.0000 </r>
       <r>    7.2434    0.0000 </r>
       <r>    7.2438    0.0000 </r>
       <r>    7.6436    0.0000 </r>
       <r>    7.6481    0.0000 </r>
       <r>    7.6482    0.0000 </r>
       <r>    7.6488    0.0000 </r>
       <r>   11.2676    0.0000 </r>
       <r>   11.2766    0.0000 </r>
       <r>   11.2773    0.0000 </r>
       <r>   11.2856    0.0000 </r>
       <r>   11.7279    0.0000 </r>
       <r>   11.7344    0.0000 </r>
       <r>   11.7365    0.0000 </r>
       <r>   11.7444    0.0000 </r>
       <r>   12.0712    0.0000 </r>
       <r>   12.0726    0.0000 </r>
       <r>   12.0735    0.0000 </r>
       <r>   12.0793    0.0000 </r>
      </set>
     </set>
    </set>
   </array>
  </eigenvalues>
  <separator name="orbital magnetization" >
   <v name="MAGDIPOLOUT">      0.00000000      0.00000000      0.00000000</v>
  </separator>
  <dos>
   <i name="efermi">      4.62445316 </i>
   <total>
    <array>
     <dimension dim="1">gridpoints</dimension>
     <dimension dim="2">spin</dimension>
     <field>energy</field>
     <field>total</field>
     <field>integrated</field>
     <set>
      <set comment="spin 1">
       <r>   -16.9961     0.0000     0.0000 </r>
       <r>   -16.8877     0.0000     0.0000 </r>
       <r>   -16.7792     0.0000     0.0000 </r>
       <r>   -16.6707     0.0000     0.0000 </r>
       <r>   -16.5623     0.0000     0.0000 </r>
       <r>   -16.4538     0.0000     0.0000 </r>
       <r>   -16.3454     0.0000     0.0000 </r>
       <r>   -16.2369     0.0000     0.0000 </r>
       <r>   -16.1285     0.0000     0.0000 </r>
       <r>   -16.0200     0.0000     0.0000 </r>
       <r>   -15.9116     0.0000     0.0000 </r>
       <r>   -15.8031     0.0000     0.0000 </r>
       <r>   -15.6946     0.0000     0.0000 </r>
       <r>   -15.5862     0.0000     0.0000 </r>
       <r>   -15.4777     0.0000     0.0000 </r>
       <r>   -15.3693     0.0000     0.0000 </r>
       <r>   -15.2608     0.0000     0.0000 </r>
       <r>   -15.1524     0.0000     0.0000 </r>
       <r>   -15.0439     0.0000     0.0000 </r>
       <r>   -14.9355     0.5834     0.0137 </r>
       <r>   -14.8270     2.7495     0.1915 </r>
       <r>   -14.7186     3.5169     0.5110 </r>
       <r>   -14.6101     5.0631     0.9875 </r>
       <r>   -14.5016     4.8533     1.5262 </r>
       <r>   -14.3932     5.0352     2.0658 </r>
       <r>   -14.2847     4.9913     2.6097 </r>
       <r>   -14.1763     4.8694     3.1460 </r>
       <r>   -14.0678     4.8546     3.6707 </r>
       <r>   -13.9594     5.1038     4.2106 </r>
       <r>   -13.8509     5.3569     4.7778 </r>
       <r>   -13.7425     7.2790     5.4947 </r>
       <r>   -13.6340     7.4948     6.2992 </r>
       <r>   -13.5256     5.8969     7.1139 </r>
       <r>   -13.4171     2.3747     7.5199 </r>
       <r>   -13.3086     1.8542     7.7406 </r>
       <r>   -13.2002     2.0905     7.9492 </r>
       <r>   -13.0917     2.4843     8.1973 </r>
       <r>   -12.9833     3.0639     8.4909 </r>
       <r>   -12.8748    12.9444     9.1841 </r>
       <r>   -12.7664     8.3743    10.1344 </r>
       <r>   -12.6579     6.8259    10.9986 </r>
       <r>   -12.5495     4.0334    11.4992 </r>
       <r>   -12.4410     4.1417    11.9426 </r>
       <r>   -12.3325     4.2626    12.3979 </r>
       <r>   -12.2241     4.4134    12.8683 </r>
       <r>   -12.1156     4.5559    13.3550 </r>
       <r>   -12.0072     4.6852    13.8561 </r>
       <r>   -11.8987     5.0117    14.3731 </r>
       <r>   -11.7903     5.5251    14.9456 </r>
       <r>   -11.6818     6.4160    15.5746 </r>
       <r>   -11.5734     6.0068    16.2534 </r>
       <r>   -11.4649     5.6169    16.8825 </r>
       <r>   -11.3565     5.4932    17.4807 </r>
       <r>   -11.2480     5.6588    18.0854 </r>
       <r>   -11.1395     5.8245    18.7081 </r>
       <r>   -11.0311     5.9903    19.3488 </r>
       <r>   -10.9226     5.7644    19.9933 </r>
       <r>   -10.8142     5.5803    20.6083 </r>
       <r>   -10.7057     5.4540    21.2028 </r>
       <r>   -10.5973     4.9382    21.7805 </r>
       <r>   -10.4888     3.8652    22.2466 </r>
       <r>   -10.3804     4.5892    22.6976 </r>
       <r>   -10.2719     4.9960    23.2238 </r>
       <r>   -10.1635     5.1810    23.7757 </r>
       <r>   -10.0550     6.5354    24.3823 </r>
       <r>    -9.9465     9.3608    25.2124 </r>
       <r>    -9.8381    10.2672    26.3760 </r>
       <r>    -9.7296     7.9460    27.3637 </r>
       <r>    -9.6212     5.6870    28.1004 </r>
       <r>    -9.5127     4.6377    28.6433 </r>
       <r>    -9.4043     4.1611    29.1204 </r>
       <r>    -9.2958     3.6845    29.5459 </r>
       <r>    -9.1874     6.0090    30.1604 </r>
       <r>    -9.0789     4.8959    30.7724 </r>
       <r>    -8.9704     1.9191    31.0275 </r>
       <r>    -8.8620     1.7135    31.2245 </r>
       <r>    -8.7535     1.5079    31.3992 </r>
       <r>    -8.6451     1.3023    31.5515 </r>
       <r>    -8.5366     1.3673    31.6888 </r>
       <r>    -8.4282     1.8616    31.8636 </r>
       <r>    -8.3197     2.3611    32.0926 </r>
       <r>    -8.2113     2.8606    32.3758 </r>
       <r>    -8.1028     5.9923    32.8081 </r>
       <r>    -7.9944    11.1302    33.7364 </r>
       <r>    -7.8859     5.0740    34.5601 </r>
       <r>    -7.7774     5.2642    35.1038 </r>
       <r>    -7.6690     6.4312    35.7380 </r>
       <r>    -7.5605     7.5981    36.4988 </r>
       <r>    -7.4521     8.7651    37.3861 </r>
       <r>    -7.3436     9.9158    38.4000 </r>
       <r>    -7.2352     6.5593    39.2727 </r>
       <r>    -7.1267     5.5796    39.8864 </r>
       <r>    -7.0183     5.5785    40.4914 </r>
       <r>    -6.9098     5.5294    41.0971 </r>
       <r>    -6.8014     5.3757    41.6885 </r>
       <r>    -6.6929     5.1910    42.2616 </r>
       <r>    -6.5844     5.0641    42.8174 </r>
       <r>    -6.4760     4.9455    43.3602 </r>
       <r>    -6.3675     4.8269    43.8901 </r>
       <r>    -6.2591     4.7083    44.4072 </r>
       <r>    -6.1506     4.5897    44.9114 </r>
       <r>    -6.0422     4.4712    45.4027 </r>
       <r>    -5.9337     4.3576    45.8811 </r>
       <r>    -5.8253     4.7740    46.3670 </r>
       <r>    -5.7168     5.3654    46.9168 </r>
       <r>    -5.6084     5.9564    47.5308 </r>
       <r>    -5.4999     6.5474    48.2088 </r>
       <r>    -5.3914     7.1384    48.9510 </r>
       <r>    -5.2830     7.7295    49.7572 </r>
       <r>    -5.1745     8.3205    50.6276 </r>
       <r>    -5.0661     8.9116    51.5620 </r>
       <r>    -4.9576     5.0571    52.3518 </r>
       <r>    -4.8492     5.5879    52.8310 </r>
       <r>    -4.7407     7.0701    53.5567 </r>
       <r>    -4.6323     5.6025    54.2439 </r>
       <r>    -4.5238     4.1347    54.7720 </r>
       <r>    -4.4153     2.6668    55.1408 </r>
       <r>    -4.3069     1.1996    55.3504 </r>
       <r>    -4.1984     1.9750    55.4975 </r>
       <r>    -4.0900     3.4754    55.7931 </r>
       <r>    -3.9815     4.9757    56.2513 </r>
       <r>    -3.8731     7.6261    56.8860 </r>
       <r>    -3.7646    11.7719    57.9528 </r>
       <r>    -3.6562    11.5484    59.2149 </r>
       <r>    -3.5477    12.7196    60.6307 </r>
       <r>    -3.4393     7.9030    61.7889 </r>
       <r>    -3.3308     4.5879    62.3618 </r>
       <r>    -3.2223     5.9737    62.9352 </r>
       <r>    -3.1139     6.8233    63.6310 </r>
       <r>    -3.0054    10.6072    64.5248 </r>
       <r>    -2.8970    16.2661    65.9774 </r>
       <r>    -2.7885    19.3490    68.1745 </r>
       <r>    -2.6801     6.8165    69.2950 </r>
       <r>    -2.5716     7.0555    70.0478 </r>
       <r>    -2.4632     7.3664    70.8274 </r>
       <r>    -2.3547     8.2084    71.6738 </r>
       <r>    -2.2463    10.2549    72.6657 </r>
       <r>    -2.1378    15.6292    74.2427 </r>
       <r>    -2.0293    12.1873    75.7492 </r>
       <r>    -1.9209    10.0821    76.9426 </r>
       <r>    -1.8124    20.4752    78.4764 </r>
       <r>    -1.7040    14.6366    81.5385 </r>
       <r>    -1.5955    19.5383    83.5535 </r>
       <r>    -1.4871    13.8026    85.1859 </r>
       <r>    -1.3786    15.6226    86.7536 </r>
       <r>    -1.2702    14.1144    88.5985 </r>
       <r>    -1.1617     8.2721    89.7473 </r>
       <r>    -1.0532     6.4650    90.4892 </r>
       <r>    -0.9448     7.5518    91.2514 </r>
       <r>    -0.8363     8.3734    92.1144 </r>
       <r>    -0.7279     9.5432    93.0831 </r>
       <r>    -0.6194    11.1111    94.2067 </r>
       <r>    -0.5110    10.7811    95.3872 </r>
       <r>    -0.4025    11.6963    96.5788 </r>
       <r>    -0.2941    11.5436    98.3417 </r>
       <r>    -0.1856    12.7494    99.6655 </r>
       <r>    -0.0772    11.3544   100.9483 </r>
       <r>     0.0313     9.5357   102.1083 </r>
       <r>     0.1398     9.9456   103.1736 </r>
       <r>     0.2482     9.7283   104.2319 </r>
       <r>     0.3567     9.6765   105.2869 </r>
       <r>     0.4651     9.6108   106.3348 </r>
       <r>     0.5736     9.6395   107.3757 </r>
       <r>     0.6820     9.3712   108.4088 </r>
       <r>     0.7905     9.1951   109.4151 </r>
       <r>     0.8989     9.1532   110.4082 </r>
       <r>     1.0074     9.7708   111.4193 </r>
       <r>     1.1158     9.5489   112.4664 </r>
       <r>     1.2243     9.7557   113.5057 </r>
       <r>     1.3328    10.6597   114.6154 </r>
       <r>     1.4412    10.4048   115.7650 </r>
       <r>     1.5497     8.6635   116.8106 </r>
       <r>     1.6581     6.6036   117.6290 </r>
       <r>     1.7666     6.3636   118.3327 </r>
       <r>     1.8750     4.9950   118.9664 </r>
       <r>     1.9835     3.3376   119.4072 </r>
       <r>     2.0919     2.8897   119.7351 </r>
       <r>     2.2004     3.3183   120.0596 </r>
       <r>     2.3089     4.6866   120.4928 </r>
       <r>     2.4173     7.0887   121.1183 </r>
       <r>     2.5258     8.5320   121.9863 </r>
       <r>     2.6342     8.8587   122.9916 </r>
       <r>     2.7427     7.7884   123.9062 </r>
       <r>     2.8511     5.9406   124.6537 </r>
       <r>     2.9596     4.6152   125.2200 </r>
       <r>     3.0680     3.7533   125.6715 </r>
       <r>     3.1765     3.2699   126.0484 </r>
       <r>     3.2849     2.9114   126.3836 </r>
       <r>     3.3934     2.5389   126.6789 </r>
       <r>     3.5019     2.2067   126.9356 </r>
       <r>     3.6103     1.9132   127.1589 </r>
       <r>     3.7188     1.6287   127.3512 </r>
       <r>     3.8272     1.3594   127.5118 </r>
       <r>     3.9357     1.1300   127.6468 </r>
       <r>     4.0441     0.9024   127.7569 </r>
       <r>     4.1526     0.7026   127.8437 </r>
       <r>     4.2610     0.5207   127.9099 </r>
       <r>     4.3695     0.3511   127.9571 </r>
       <r>     4.4779     0.1927   127.9865 </r>
       <r>     4.5864     0.0441   127.9993 </r>
       <r>     4.6949     0.0621   128.0019 </r>
       <r>     4.8033     0.1829   128.0150 </r>
       <r>     4.9118     0.3149   128.0419 </r>
       <r>     5.0202     0.4604   128.0838 </r>
       <r>     5.1287     0.6204   128.1423 </r>
       <r>     5.2371     0.8022   128.2192 </r>
       <r>     5.3456     1.0222   128.3176 </r>
       <r>     5.4540     1.2653   128.4416 </r>
       <r>     5.5625     1.5089   128.5921 </r>
       <r>     5.6710     1.7529   128.7690 </r>
       <r>     5.7794     2.7373   129.0044 </r>
       <r>     5.8879     3.4310   129.3414 </r>
       <r>     5.9963     3.8364   129.7392 </r>
       <r>     6.1048     4.7944   130.1871 </r>
       <r>     6.2132     8.8322   130.8811 </r>
       <r>     6.3217    14.1474   132.1462 </r>
       <r>     6.4301     9.0207   133.2765 </r>
       <r>     6.5386     7.2376   134.1570 </r>
       <r>     6.6470     6.1690   134.8690 </r>
       <r>     6.7555     5.5773   135.5039 </r>
       <r>     6.8640     5.2892   136.0913 </r>
       <r>     6.9724     4.9185   136.6494 </r>
       <r>     7.0809     4.0934   137.1437 </r>
       <r>     7.1893     3.7017   137.5645 </r>
       <r>     7.2978     3.6750   137.9612 </r>
       <r>     7.4062     3.9359   138.3715 </r>
       <r>     7.5147     4.3779   138.8225 </r>
       <r>     7.6231     4.7534   139.3187 </r>
       <r>     7.7316     4.8962   139.8453 </r>
       <r>     7.8400     4.7153   140.3663 </r>
       <r>     7.9485     4.5519   140.8683 </r>
       <r>     8.0570     4.3794   141.3527 </r>
       <r>     8.1654     4.2435   141.8199 </r>
       <r>     8.2739     4.1480   142.2747 </r>
       <r>     8.3823     4.0780   142.7206 </r>
       <r>     8.4908     4.0188   143.1596 </r>
       <r>     8.5992     3.9683   143.5926 </r>
       <r>     8.7077     3.9298   144.0208 </r>
       <r>     8.8161     3.6398   144.4367 </r>
       <r>     8.9246     3.4420   144.8185 </r>
       <r>     9.0331     3.5550   145.1950 </r>
       <r>     9.1415     3.7510   145.5944 </r>
       <r>     9.2500     3.7223   146.0008 </r>
       <r>     9.3584     3.6763   146.4016 </r>
       <r>     9.4669     3.7052   146.8007 </r>
       <r>     9.5753     3.7610   147.2057 </r>
       <r>     9.6838     3.7934   147.6157 </r>
       <r>     9.7922     3.7828   148.0269 </r>
       <r>     9.9007     3.7694   148.4363 </r>
       <r>    10.0091     3.7565   148.8443 </r>
       <r>    10.1176     3.7685   149.2524 </r>
       <r>    10.2261     3.7771   149.6616 </r>
       <r>    10.3345     5.3233   150.1545 </r>
       <r>    10.4430     6.0017   150.7868 </r>
       <r>    10.5514     5.9279   151.4217 </r>
       <r>    10.6599     5.6756   152.0523 </r>
       <r>    10.7683     5.4157   152.6528 </r>
       <r>    10.8768     4.4376   153.2006 </r>
       <r>    10.9852     5.5928   153.8301 </r>
       <r>    11.0937     3.1430   154.2876 </r>
       <r>    11.2021     2.4490   154.5778 </r>
       <r>    11.3106     2.6989   154.8532 </r>
       <r>    11.4191     3.0377   155.1641 </r>
       <r>    11.5275     3.3686   155.5123 </r>
       <r>    11.6360     3.4132   155.8831 </r>
       <r>    11.7444     2.7210   156.2035 </r>
       <r>    11.8529     3.6559   156.5459 </r>
       <r>    11.9613     7.0596   157.1421 </r>
       <r>    12.0698     7.3559   157.9039 </r>
       <r>    12.1782     8.7033   158.7722 </r>
       <r>    12.2867    11.5377   159.8733 </r>
       <r>    12.3952    13.1985   161.2325 </r>
       <r>    12.5036    13.2462   162.6668 </r>
       <r>    12.6121    13.6263   164.1244 </r>
       <r>    12.7205    11.9672   165.5283 </r>
       <r>    12.8290    11.4873   166.7844 </r>
       <r>    12.9374     5.2263   167.7886 </r>
       <r>    13.0459     0.2087   167.9656 </r>
       <r>    13.1543     0.1272   167.9836 </r>
       <r>    13.2628     0.0658   167.9939 </r>
       <r>    13.3712     0.0244   167.9986 </r>
       <r>    13.4797     0.0031   167.9999 </r>
       <r>    13.5882     0.0000   168.0000 </r>
       <r>    13.6966     0.0000   168.0000 </r>
       <r>    13.8051     0.0000   168.0000 </r>
       <r>    13.9135     0.0000   168.0000 </r>
       <r>    14.0220     0.0000   168.0000 </r>
       <r>    14.1304     0.0000   168.0000 </r>
       <r>    14.2389     0.0000   168.0000 </r>
       <r>    14.3473     0.0000   168.0000 </r>
       <r>    14.4558     0.0000   168.0000 </r>
       <r>    14.5642     0.0000   168.0000 </r>
       <r>    14.6727     0.0000   168.0000 </r>
       <r>    14.7812     0.0000   168.0000 </r>
       <r>    14.8896     0.0000   168.0000 </r>
       <r>    14.9981     0.0000   168.0000 </r>
       <r>    15.1065     0.0000   168.0000 </r>
       <r>    15.2150     0.0000   168.0000 </r>
       <r>    15.3234     0.0000   168.0000 </r>
       <r>    15.4319     0.0000   168.0000 </r>
       <r>    15.5403     0.0000   168.0000 </r>
      </set>
     </set>
    </array>
   </total>
  </dos>
 </calculation>
 <structure name="finalpos" >
  <crystal>
   <varray name="basis" >
    <v>       4.93287450      -0.00191929       0.00000000 </v>
    <v>      -2.46809940       4.27103499       0.00000000 </v>
    <v>       0.00000000       0.00000000      13.49080000 </v>
   </varray>
   <i name="volume">    284.16673831 </i>
   <varray name="rec_basis" >
    <v>       0.20276715       0.11717288       0.00000000 </v>
    <v>       0.00009112       0.23418794       0.00000000 </v>
    <v>       0.00000000       0.00000000       0.07412459 </v>
   </varray>
  </crystal>
  <varray name="positions" >
   <v>       0.49967330       0.00032672       0.12500000 </v>
   <v>       0.99967330       0.00032672       0.12500000 </v>
   <v>       0.49967330       0.50032672       0.12500000 </v>
   <v>       0.99967330       0.50032672       0.12500000 </v>
   <v>       0.49967330       0.00032672       0.62500000 </v>
   <v>       0.99967330       0.00032672       0.62500000 </v>
   <v>       0.49967330       0.50032672       0.62500000 </v>
   <v>       0.99967330       0.50032672       0.62500000 </v>
   <v>       0.00032672       0.49967330       0.37500000 </v>
   <v>       0.50032672       0.49967330       0.37500000 </v>
   <v>       0.00032672       0.99967330       0.37500000 </v>
   <v>       0.50032672       0.99967330       0.37500000 </v>
   <v>       0.00032672       0.49967330       0.87500000 </v>
   <v>       0.50032672       0.49967330       0.87500000 </v>
   <v>       0.00032672       0.99967330       0.87500000 </v>
   <v>       0.50032672       0.99967330       0.87500000 </v>
   <v>       0.16698863       0.33370753       0.12569617 </v>
   <v>       0.66629246       0.33370753       0.12500000 </v>
   <v>       0.16629246       0.83370753       0.12500000 </v>
   <v>       0.66629246       0.83370753       0.12500000 </v>
   <v>       0.16629246       0.33370753       0.62500000 </v>
   <v>       0.66629246       0.33370753       0.62500000 </v>
   <v>       0.16629246       0.83370753       0.62500000 </v>
   <v>       0.66629246       0.83370753       0.62500000 </v>
   <v>       0.33370753       0.16629246       0.37500000 </v>
   <v>       0.83370753       0.16629246       0.37500000 </v>
   <v>       0.33370753       0.66629246       0.37500000 </v>
   <v>       0.83370753       0.66629246       0.37500000 </v>
   <v>       0.33370753       0.16629246       0.87500000 </v>
   <v>       0.83370753       0.16629246       0.87500000 </v>
   <v>       0.33370753       0.66629246       0.87500000 </v>
   <v>       0.83370753       0.66629246       0.87500000 </v>
  </varray>
 </structure>
</modeling>
