  32  32   0   0
  0.9167123E+01  0.4932875E-09  0.4932875E-09  0.1392668E-08  0.5000000E-15
  1.000000000000000E-004
  CAR 
 graphite                                
     15.17679400    -17.24090181  301      4.35799480      1.00000000
    -17.241  0.0000E+00  0.0000E+00
    -17.133  0.0000E+00  0.0000E+00
    -17.025  0.0000E+00  0.0000E+00
    -16.917  0.0000E+00  0.0000E+00
    -16.809  0.0000E+00  0.0000E+00
    -16.701  0.0000E+00  0.0000E+00
    -16.593  0.0000E+00  0.0000E+00
    -16.484  0.0000E+00  0.0000E+00
    -16.376  0.0000E+00  0.0000E+00
    -16.268  0.0000E+00  0.0000E+00
    -16.160  0.0000E+00  0.0000E+00
    -16.052  0.0000E+00  0.0000E+00
    -15.944  0.0000E+00  0.0000E+00
    -15.836  0.0000E+00  0.0000E+00
    -15.728  0.0000E+00  0.0000E+00
    -15.620  0.0000E+00  0.0000E+00
    -15.512  0.0000E+00  0.0000E+00
    -15.404  0.0000E+00  0.0000E+00
    -15.296  0.0000E+00  0.0000E+00
    -15.188  0.1225E+01  0.2522E-01
    -15.080  0.2861E+01  0.2578E+00
    -14.972  0.5154E+01  0.6900E+00
    -14.864  0.4912E+01  0.1217E+01
    -14.756  0.4913E+01  0.1752E+01
    -14.647  0.4956E+01  0.2285E+01
    -14.539  0.4938E+01  0.2821E+01
    -14.431  0.4909E+01  0.3349E+01
    -14.323  0.5013E+01  0.3886E+01
    -14.215  0.4992E+01  0.4426E+01
    -14.107  0.4962E+01  0.4964E+01
    -13.999  0.5706E+01  0.5538E+01
    -13.891  0.6018E+01  0.6172E+01
    -13.783  0.6558E+01  0.6877E+01
    -13.675  0.5186E+01  0.7464E+01
    -13.567  0.1757E+01  0.7758E+01
    -13.459  0.3824E+01  0.8038E+01
    -13.351  0.4473E+01  0.8514E+01
    -13.243  0.4529E+01  0.9002E+01
    -13.135  0.6487E+01  0.9766E+01
    -13.027  0.5695E+01  0.1051E+02
    -12.919  0.4363E+01  0.1099E+02
    -12.810  0.4511E+01  0.1146E+02
    -12.702  0.4622E+01  0.1196E+02
    -12.594  0.4733E+01  0.1246E+02
    -12.486  0.5293E+01  0.1300E+02
    -12.378  0.6227E+01  0.1360E+02
    -12.270  0.5443E+01  0.1423E+02
    -12.162  0.5592E+01  0.1482E+02
    -12.054  0.5140E+01  0.1540E+02
    -11.946  0.4806E+01  0.1593E+02
    -11.838  0.4910E+01  0.1646E+02
    -11.730  0.4994E+01  0.1700E+02
    -11.622  0.5052E+01  0.1754E+02
    -11.514  0.5174E+01  0.1809E+02
    -11.406  0.5529E+01  0.1867E+02
    -11.298  0.5844E+01  0.1929E+02
    -11.190  0.5724E+01  0.1991E+02
    -11.082  0.5671E+01  0.2053E+02
    -10.973  0.5766E+01  0.2115E+02
    -10.865  0.5238E+01  0.2176E+02
    -10.757  0.4792E+01  0.2228E+02
    -10.649  0.5324E+01  0.2283E+02
    -10.541  0.5353E+01  0.2341E+02
    -10.433  0.5472E+01  0.2400E+02
    -10.325  0.5683E+01  0.2460E+02
    -10.217  0.5921E+01  0.2523E+02
    -10.109  0.7532E+01  0.2594E+02
    -10.001  0.9831E+01  0.2696E+02
     -9.893  0.6524E+01  0.2784E+02
     -9.785  0.6444E+01  0.2846E+02
     -9.677  0.7040E+01  0.2920E+02
     -9.569  0.3576E+01  0.2967E+02
     -9.461  0.3207E+01  0.3004E+02
     -9.353  0.2839E+01  0.3037E+02
     -9.245  0.2471E+01  0.3065E+02
     -9.136  0.2403E+01  0.3090E+02
     -9.028  0.3174E+01  0.3123E+02
     -8.920  0.1451E+01  0.3150E+02
     -8.812  0.1637E+01  0.3165E+02
     -8.704  0.2549E+01  0.3188E+02
     -8.596  0.6923E+01  0.3232E+02
     -8.488  0.4414E+01  0.3306E+02
     -8.380  0.3926E+01  0.3349E+02
     -8.272  0.4252E+01  0.3394E+02
     -8.164  0.7473E+01  0.3458E+02
     -8.056  0.6308E+01  0.3535E+02
     -7.948  0.7390E+01  0.3609E+02
     -7.840  0.8461E+01  0.3695E+02
     -7.732  0.8089E+01  0.3790E+02
     -7.624  0.6283E+01  0.3864E+02
     -7.516  0.6025E+01  0.3930E+02
     -7.408  0.5770E+01  0.3994E+02
     -7.299  0.5537E+01  0.4055E+02
     -7.191  0.5348E+01  0.4114E+02
     -7.083  0.5167E+01  0.4170E+02
     -6.975  0.4972E+01  0.4225E+02
     -6.867  0.4850E+01  0.4278E+02
     -6.759  0.4821E+01  0.4330E+02
     -6.651  0.4790E+01  0.4382E+02
     -6.543  0.4634E+01  0.4434E+02
     -6.435  0.4417E+01  0.4482E+02
     -6.327  0.4363E+01  0.4530E+02
     -6.219  0.4037E+01  0.4571E+02
     -6.111  0.4300E+01  0.4615E+02
     -6.003  0.4927E+01  0.4665E+02
     -5.895  0.5763E+01  0.4723E+02
     -5.787  0.6516E+01  0.4789E+02
     -5.679  0.1079E+02  0.4882E+02
     -5.571  0.8546E+01  0.4986E+02
     -5.462  0.6305E+01  0.5067E+02
     -5.354  0.4064E+01  0.5123E+02
     -5.246  0.2688E+01  0.5156E+02
     -5.138  0.3063E+01  0.5186E+02
     -5.030  0.4306E+01  0.5226E+02
     -4.922  0.5612E+01  0.5280E+02
     -4.814  0.7200E+01  0.5348E+02
     -4.706  0.8002E+01  0.5433E+02
     -4.598  0.6800E+01  0.5513E+02
     -4.490  0.5624E+01  0.5580E+02
     -4.382  0.7528E+01  0.5646E+02
     -4.274  0.7256E+01  0.5727E+02
     -4.166  0.6744E+01  0.5802E+02
     -4.058  0.6232E+01  0.5872E+02
     -3.950  0.5904E+01  0.5937E+02
     -3.842  0.6440E+01  0.6003E+02
     -3.734  0.1271E+02  0.6112E+02
     -3.625  0.9507E+01  0.6224E+02
     -3.517  0.7916E+01  0.6318E+02
     -3.409  0.6818E+01  0.6397E+02
     -3.301  0.6791E+01  0.6469E+02
     -3.193  0.7541E+01  0.6546E+02
     -3.085  0.8611E+01  0.6633E+02
     -2.977  0.1039E+02  0.6734E+02
     -2.869  0.1434E+02  0.6869E+02
     -2.761  0.1248E+02  0.7024E+02
     -2.653  0.1285E+02  0.7155E+02
     -2.545  0.1305E+02  0.7297E+02
     -2.437  0.1488E+02  0.7437E+02
     -2.329  0.1256E+02  0.7595E+02
     -2.221  0.1899E+02  0.7741E+02
     -2.113  0.1234E+02  0.7919E+02
     -2.005  0.1488E+02  0.8050E+02
     -1.897  0.1673E+02  0.8262E+02
     -1.788  0.1751E+02  0.8454E+02
     -1.680  0.1525E+02  0.8640E+02
     -1.572  0.1131E+02  0.8782E+02
     -1.464  0.9543E+01  0.8893E+02
     -1.356  0.1089E+02  0.8993E+02
     -1.248  0.8313E+01  0.9092E+02
     -1.140  0.1135E+02  0.9195E+02
     -1.032  0.1292E+02  0.9330E+02
     -0.924  0.1543E+02  0.9474E+02
     -0.816  0.9026E+01  0.9613E+02
     -0.708  0.1032E+02  0.9721E+02
     -0.600  0.1049E+02  0.9837E+02
     -0.492  0.1041E+02  0.9949E+02
     -0.384  0.1116E+02  0.1007E+03
     -0.276  0.9459E+01  0.1017E+03
     -0.168  0.1270E+02  0.1028E+03
     -0.060  0.9562E+01  0.1039E+03
      0.049  0.9463E+01  0.1049E+03
      0.157  0.9210E+01  0.1059E+03
      0.265  0.9135E+01  0.1069E+03
      0.373  0.9556E+01  0.1079E+03
      0.481  0.9390E+01  0.1089E+03
      0.589  0.9547E+01  0.1099E+03
      0.697  0.9154E+01  0.1109E+03
      0.805  0.9164E+01  0.1119E+03
      0.913  0.9414E+01  0.1129E+03
      1.021  0.9444E+01  0.1140E+03
      1.129  0.9840E+01  0.1150E+03
      1.237  0.1012E+02  0.1161E+03
      1.345  0.7321E+01  0.1170E+03
      1.453  0.6432E+01  0.1178E+03
      1.561  0.5748E+01  0.1184E+03
      1.669  0.4827E+01  0.1190E+03
      1.777  0.3988E+01  0.1195E+03
      1.886  0.3701E+01  0.1199E+03
      1.994  0.6542E+01  0.1204E+03
      2.102  0.1013E+02  0.1213E+03
      2.210  0.6945E+01  0.1222E+03
      2.318  0.8454E+01  0.1232E+03
      2.426  0.6033E+01  0.1239E+03
      2.534  0.4950E+01  0.1245E+03
      2.642  0.4234E+01  0.1250E+03
      2.750  0.3609E+01  0.1254E+03
      2.858  0.3229E+01  0.1258E+03
      2.966  0.3066E+01  0.1262E+03
      3.074  0.2858E+01  0.1265E+03
      3.182  0.2382E+01  0.1268E+03
      3.290  0.2057E+01  0.1270E+03
      3.398  0.1829E+01  0.1272E+03
      3.506  0.1592E+01  0.1274E+03
      3.614  0.1352E+01  0.1275E+03
      3.723  0.1117E+01  0.1277E+03
      3.831  0.8827E+00  0.1278E+03
      3.939  0.6600E+00  0.1279E+03
      4.047  0.4675E+00  0.1279E+03
      4.155  0.2917E+00  0.1280E+03
      4.263  0.1296E+00  0.1280E+03
      4.371  0.5438E-02  0.1280E+03
      4.479  0.1243E+00  0.1280E+03
      4.587  0.2564E+00  0.1280E+03
      4.695  0.4050E+00  0.1281E+03
      4.803  0.5735E+00  0.1281E+03
      4.911  0.7766E+00  0.1282E+03
      5.019  0.1032E+01  0.1283E+03
      5.127  0.1400E+01  0.1284E+03
      5.235  0.1785E+01  0.1286E+03
      5.343  0.2145E+01  0.1288E+03
      5.451  0.2567E+01  0.1291E+03
      5.560  0.2813E+01  0.1294E+03
      5.668  0.3373E+01  0.1297E+03
      5.776  0.4267E+01  0.1301E+03
      5.884  0.6771E+01  0.1307E+03
      5.992  0.7991E+01  0.1318E+03
      6.100  0.8510E+01  0.1327E+03
      6.208  0.8270E+01  0.1336E+03
      6.316  0.6989E+01  0.1344E+03
      6.424  0.6429E+01  0.1352E+03
      6.532  0.6205E+01  0.1358E+03
      6.640  0.5575E+01  0.1365E+03
      6.748  0.5076E+01  0.1370E+03
      6.856  0.4501E+01  0.1376E+03
      6.964  0.3781E+01  0.1380E+03
      7.072  0.3611E+01  0.1384E+03
      7.180  0.3895E+01  0.1388E+03
      7.288  0.4435E+01  0.1392E+03
      7.397  0.4788E+01  0.1397E+03
      7.505  0.4603E+01  0.1403E+03
      7.613  0.4454E+01  0.1407E+03
      7.721  0.4306E+01  0.1412E+03
      7.829  0.4154E+01  0.1417E+03
      7.937  0.4008E+01  0.1421E+03
      8.045  0.3845E+01  0.1425E+03
      8.153  0.3692E+01  0.1429E+03
      8.261  0.3576E+01  0.1433E+03
      8.369  0.3498E+01  0.1437E+03
      8.477  0.3669E+01  0.1441E+03
      8.585  0.3863E+01  0.1445E+03
      8.693  0.3943E+01  0.1449E+03
      8.801  0.4020E+01  0.1454E+03
      8.909  0.4181E+01  0.1458E+03
      9.017  0.4247E+01  0.1463E+03
      9.125  0.4295E+01  0.1467E+03
      9.234  0.4348E+01  0.1472E+03
      9.342  0.4117E+01  0.1476E+03
      9.450  0.4096E+01  0.1481E+03
      9.558  0.4073E+01  0.1485E+03
      9.666  0.4092E+01  0.1490E+03
      9.774  0.4156E+01  0.1494E+03
      9.882  0.4328E+01  0.1499E+03
      9.990  0.4460E+01  0.1503E+03
     10.098  0.4475E+01  0.1508E+03
     10.206  0.4760E+01  0.1513E+03
     10.314  0.5690E+01  0.1519E+03
     10.422  0.4897E+01  0.1525E+03
     10.530  0.5064E+01  0.1530E+03
     10.638  0.4745E+01  0.1535E+03
     10.746  0.5531E+01  0.1540E+03
     10.854  0.3665E+01  0.1546E+03
     10.962  0.4152E+01  0.1550E+03
     11.071  0.3550E+01  0.1554E+03
     11.179  0.3609E+01  0.1558E+03
     11.287  0.2945E+01  0.1562E+03
     11.395  0.3512E+01  0.1565E+03
     11.503  0.4351E+01  0.1570E+03
     11.611  0.4722E+01  0.1574E+03
     11.719  0.6992E+01  0.1581E+03
     11.827  0.1074E+02  0.1591E+03
     11.935  0.1211E+02  0.1603E+03
     12.043  0.1336E+02  0.1617E+03
     12.151  0.1342E+02  0.1632E+03
     12.259  0.1123E+02  0.1645E+03
     12.367  0.8489E+01  0.1656E+03
     12.475  0.5951E+01  0.1664E+03
     12.583  0.4924E+01  0.1669E+03
     12.691  0.3600E+01  0.1674E+03
     12.799  0.2188E+01  0.1677E+03
     12.908  0.1256E+01  0.1679E+03
     13.016  0.2848E+00  0.1680E+03
     13.124  0.1313E-01  0.1680E+03
     13.232  0.0000E+00  0.1680E+03
     13.340  0.0000E+00  0.1680E+03
     13.448  0.0000E+00  0.1680E+03
     13.556  0.0000E+00  0.1680E+03
     13.664  0.0000E+00  0.1680E+03
     13.772  0.0000E+00  0.1680E+03
     13.880  0.0000E+00  0.1680E+03
     13.988  0.0000E+00  0.1680E+03
     14.096  0.0000E+00  0.1680E+03
     14.204  0.0000E+00  0.1680E+03
     14.312  0.0000E+00  0.1680E+03
     14.420  0.0000E+00  0.1680E+03
     14.528  0.0000E+00  0.1680E+03
     14.636  0.0000E+00  0.1680E+03
     14.745  0.0000E+00  0.1680E+03
     14.853  0.0000E+00  0.1680E+03
     14.961  0.0000E+00  0.1680E+03
     15.069  0.0000E+00  0.1680E+03
     15.177  0.0000E+00  0.1680E+03
