   32   32    1    1
  0.9167123E+01  0.4932875E-09  0.4932875E-09  0.1392668E-08  0.5000000E-15
  1.000000000000000E-004
  CAR 
 graphite                                
    128    163     84
 
  0.0000000E+00  0.0000000E+00  0.0000000E+00  0.3086420E-02
    1      -15.240902
    2      -15.132612
    3      -15.131131
    4      -15.017006
    5       -9.937552
    6       -9.929142
    7       -9.926074
    8       -9.894734
    9       -9.893934
   10       -9.886830
   11       -9.882275
   12       -9.882270
   13       -9.881387
   14       -9.856268
   15       -9.845599
   16       -9.843189
   17       -8.872193
   18       -8.868521
   19       -8.866886
   20       -8.848912
   21       -8.844222
   22       -8.843301
   23       -8.841568
   24       -8.841564
   25       -8.839263
   26       -8.810165
   27       -8.805703
   28       -8.803244
   29       -3.995201
   30       -3.258334
   31       -3.256475
   32       -2.374227
   33       -2.045219
   34       -2.042330
   35       -2.027915
   36       -2.024268
   37       -2.022846
   38       -2.022843
   39       -2.022033
   40       -2.006019
   41       -2.004764
   42       -2.004131
   43       -2.001968
   44       -1.984263
   45        1.338843
   46        1.349233
   47        1.353805
   48        1.358229
   49        1.364338
   50        1.369980
   51        1.372372
   52        1.381649
   53        1.684145
   54        1.685102
   55        1.687267
   56        2.000947
   57        2.001646
   58        2.004078
   59        2.008512
   60        2.008572
   61        2.008887
   62        2.236025
   63        2.248659
   64        2.250526
   65        5.865813
   66        5.867424
   67        5.868260
   68        6.011876
   69        6.018290
   70        6.022094
   71        6.023520
   72        6.023989
   73        6.028630
   74        6.440901
   75        6.453759
   76        6.456788
   77        8.377248
   78       10.734053
   79       10.736994
   80       11.599004
   81       11.602514
   82       11.638748
   83       11.748005
   84       11.754871
 
  0.1111111E+00 -0.1387779E-16  0.0000000E+00  0.6172840E-02
    1      -15.167388
    2      -15.059547
    3      -15.058069
    4      -14.944499
    5      -10.715534
    6      -10.639957
    7      -10.638243
    8      -10.560373
    9      -10.180082
   10      -10.171736
   11      -10.115404
   12      -10.114029
   13      -10.106202
   14      -10.105268
   15      -10.048745
   16      -10.039624
   17       -8.558912
   18       -8.552355
   19       -8.507962
   20       -8.503989
   21       -8.499726
   22       -8.498476
   23       -8.448703
   24       -8.441778
   25       -8.036617
   26       -7.977174
   27       -7.976706
   28       -7.915001
   29       -3.906035
   30       -3.171240
   31       -3.169376
   32       -2.290033
   33       -2.268998
   34       -2.250270
   35       -2.247531
   36       -2.246619
   37       -2.228298
   38       -2.228022
   39       -2.224860
   40       -2.205883
   41       -1.971875
   42       -1.954467
   43       -1.950584
   44       -1.933121
   45        1.059238
   46        1.067594
   47        1.069629
   48        1.078564
   49        1.114392
   50        1.187746
   51        1.196722
   52        1.201556
   53        1.207606
   54        1.575009
   55        1.576913
   56        1.579846
   57        1.581918
   58        1.949386
   59        1.949960
   60        1.955824
   61        1.956522
   62        2.048159
   63        2.270645
   64        2.282338
   65        5.956225
   66        5.958092
   67        6.143077
   68        6.149309
   69        6.153485
   70        6.155720
   71        6.280419
   72        6.563905
   73        6.566917
   74        6.575535
   75        6.587153
   76        7.042930
   77        8.467451
   78       10.815479
   79       10.818412
   80       11.639865
   81       11.782816
   82       11.785539
   83       11.931829
   84       11.936112
 
  0.2222222E+00 -0.2775558E-16  0.0000000E+00  0.6172840E-02
    1      -14.947137
    2      -14.840736
    3      -14.839266
    4      -14.727281
    5      -11.724346
    6      -11.639354
    7      -11.637914
    8      -11.549837
    9      -10.524556
   10      -10.518803
   11      -10.450753
   12      -10.448905
   13      -10.444087
   14      -10.443148
   15      -10.372445
   16      -10.366428
   17       -7.876184
   18       -7.866904
   19       -7.820293
   20       -7.816686
   21       -7.809784
   22       -7.808397
   23       -7.758393
   24       -7.749125
   25       -6.712204
   26       -6.656865
   27       -6.656528
   28       -6.599595
   29       -3.639326
   30       -2.910983
   31       -2.909098
   32       -2.874116
   33       -2.855944
   34       -2.847824
   35       -2.846460
   36       -2.829232
   37       -2.828372
   38       -2.819560
   39       -2.801209
   40       -2.038646
   41       -1.757123
   42       -1.740032
   43       -1.736016
   44       -1.719039
   45        0.109136
   46        0.235219
   47        0.249312
   48        0.251932
   49        0.266670
   50        0.689783
   51        0.692202
   52        0.769443
   53        0.780178
   54        0.785492
   55        0.794486
   56        1.344237
   57        1.365239
   58        1.368565
   59        1.828473
   60        1.828788
   61        1.833673
   62        1.834525
   63        2.293660
   64        2.301734
   65        6.227200
   66        6.231539
   67        6.477172
   68        6.483066
   69        6.487014
   70        6.489190
   71        6.888293
   72        6.896640
   73        7.439756
   74        7.785971
   75        7.788511
   76        8.254938
   77        8.738676
   78       11.059120
   79       11.062037
   80       11.752391
   81       11.890847
   82       11.893595
   83       12.010649
   84       12.746995
 
  0.3333333E+00 -0.5551115E-16  0.0000000E+00  0.6172840E-02
    1      -14.581226
    2      -14.477211
    3      -14.475754
    4      -14.366497
    5      -12.635730
    6      -12.544580
    7      -12.543186
    8      -12.448074
    9      -10.779979
   10      -10.776358
   11      -10.702717
   12      -10.700508
   13      -10.697988
   14      -10.697221
   15      -10.620411
   16      -10.616696
   17       -7.069485
   18       -7.058783
   19       -7.018406
   20       -7.014673
   21       -7.006696
   22       -7.005003
   23       -6.962052
   24       -6.951589
   25       -5.280534
   26       -5.232909
   27       -5.232407
   28       -5.183838
   29       -3.687816
   30       -3.671929
   31       -3.656419
   32       -3.655375
   33       -3.640398
   34       -3.639340
   35       -3.623060
   36       -3.606926
   37       -3.197803
   38       -2.480493
   39       -2.478585
   40       -1.623772
   41       -1.408523
   42       -1.392092
   43       -1.387871
   44       -1.371543
   45       -0.948083
   46       -0.925968
   47       -0.924810
   48       -0.905838
   49       -0.898804
   50       -0.263927
   51       -0.261804
   52        0.208184
   53        0.220690
   54        0.225815
   55        0.237572
   56        0.481270
   57        1.181676
   58        1.184423
   59        1.704310
   60        1.705192
   61        1.708294
   62        1.709522
   63        2.273173
   64        2.278135
   65        6.600889
   66        6.606310
   67        6.868334
   68        6.873863
   69        6.876536
   70        6.878591
   71        7.210105
   72        7.215016
   73        8.948334
   74        9.190166
   75        9.263268
   76        9.266003
   77        9.673249
   78       11.454699
   79       11.457726
   80       11.554962
   81       11.979210
   82       12.053166
   83       12.056111
   84       12.285437
 
  0.4444444E+00 -0.5551115E-16  0.0000000E+00  0.6172840E-02
    1      -14.071596
    2      -13.970964
    3      -13.969511
    4      -13.863975
    5      -13.421345
    6      -13.324993
    7      -13.323605
    8      -13.222878
    9      -10.911504
   10      -10.909503
   11      -10.833311
   12      -10.830563
   13      -10.829775
   14      -10.829455
   15      -10.749088
   16      -10.747000
   17       -6.323588
   18       -6.315637
   19       -6.287689
   20       -6.283286
   21       -6.279121
   22       -6.276511
   23       -6.247273
   24       -6.240223
   25       -4.437162
   26       -4.428410
   27       -4.410595
   28       -4.410474
   29       -4.402015
   30       -4.400497
   31       -4.381183
   32       -4.371587
   33       -3.801856
   34       -3.762914
   35       -3.762036
   36       -3.722284
   37       -2.586807
   38       -2.332008
   39       -2.301773
   40       -2.300413
   41       -2.269382
   42       -1.885909
   43       -1.884007
   44       -1.815927
   45       -1.139761
   46       -1.137750
   47       -1.053202
   48       -0.942586
   49       -0.927104
   50       -0.922584
   51       -0.907373
   52       -0.387822
   53       -0.373680
   54       -0.368957
   55       -0.354989
   56       -0.341631
   57        1.079609
   58        1.081645
   59        1.629613
   60        1.631314
   61        1.632417
   62        1.634298
   63        2.248003
   64        2.250670
   65        6.891483
   66        6.895109
   67        7.135732
   68        7.141233
   69        7.141559
   70        7.143149
   71        7.396238
   72        7.398932
   73        9.822050
   74       10.563536
   75       10.625625
   76       10.797948
   77       10.801664
   78       11.143376
   79       11.883371
   80       11.891538
   81       12.145698
   82       12.197868
   83       12.215343
   84       12.218473
 
  0.1355253E-19  0.1111111E+00  0.0000000E+00  0.6172840E-02
    1      -15.167389
    2      -15.059550
    3      -15.058069
    4      -14.944500
    5      -10.715455
    6      -10.639791
    7      -10.638242
    8      -10.560283
    9      -10.180069
   10      -10.172036
   11      -10.115395
   12      -10.114029
   13      -10.106805
   14      -10.105273
   15      -10.048717
   16      -10.039976
   17       -8.559041
   18       -8.551174
   19       -8.508241
   20       -8.503989
   21       -8.498482
   22       -8.497150
   23       -8.448782
   24       -8.440458
   25       -8.037522
   26       -7.978572
   27       -7.977153
   28       -7.915940
   29       -3.906030
   30       -3.171231
   31       -3.169375
   32       -2.290027
   33       -2.270338
   34       -2.250742
   35       -2.249247
   36       -2.246620
   37       -2.228298
   38       -2.227725
   39       -2.226423
   40       -2.206048
   41       -1.970356
   42       -1.952009
   43       -1.950584
   44       -1.932064
   45        1.056894
   46        1.064512
   47        1.067594
   48        1.074937
   49        1.114979
   50        1.193227
   51        1.201018
   52        1.201556
   53        1.209323
   54        1.574593
   55        1.576406
   56        1.581334
   57        1.582045
   58        1.949365
   59        1.949973
   60        1.953472
   61        1.956440
   62        2.049218
   63        2.270664
   64        2.281161
   65        5.956622
   66        5.959510
   67        6.143482
   68        6.149275
   69        6.154674
   70        6.158225
   71        6.278711
   72        6.562266
   73        6.565098
   74        6.575726
   75        6.589166
   76        7.041174
   77        8.467455
   78       10.815497
   79       10.818428
   80       11.640336
   81       11.783673
   82       11.785505
   83       11.932521
   84       11.946837
 
  0.1111111E+00  0.1111111E+00  0.0000000E+00  0.6172840E-02
    1      -15.020354
    2      -14.913490
    3      -14.912018
    4      -14.799517
    5      -11.179663
    6      -11.176720
    7      -11.100516
    8      -11.096120
    9      -11.096099
   10      -11.094671
   11      -11.014030
   12      -11.011107
   13       -9.748511
   14       -9.706180
   15       -9.706049
   16       -9.669016
   17       -8.688244
   18       -8.665755
   19       -8.661371
   20       -8.628907
   21       -7.354826
   22       -7.351760
   23       -7.298796
   24       -7.295030
   25       -7.295010
   26       -7.292511
   27       -7.236935
   28       -7.233674
   29       -3.727967
   30       -2.997451
   31       -2.995577
   32       -2.931014
   33       -2.904337
   34       -2.903620
   35       -2.876080
   36       -2.125936
   37       -2.122895
   38       -2.122030
   39       -2.106774
   40       -2.101773
   41       -2.101710
   42       -2.101704
   43       -2.082465
   44       -2.080232
   45        0.530487
   46        0.538850
   47        0.541211
   48        0.550500
   49        0.687372
   50        0.690035
   51        0.872258
   52        0.881176
   53        0.885728
   54        0.891195
   55        1.218905
   56        1.222849
   57        1.223024
   58        1.223805
   59        1.798409
   60        1.800688
   61        1.952289
   62        2.267185
   63        2.268475
   64        2.498449
   65        5.840876
   66        5.939257
   67        5.944993
   68        6.285742
   69        6.779653
   70        6.781973
   71        7.103955
   72        7.106142
   73        7.106912
   74        7.110252
   75        7.569862
   76        7.572477
   77        8.648458
   78       10.978848
   79       10.981769
   80       12.010737
   81       12.014752
   82       12.153196
   83       12.158549
   84       12.160250
 
  0.2222222E+00  0.1111111E+00  0.0000000E+00  0.6172840E-02
    1      -14.727173
    2      -14.622232
    3      -14.620774
    4      -14.510440
    5      -12.143242
    6      -12.055473
    7      -12.054033
    8      -11.962701
    9      -11.519784
   10      -11.436544
   11      -11.435032
   12      -11.348317
   13       -9.794799
   14       -9.732349
   15       -9.731592
   16       -9.668796
   17       -8.212892
   18       -8.165709
   19       -8.161787
   20       -8.110625
   21       -6.571157
   22       -6.519122
   23       -6.517323
   24       -6.463978
   25       -5.972725
   26       -5.921772
   27       -5.921420
   28       -5.869379
   29       -3.837425
   30       -3.804362
   31       -3.803678
   32       -3.769801
   33       -3.373704
   34       -2.651939
   35       -2.649994
   36       -2.649035
   37       -2.623761
   38       -2.622666
   39       -2.596793
   40       -1.839078
   41       -1.820311
   42       -1.816357
   43       -1.797437
   44       -1.788679
   45       -0.421876
   46       -0.407345
   47       -0.404581
   48       -0.389786
   49       -0.342585
   50        0.269277
   51        0.271596
   52        0.329452
   53        0.340504
   54        0.346283
   55        0.354717
   56        0.360325
   57        0.934023
   58        0.935358
   59        0.974299
   60        1.581595
   61        2.095349
   62        2.469732
   63        2.470920
   64        2.790371
   65        5.829715
   66        5.947180
   67        5.952611
   68        6.239809
   69        7.360198
   70        7.673991
   71        7.676923
   72        8.071056
   73        8.146917
   74        8.476396
   75        8.478639
   76        8.899301
   77        9.011341
   78       11.303801
   79       11.306741
   80       12.070620
   81       12.252869
   82       12.292005
   83       12.294714
   84       12.583471
 
  0.3333333E+00  0.1111111E+00  0.0000000E+00  0.6172840E-02
    1      -14.289304
    2      -14.187212
    3      -14.185769
    4      -14.078662
    5      -12.992235
    6      -12.898761
    7      -12.897347
    8      -12.799759
    9      -11.728358
   10      -11.643573
   11      -11.642027
   12      -11.553677
   13       -9.936886
   14       -9.866909
   15       -9.865699
   16       -9.793735
   17       -7.446794
   18       -7.399614
   19       -7.395821
   20       -7.347456
   21       -5.774576
   22       -5.732298
   23       -5.729809
   24       -5.686885
   25       -4.775411
   26       -4.740596
   27       -4.739762
   28       -4.703764
   29       -4.525244
   30       -4.482752
   31       -4.482217
   32       -4.438740
   33       -3.346938
   34       -3.318889
   35       -3.318591
   36       -3.289335
   37       -2.847066
   38       -2.139267
   39       -2.137288
   40       -1.665788
   41       -1.641512
   42       -1.639311
   43       -1.615561
   44       -1.423126
   45       -1.405474
   46       -1.401367
   47       -1.383626
   48       -1.312532
   49       -1.295396
   50       -0.654373
   51       -0.652380
   52       -0.291890
   53       -0.278354
   54       -0.272937
   55       -0.260090
   56        0.117784
   57        0.152429
   58        0.750009
   59        0.751259
   60        1.434906
   61        2.103528
   62        2.560171
   63        2.561055
   64        3.025222
   65        5.859093
   66        6.066177
   67        6.070845
   68        6.340550
   69        7.864799
   70        8.127964
   71        8.131110
   72        8.419491
   73        9.554003
   74        9.708196
   75        9.981436
   76        9.984006
   77       10.334090
   78       11.160922
   79       11.766907
   80       11.770676
   81       12.399886
   82       12.450640
   83       12.453409
   84       12.672689
 
  0.4444444E+00  0.1111111E+00  0.0000000E+00  0.6172840E-02
    1      -13.711229
    2      -13.708334
    3      -13.614257
    4      -13.610585
    5      -13.609626
    6      -13.608713
    7      -13.508644
    8      -13.505736
    9      -11.798951
   10      -11.713625
   11      -11.712061
   12      -11.623200
   13       -9.991317
   14       -9.919990
   15       -9.918606
   16       -9.844992
   17       -6.941614
   18       -6.912381
   19       -6.908720
   20       -6.880925
   21       -5.307881
   22       -5.303443
   23       -5.285070
   24       -5.284703
   25       -5.282964
   26       -5.280008
   27       -5.260981
   28       -5.257259
   29       -3.765083
   30       -3.748169
   31       -3.746681
   32       -3.726980
   33       -3.068603
   34       -3.065569
   35       -3.035475
   36       -3.034508
   37       -3.032538
   38       -3.029440
   39       -3.000135
   40       -2.996240
   41       -2.156943
   42       -2.154564
   43       -1.470328
   44       -1.466870
   45       -1.466055
   46       -1.464793
   47       -0.900466
   48       -0.892893
   49       -0.882927
   50       -0.876148
   51       -0.875141
   52       -0.873948
   53       -0.860535
   54       -0.856938
   55       -0.654595
   56       -0.651985
   57        0.081614
   58        0.686424
   59        0.687601
   60        1.382929
   61        2.095792
   62        2.583312
   63        2.583979
   64        3.108748
   65        5.887257
   66        6.134179
   67        6.137860
   68        6.397034
   69        8.079278
   70        8.304451
   71        8.308025
   72        8.533214
   73       10.273390
   74       10.274953
   75       11.290045
   76       11.293137
   77       11.460414
   78       11.464882
   79       11.466348
   80       11.472431
   81       11.763237
   82       11.766492
   83       12.377689
   84       12.383401
 
 -0.4444444E+00  0.1111111E+00  0.0000000E+00  0.6172840E-02
    1      -14.290069
    2      -14.187988
    3      -14.186521
    4      -14.079424
    5      -12.991029
    6      -12.897540
    7      -12.896161
    8      -12.798557
    9      -11.730140
   10      -11.645308
   11      -11.643741
   12      -11.555472
   13       -9.934169
   14       -9.864202
   15       -9.862749
   16       -9.790758
   17       -7.438314
   18       -7.390505
   19       -7.388347
   20       -7.339284
   21       -5.785933
   22       -5.744108
   23       -5.740219
   24       -5.697728
   25       -4.787581
   26       -4.752952
   27       -4.752172
   28       -4.716287
   29       -4.527456
   30       -4.485126
   31       -4.484257
   32       -4.440939
   33       -3.332525
   34       -3.304792
   35       -3.303390
   36       -3.274465
   37       -2.847808
   38       -2.139967
   39       -2.138039
   40       -1.665682
   41       -1.640944
   42       -1.640105
   43       -1.615914
   44       -1.421123
   45       -1.403551
   46       -1.399093
   47       -1.381499
   48       -1.311459
   49       -1.296088
   50       -0.653379
   51       -0.651287
   52       -0.291396
   53       -0.278115
   54       -0.273918
   55       -0.260711
   56        0.118797
   57        0.150943
   58        0.748429
   59        0.749508
   60        1.432861
   61        2.104478
   62        2.562678
   63        2.563450
   64        3.030473
   65        5.860757
   66        6.069964
   67        6.072865
   68        6.342478
   69        7.859378
   70        8.122806
   71        8.126965
   72        8.416731
   73        9.552988
   74        9.708442
   75        9.981005
   76        9.983616
   77       10.333171
   78       11.162424
   79       11.766296
   80       11.770042
   81       12.396552
   82       12.447470
   83       12.451007
   84       12.668790
 
 -0.3333333E+00  0.1111111E+00  0.0000000E+00  0.6172840E-02
    1      -14.727720
    2      -14.622785
    3      -14.621309
    4      -14.510981
    5      -12.141820
    6      -12.054026
    7      -12.052635
    8      -11.961279
    9      -11.523504
   10      -11.440167
   11      -11.438622
   12      -11.351949
   13       -9.788907
   14       -9.726413
   15       -9.724937
   16       -9.662025
   17       -8.205983
   18       -8.157313
   19       -8.155695
   20       -8.103269
   21       -6.582753
   22       -6.531398
   23       -6.527997
   24       -6.475380
   25       -5.975042
   26       -5.924159
   27       -5.923680
   28       -5.871709
   29       -3.853267
   30       -3.820588
   31       -3.819274
   32       -3.785783
   33       -3.374244
   34       -2.652398
   35       -2.650523
   36       -2.630851
   37       -2.605397
   38       -2.604328
   39       -2.578330
   40       -1.837392
   41       -1.818690
   42       -1.814520
   43       -1.795699
   44       -1.789192
   45       -0.425629
   46       -0.410291
   47       -0.410070
   48       -0.394943
   49       -0.341502
   50        0.270352
   51        0.272780
   52        0.335719
   53        0.344654
   54        0.348953
   55        0.356156
   56        0.359700
   57        0.931010
   58        0.931990
   59        0.975229
   60        1.577449
   61        2.096343
   62        2.474404
   63        2.475453
   64        2.800803
   65        5.829884
   66        5.953511
   67        5.956108
   68        6.246019
   69        7.353078
   70        7.665626
   71        7.670270
   72        8.064785
   73        8.146606
   74        8.475554
   75        8.477918
   76        8.898116
   77        9.010596
   78       11.303163
   79       11.306094
   80       12.069877
   81       12.251961
   82       12.289491
   83       12.292600
   84       12.581959
 
 -0.2222222E+00  0.1111111E+00  0.0000000E+00  0.6172840E-02
    1      -15.020685
    2      -14.913834
    3      -14.912352
    4      -14.799851
    5      -11.183558
    6      -11.176535
    7      -11.103072
    8      -11.101595
    9      -11.096019
   10      -11.094516
   11      -11.018167
   12      -11.010915
   13       -9.738780
   14       -9.696225
   15       -9.694752
   16       -9.657419
   17       -8.685010
   18       -8.660639
   19       -8.659173
   20       -8.624748
   21       -7.363575
   22       -7.354890
   23       -7.307241
   24       -7.304010
   25       -7.297206
   26       -7.296834
   27       -7.245685
   28       -7.237125
   29       -3.728295
   30       -2.997765
   31       -2.995911
   32       -2.948781
   33       -2.922553
   34       -2.921063
   35       -2.894046
   36       -2.123877
   37       -2.122358
   38       -2.104475
   39       -2.103946
   40       -2.100522
   41       -2.083233
   42       -2.082256
   43       -2.080896
   44       -2.061175
   45        0.518552
   46        0.526731
   47        0.528849
   48        0.536619
   49        0.685293
   50        0.689514
   51        0.888189
   52        0.894387
   53        0.895579
   54        0.902334
   55        1.217330
   56        1.218277
   57        1.221453
   58        1.224220
   59        1.793607
   60        1.799879
   61        1.953026
   62        2.273196
   63        2.274465
   64        2.512107
   65        5.839520
   66        5.947025
   67        5.949629
   68        6.295962
   69        6.773687
   70        6.781227
   71        7.094979
   72        7.099959
   73        7.105414
   74        7.108212
   75        7.561644
   76        7.570693
   77        8.647999
   78       10.978418
   79       10.981335
   80       12.010982
   81       12.047149
   82       12.156863
   83       12.158414
   84       12.191773
 
 -0.1111111E+00  0.1111111E+00  0.0000000E+00  0.6172840E-02
    1      -15.167498
    2      -15.059655
    3      -15.058171
    4      -14.944609
    5      -10.722842
    6      -10.647177
    7      -10.645856
    8      -10.567918
    9      -10.171708
   10      -10.169442
   11      -10.107880
   12      -10.103895
   13      -10.103876
   14      -10.103444
   15      -10.039659
   16      -10.037505
   17       -8.554254
   18       -8.552502
   19       -8.502250
   20       -8.500120
   21       -8.500113
   22       -8.498564
   23       -8.443872
   24       -8.441954
   25       -8.045207
   26       -7.987141
   27       -7.983867
   28       -7.923622
   29       -3.906141
   30       -3.171326
   31       -3.169476
   32       -2.290134
   33       -2.270730
   34       -2.267972
   35       -2.251150
   36       -2.246653
   37       -2.246246
   38       -2.246243
   39       -2.226615
   40       -2.224628
   41       -1.950693
   42       -1.931973
   43       -1.931025
   44       -1.912147
   45        1.039720
   46        1.050099
   47        1.055448
   48        1.062187
   49        1.110776
   50        1.206384
   51        1.213769
   52        1.216306
   53        1.225665
   54        1.574834
   55        1.575315
   56        1.576952
   57        1.579348
   58        1.952209
   59        1.956658
   60        1.956981
   61        1.957090
   62        2.040338
   63        2.280846
   64        2.282855
   65        5.957451
   66        5.959642
   67        6.151982
   68        6.154012
   69        6.154506
   70        6.158835
   71        6.274663
   72        6.552866
   73        6.558255
   74        6.585807
   75        6.588790
   76        7.031158
   77        8.467300
   78       10.815346
   79       10.818276
   80       11.674836
   81       11.818773
   82       11.819519
   83       11.933237
   84       11.955032
 
  0.2710505E-19  0.2222222E+00  0.0000000E+00  0.6172840E-02
    1      -14.947143
    2      -14.840748
    3      -14.839267
    4      -14.727287
    5      -11.724381
    6      -11.639422
    7      -11.637915
    8      -11.549871
    9      -10.524707
   10      -10.518771
   11      -10.451192
   12      -10.448906
   13      -10.443787
   14      -10.443144
   15      -10.372527
   16      -10.366374
   17       -7.876351
   18       -7.865867
   19       -7.820660
   20       -7.816686
   21       -7.808406
   22       -7.807362
   23       -7.758435
   24       -7.747912
   25       -6.713052
   26       -6.658299
   27       -6.656840
   28       -6.600492
   29       -3.639307
   30       -2.910948
   31       -2.909091
   32       -2.875433
   33       -2.855997
   34       -2.850106
   35       -2.846461
   36       -2.829232
   37       -2.828537
   38       -2.820687
   39       -2.801354
   40       -2.038619
   41       -1.755523
   42       -1.737492
   43       -1.736015
   44       -1.717959
   45        0.109593
   46        0.233531
   47        0.247626
   48        0.249312
   49        0.263641
   50        0.690791
   51        0.692284
   52        0.773549
   53        0.784116
   54        0.785492
   55        0.795962
   56        1.344840
   57        1.364893
   58        1.367942
   59        1.827651
   60        1.828755
   61        1.832610
   62        1.834218
   63        2.293531
   64        2.300663
   65        6.227434
   66        6.233273
   67        6.477654
   68        6.483042
   69        6.488371
   70        6.491429
   71        6.888506
   72        6.898513
   73        7.438373
   74        7.784601
   75        7.787305
   76        8.253658
   77        8.738689
   78       11.059183
   79       11.062095
   80       11.752957
   81       11.891981
   82       11.893600
   83       12.011208
   84       12.757885
 
  0.1111111E+00  0.2222222E+00  0.0000000E+00  0.6172840E-02
    1      -14.727178
    2      -14.622241
    3      -14.620774
    4      -14.510444
    5      -12.143293
    6      -12.055574
    7      -12.054033
    8      -11.962752
    9      -11.519748
   10      -11.436474
   11      -11.435032
   12      -11.348284
   13       -9.794790
   14       -9.732333
   15       -9.731592
   16       -9.668789
   17       -8.212831
   18       -8.165595
   19       -8.161787
   20       -8.110570
   21       -6.570200
   22       -6.517356
   23       -6.517134
   24       -6.462980
   25       -5.973661
   26       -5.923371
   27       -5.921753
   28       -5.870376
   29       -3.837497
   30       -3.804364
   31       -3.803833
   32       -3.769888
   33       -3.373689
   34       -2.651984
   35       -2.650477
   36       -2.649934
   37       -2.626349
   38       -2.622668
   39       -2.597970
   40       -1.837449
   41       -1.817619
   42       -1.816356
   43       -1.796264
   44       -1.788656
   45       -0.422559
   46       -0.407345
   47       -0.406554
   48       -0.391481
   49       -0.342249