   32   32    1    1
  0.9306161E+01  0.4934311E-09  0.4934311E-09  0.1412406E-08  0.5000000E-15
  1.000000000000000E-004
  CAR 
 graphite                                
    128    163     84
 
  0.0000000E+00  0.0000000E+00  0.0000000E+00  0.3086420E-02
    1      -15.346162
    2      -15.248884
    3      -15.248075
    4      -15.146201
    5      -10.051604
    6      -10.049433
    7      -10.047475
    8      -10.014893
    9      -10.011216
   10      -10.010876
   11      -10.010074
   12      -10.010073
   13      -10.007289
   14       -9.977810
   15       -9.976483
   16       -9.974356
   17       -8.989166
   18       -8.985867
   19       -8.984294
   20       -8.967385
   21       -8.963314
   22       -8.962732
   23       -8.961807
   24       -8.961806
   25       -8.958859
   26       -8.933111
   27       -8.930295
   28       -8.927894
   29       -4.061638
   30       -3.375311
   31       -3.373844
   32       -2.557973
   33       -2.163096
   34       -2.160295
   35       -2.156429
   36       -2.147923
   37       -2.143912
   38       -2.143690
   39       -2.143687
   40       -2.140541
   41       -2.138356
   42       -2.128734
   43       -2.126880
   44       -2.122291
   45        1.214725
   46        1.225137
   47        1.228773
   48        1.229062
   49        1.232641
   50        1.233564
   51        1.236226
   52        1.245726
   53        1.587574
   54        1.589662
   55        1.591543
   56        1.877453
   57        1.881163
   58        1.881689
   59        1.881729
   60        1.881846
   61        1.884787
   62        2.104252
   63        2.105775
   64        2.107289
   65        5.737412
   66        5.741402
   67        5.743374
   68        5.888528
   69        5.894565
   70        5.895764
   71        5.896623
   72        5.896876
   73        5.901871
   74        6.286664
   75        6.291277
   76        6.294131
   77        8.159984
   78       10.418082
   79       10.420865
   80       11.480139
   81       11.483756
   82       11.488098
   83       11.614574
   84       11.617542
 
  0.1111111E+00  0.0000000E+00  0.0000000E+00  0.6172840E-02
    1      -15.272723
    2      -15.175906
    3      -15.175101
    4      -15.073732
    5      -10.830853
    6      -10.763440
    7      -10.762417
    8      -10.693207
    9      -10.290541
   10      -10.288332
   11      -10.233613
   12      -10.231366
   13      -10.230629
   14      -10.229261
   15      -10.173691
   16      -10.171472
   17       -8.672038
   18       -8.668883
   19       -8.626457
   20       -8.622991
   21       -8.621750
   22       -8.621417
   23       -8.574054
   24       -8.571130
   25       -8.153632
   26       -8.101369
   27       -8.100236
   28       -8.045871
   29       -3.972678
   30       -3.288336
   31       -3.286866
   32       -2.473495
   33       -2.386506
   34       -2.382065
   35       -2.368505
   36       -2.367103
   37       -2.364022
   38       -2.361894
   39       -2.348756
   40       -2.343773
   41       -2.089796
   42       -2.074574
   43       -2.071454
   44       -2.056121
   45        0.927614
   46        0.934471
   47        0.937221
   48        0.945732
   49        1.025070
   50        1.061044
   51        1.069879
   52        1.073900
   53        1.079161
   54        1.453560
   55        1.456142
   56        1.483654
   57        1.485800
   58        1.828507
   59        1.830048
   60        1.830170
   61        1.832940
   62        1.887624
   63        2.131885
   64        2.133909
   65        5.832906
   66        5.837153
   67        6.019270
   68        6.025080
   69        6.026416
   70        6.028083
   71        6.168239
   72        6.419157
   73        6.423750
   74        6.435594
   75        6.439197
   76        6.875862
   77        8.250539
   78       10.500716
   79       10.503489
   80       11.521696
   81       11.650241
   82       11.652267
   83       11.784543
   84       11.817318
 
  0.2222222E+00 -0.1387779E-16  0.0000000E+00  0.6172840E-02
    1      -15.052839
    2      -14.957399
    3      -14.956603
    4      -14.856716
    5      -11.836731
    6      -11.760855
    7      -11.760097
    8      -11.681654
    9      -10.634221
   10      -10.632311
   11      -10.568939
   12      -10.566675
   13      -10.566118
   14      -10.565193
   15      -10.499216
   16      -10.497297
   17       -7.988862
   18       -7.985775
   19       -7.939303
   20       -7.936100
   21       -7.934749
   22       -7.934381
   23       -7.884531
   24       -7.881619
   25       -6.831800
   26       -6.783161
   27       -6.782166
   28       -6.732524
   29       -3.706821
   30       -3.028442
   31       -3.026960
   32       -2.990457
   33       -2.986297
   34       -2.967619
   35       -2.966425
   36       -2.963541
   37       -2.961450
   38       -2.942881
   39       -2.938294
   40       -2.221749
   41       -1.875495
   42       -1.860460
   43       -1.857209
   44       -1.842320
   45        0.028018
   46        0.104339
   47        0.116222
   48        0.119491
   49        0.132259
   50        0.566535
   51        0.568390
   52        0.644777
   53        0.654602
   54        0.659072
   55        0.666887
   56        1.170666
   57        1.279644
   58        1.281631
   59        1.707394
   60        1.708940
   61        1.709080
   62        1.711805
   63        2.140859
   64        2.143043
   65        6.113653
   66        6.117769
   67        6.351787
   68        6.357321
   69        6.358412
   70        6.359869
   71        6.730334
   72        6.734211
   73        7.333898
   74        7.654942
   75        7.657681
   76        8.086282
   77        8.522804
   78       10.748092
   79       10.750846
   80       11.632638
   81       11.757781
   82       11.759839
   83       11.861876
   84       12.606499
 
  0.3333333E+00  0.5551115E-16  0.0000000E+00  0.6172840E-02
    1      -14.687648
    2      -14.594423
    3      -14.593639
    4      -14.496179
    5      -12.746115
    6      -12.664579
    7      -12.663861
    8      -12.579393
    9      -10.889736
   10      -10.887976
   11      -10.821091
   12      -10.818756
   13      -10.818415
   14      -10.817599
   15      -10.748011
   16      -10.746247
   17       -7.183774
   18       -7.180609
   19       -7.138747
   20       -7.135320
   21       -7.134094
   22       -7.133532
   23       -7.089079
   24       -7.086146
   25       -5.402875
   26       -5.361094
   27       -5.359917
   28       -5.317482
   29       -3.802923
   30       -3.799305
   31       -3.775445
   32       -3.774694
   33       -3.772180
   34       -3.770023
   35       -3.746179
   36       -3.742155
   37       -3.266504
   38       -2.598704
   39       -2.597214
   40       -1.806508
   41       -1.527625
   42       -1.513197
   43       -1.509747
   44       -1.495422
   45       -1.077491
   46       -1.058459
   47       -1.056035
   48       -1.036877
   49       -0.979461
   50       -0.385466
   51       -0.383856
   52        0.085236
   53        0.096297
   54        0.100599
   55        0.110865
   56        0.302577
   57        1.099609
   58        1.101524
   59        1.583349
   60        1.584915
   61        1.585110
   62        1.587780
   63        2.109831
   64        2.112049
   65        6.492641
   66        6.496222
   67        6.740627
   68        6.745875
   69        6.746575
   70        6.747639
   71        7.053550
   72        7.056604
   73        8.839636
   74        8.976433
   75        9.129108
   76        9.131872
   77        9.506230
   78       11.151903
   79       11.154736
   80       11.361075
   81       11.853341
   82       11.917939
   83       11.920194
   84       12.130149
 
  0.4444444E+00 -0.2775558E-16  0.0000000E+00  0.6172840E-02
    1      -14.179026
    2      -14.088890
    3      -14.088113
    4      -13.994095
    5      -13.530078
    6      -13.443805
    7      -13.443092
    8      -13.353288
    9      -11.021646
   10      -11.019957
   11      -10.951945
   12      -10.949516
   13      -10.949400
   14      -10.948557
   15      -10.877580
   16      -10.875888
   17       -6.443160
   18       -6.440286
   19       -6.411885
   20       -6.407639
   21       -6.407560
   22       -6.406391
   23       -6.376121
   24       -6.373893
   25       -4.553379
   26       -4.551300
   27       -4.530081
   28       -4.529726
   29       -4.528642
   30       -4.526038
   31       -4.504167
   32       -4.501432
   33       -3.926723
   34       -3.892783
   35       -3.891223
   36       -3.856615
   37       -2.657302
   38       -2.459316
   39       -2.433140
   40       -2.431102
   41       -2.404205
   42       -2.005069
   43       -2.003620
   44       -1.888742
   45       -1.259979
   46       -1.258387
   47       -1.235216
   48       -1.062676
   49       -1.049089
   50       -1.045350
   51       -1.032153
   52       -0.522569
   53       -0.509212
   54       -0.496764
   55       -0.492832
   56       -0.480643
   57        0.998915
   58        1.000807
   59        1.508679
   60        1.510262
   61        1.510488
   62        1.513132
   63        2.079258
   64        2.081473
   65        6.783328
   66        6.786152
   67        7.005790
   68        7.010903
   69        7.011220
   70        7.011684
   71        7.242585
   72        7.245106
   73        9.610357
   74       10.416581
   75       10.450074
   76       10.659246
   77       10.663102
   78       10.979258
   79       11.624577
   80       11.631397
   81       12.023230
   82       12.060852
   83       12.063779
   84       12.074432
 
  0.8470329E-21  0.1111111E+00  0.0000000E+00  0.6172840E-02
    1      -15.272725
    2      -15.175909
    3      -15.175101
    4      -15.073733
    5      -10.830774
    6      -10.763274
    7      -10.762415
    8      -10.693117
    9      -10.290692
   10      -10.288466
   11      -10.233920
   12      -10.231366
   13      -10.230629
   14      -10.229545
   15      -10.173790
   16      -10.171693
   17       -8.672207
   18       -8.667700
   19       -8.626787
   20       -8.622990
   21       -8.621426
   22       -8.619155
   23       -8.574201
   24       -8.569731
   25       -8.154515
   26       -8.102069
   27       -8.101356
   28       -8.046808
   29       -3.972674
   30       -3.288329
   31       -3.286863
   32       -2.473488
   33       -2.387688
   34       -2.382131
   35       -2.370281
   36       -2.367103
   37       -2.364022
   38       -2.362443
   39       -2.349653
   40       -2.344186
   41       -2.088289
   42       -2.072157
   43       -2.071454
   44       -2.055086
   45        0.925788
   46        0.932708
   47        0.934472
   48        0.941258
   49        1.025845
   50        1.066851
   51        1.073648
   52        1.073901
   53        1.080607
   54        1.455264
   55        1.456216
   56        1.482812
   57        1.485545
   58        1.826830
   59        1.830059
   60        1.830176
   61        1.832178
   62        1.888677
   63        2.131114
   64        2.133527
   65        5.833063
   66        5.838798
   67        6.019849
   68        6.025068
   69        6.027005
   70        6.030937
   71        6.166559
   72        6.419292
   73        6.425637
   74        6.434602
   75        6.436930
   76        6.874125
   77        8.250544
   78       10.500730
   79       10.503503
   80       11.522155
   81       11.651112
   82       11.652272
   83       11.783916
   84       11.820331
 
  0.1111111E+00  0.1111111E+00  0.0000000E+00  0.6172840E-02
    1      -15.126068
    2      -15.030168
    3      -15.029369
    4      -14.928982
    5      -11.292670
    6      -11.289771
    7      -11.222132
    8      -11.218461
    9      -11.218440
   10      -11.216366
   11      -11.145557
   12      -11.142660
   13       -9.860817
   14       -9.823312
   15       -9.822677
   16       -9.789235
   17       -8.806025
   18       -8.784811
   19       -8.781135
   20       -8.752315
   21       -7.474181
   22       -7.471180
   23       -7.424354
   24       -7.421331
   25       -7.421311
   26       -7.418162
   27       -7.369812
   28       -7.366564
   29       -3.795261
   30       -3.114876
   31       -3.113401
   32       -3.061634
   33       -3.038692
   34       -3.037282
   35       -3.013624
   36       -2.305509
   37       -2.243323
   38       -2.240275
   39       -2.226410
   40       -2.222131
   41       -2.222128
   42       -2.221489
   43       -2.205355
   44       -2.203152
   45        0.397196
   46        0.404168
   47        0.406968
   48        0.415618
   49        0.603422
   50        0.605992
   51        0.748011
   52        0.756539
   53        0.760200
   54        0.764999
   55        1.095227
   56        1.098674
   57        1.098749
   58        1.099928
   59        1.630238
   60        1.632496
   61        1.857713
   62        2.147480
   63        2.149341
   64        2.369224
   65        5.707627
   66        5.814766
   67        5.819878
   68        6.136115
   69        6.671685
   70        6.673976
   71        6.974161
   72        6.976035
   73        6.976556
   74        6.980229
   75        7.402204
   76        7.404781
   77        8.432083
   78       10.666262
   79       10.669021
   80       11.891475
   81       11.895443
   82       12.019719
   83       12.024610
   84       12.026895
 
  0.2222222E+00  0.1111111E+00  0.0000000E+00  0.6172840E-02
    1      -14.833513
    2      -14.739391
    3      -14.738606
    4      -14.640203
    5      -12.254021
    6      -12.175568
    7      -12.174810
    8      -12.093492
    9      -11.631273
   10      -11.556763
   11      -11.555939
   12      -11.478789
   13       -9.905656
   14       -9.849703
   15       -9.849544
   16       -9.793456
   17       -8.327671
   18       -8.285478
   19       -8.282273
   20       -8.236984
   21       -6.693243
   22       -6.646980
   23       -6.645898
   24       -6.598583
   25       -6.094856
   26       -6.050135
   27       -6.049118
   28       -6.003629
   29       -3.965238
   30       -3.936569
   31       -3.935195
   32       -3.905693
   33       -3.442102
   34       -2.770014
   35       -2.768496
   36       -2.765200
   37       -2.742850
   38       -2.742470
   39       -2.719566
   40       -1.971830
   41       -1.956655
   42       -1.940178
   43       -1.936989
   44       -1.920398
   45       -0.552432
   46       -0.540046
   47       -0.536630
   48       -0.523634
   49       -0.420783
   50        0.147482
   51        0.149253
   52        0.205564
   53        0.215685
   54        0.220377
   55        0.227983
   56        0.279160
   57        0.797932
   58        0.811754
   59        0.812660
   60        1.409135
   61        2.004434
   62        2.349402
   63        2.351141
   64        2.652109
   65        5.702279
   66        5.820952
   67        5.825745
   68        6.089959
   69        7.252118
   70        7.542413
   71        7.544822
   72        7.907081
   73        8.039505
   74        8.343474
   75        8.345803
   76        8.731996
   77        8.796328
   78       10.995964
   79       10.998726
   80       11.908795
   81       12.108754
   82       12.157203
   83       12.159222
   84       12.415981
 
  0.3333333E+00  0.1111111E+00  0.0000000E+00  0.6172840E-02
    1      -14.396584
    2      -14.305109
    3      -14.304340
    4      -14.208872
    5      -13.101304
    6      -13.017639
    7      -13.016901
    8      -12.929939
    9      -11.838487
   10      -11.762620
   11      -11.761762
   12      -11.683219
   13      -10.047721
   14       -9.985151
   15       -9.984629
   16       -9.920636
   17       -7.563095
   18       -7.521343
   19       -7.518275
   20       -7.475433
   21       -5.899435
   22       -5.862008
   23       -5.860252
   24       -5.822121
   25       -4.899279
   26       -4.869059
   27       -4.867540
   28       -4.836354
   29       -4.650011
   30       -4.612898
   31       -4.611684
   32       -4.573839
   33       -3.462672
   34       -3.438028
   35       -3.437614
   36       -3.412267
   37       -2.917083
   38       -2.258266
   39       -2.256721
   40       -1.793558
   41       -1.772800
   42       -1.769936
   43       -1.749220
   44       -1.541496
   45       -1.525875
   46       -1.522531
   47       -1.507009
   48       -1.478183
   49       -1.386373
   50       -0.774702
   51       -0.773192
   52       -0.415071
   53       -0.403015
   54       -0.398424
   55       -0.387201
   56       -0.061593
   57        0.074383
   58        0.628856
   59        0.629836
   60        1.260760
   61        2.017127
   62        2.438922
   63        2.440275
   64        2.871145
   65        5.745726
   66        5.937963
   67        5.941980
   68        6.187246
   69        7.754322
   70        7.995603
   71        7.998137
   72        8.262346
   73        9.340731
   74        9.595951
   75        9.845582
   76        9.848159
   77       10.169781
   78       10.956464
   79       11.470995
   80       11.474357
   81       12.275779
   82       12.306157
   83       12.308265
   84       12.521821
 
  0.4444444E+00  0.1111111E+00  0.0000000E+00  0.6172840E-02
    1      -13.819241
    2      -13.816553
    3      -13.732576
    4      -13.729247
    5      -13.729123
    6      -13.727197
    7      -13.638794
    8      -13.636078
    9      -11.908177
   10      -11.831773
   11      -11.830898
   12      -11.751823
   13      -10.103115
   14      -10.039522
   15      -10.038829
   16       -9.973351
   17       -7.065236
   18       -7.039642
   19       -7.036726
   20       -7.012044
   21       -5.432031
   22       -5.422322
   23       -5.411393
   24       -5.407879
   25       -5.405968
   26       -5.404350
   27       -5.387975
   28       -5.384756
   29       -3.886123
   30       -3.871514
   31       -3.869386
   32       -3.852631
   33       -3.194629
   34       -3.192174
   35       -3.165252
   36       -3.164101
   37       -3.164049
   38       -3.159435
   39       -3.134331
   40       -3.130647
   41       -2.228518
   42       -2.226353
   43       -1.589849
   44       -1.586596
   45       -1.586395
   46       -1.584681
   47       -1.021332
   48       -1.013612
   49       -1.005353
   50       -0.998513
   51       -0.998444
   52       -0.997889
   53       -0.985572
   54       -0.982574
   55       -0.835999
   56       -0.833572
   57        0.004946
   58        0.566246
   59        0.567242
   60        1.209105
   61        2.010355
   62        2.460825
   63        2.461725
   64        2.945923
   65        5.779904
   66        6.004690
   67        6.007718
   68        6.242902
   69        7.968610
   70        8.172977
   71        8.175896
   72        8.380347
   73       10.063724
   74       10.064578
   75       11.171134
   76       11.174002
   77       11.314971
   78       11.320027
   79       11.321021
   80       11.327797
   81       11.602847
   82       11.606047
   83       12.135104
   84       12.141271
 
 -0.4444444E+00  0.1111111E+00  0.0000000E+00  0.6172840E-02
    1      -14.396691
    2      -14.305235
    3      -14.304444
    4      -14.208980
    5      -13.101137
    6      -13.017454
    7      -13.016751
    8      -12.929772
    9      -11.838709
   10      -11.762850
   11      -11.761974
   12      -11.683439
   13      -10.047597
   14       -9.985154
   15       -9.984393
   16       -9.920527
   17       -7.560611
   18       -7.518168
   19       -7.516733
   20       -7.473181
   21       -5.902052
   22       -5.865203
   23       -5.862044
   24       -5.824512
   25       -4.901962
   26       -4.871151
   27       -4.871038
   28       -4.839273
   29       -4.650006
   30       -4.613033
   31       -4.611482
   32       -4.573771
   33       -3.459705
   34       -3.435723
   35       -3.433643
   36       -3.408915
   37       -2.917115
   38       -2.258272
   39       -2.256764
   40       -1.794506
   41       -1.773293
   42       -1.771748
   43       -1.750715
   44       -1.541704
   45       -1.526128
   46       -1.522437
   47       -1.507033
   48       -1.478188
   49       -1.386337
   50       -0.774724
   51       -0.773132
   52       -0.413085
   53       -0.401355
   54       -0.397926
   55       -0.386351
   56       -0.061594
   57        0.074486
   58        0.628998
   59        0.630021
   60        1.261004
   61        2.016548
   62        2.438631
   63        2.439187
   64        2.870323
   65        5.748103
   66        5.940718
   67        5.943009
   68        6.188612
   69        7.752509
   70        7.993676
   71        7.997192
   72        8.261310
   73        9.340659
   74        9.596309
   75        9.845911
   76        9.848636
   77       10.170255
   78       10.956540
   79       11.471094
   80       11.474455
   81       12.274773
   82       12.304786
   83       12.307623
   84       12.521123
 
 -0.3333333E+00  0.1111111E+00  0.0000000E+00  0.6172840E-02
    1      -14.833590
    2      -14.739476
    3      -14.738675
    4      -14.640280
    5      -12.253825
    6      -12.175333
    7      -12.174620
    8      -12.093293
    9      -11.631711
   10      -11.557213
   11      -11.556359
   12      -11.479221
   13       -9.905534
   14       -9.849912
   15       -9.849126
   16       -9.793371
   17       -8.324736
   18       -8.281526
   19       -8.280624
   20       -8.234287
   21       -6.696019
   22       -6.650488
   23       -6.647809
   24       -6.601237
   25       -6.095009
   26       -6.050341
   27       -6.049188
   28       -6.003758
   29       -3.968682
   30       -3.939716
   31       -3.939112
   32       -3.909324
   33       -3.442127
   34       -2.769998
   35       -2.768522
   36       -2.761407
   37       -2.739580
   38       -2.737821
   39       -2.715420
   40       -1.971836
   41       -1.956701
   42       -1.940236
   43       -1.936834
   44       -1.920349
   45       -0.554600
   46       -0.541494
   47       -0.540428
   48       -0.527491
   49       -0.420772
   50        0.147453
   51        0.149329
   52        0.210634
   53        0.218875
   54        0.221861
   55        0.229970
   56        0.279432
   57        0.798073
   58        0.811934
   59        0.813025
   60        1.409644
   61        2.003262
   62        2.348776
   63        2.349297
   64        2.650946
   65        5.705825
   66        5.825626
   67        5.827732
   68        6.092911
   69        7.249203
   70        7.539069
   71        7.543089
   72        7.904916
   73        8.039724
   74        8.343650
   75        8.346191
   76        8.732348
   77        8.796279
   78       10.996017
   79       10.998776
   80       11.908393
   81       12.108293
   82       12.156363
   83       12.158784
   84       12.415862
 
 -0.2222222E+00  0.1111111E+00  0.0000000E+00  0.6172840E-02
    1      -15.126114
    2      -15.030219
    3      -15.029410
    4      -14.929029
    5      -11.291752
    6      -11.290948
    7      -11.219845
    8      -11.219129
    9      -11.218990
   10      -11.218240
   11      -11.144771
   12      -11.143982
   13       -9.860780
   14       -9.823347
   15       -9.822562
   16       -9.789177
   17       -8.802800
   18       -8.780397
   19       -8.779650
   20       -8.749485
   21       -7.475644
   22       -7.472345
   23       -7.425566
   24       -7.423053
   25       -7.421545
   26       -7.420512
   27       -7.371295
   28       -7.368028
   29       -3.795276
   30       -3.114881
   31       -3.113420
   32       -3.065461
   33       -3.042303
   34       -3.041533
   35       -3.017678
   36       -2.305514
   37       -2.242322
   38       -2.236758
   39       -2.225182
   40       -2.221987
   41       -2.218971
   42       -2.217312
   43       -2.204867
   44       -2.199379
   45        0.392560
   46        0.399839
   47        0.401031
   48        0.407979
   49        0.604347
   50        0.605554
   51        0.757236
   52        0.762802
   53        0.763399
   54        0.769403
   55        1.096576
   56        1.098566
   57        1.098734
   58        1.099919
   59        1.630890
   60        1.632599
   61        1.856203
   62        2.146640
   63        2.147315
   64        2.368116
   65        5.711390
   66        5.820276
   67        5.822496
   68        6.140253
   69        6.668480
   70        6.673751
   71        6.970335
   72        6.974690
   73        6.976303
   74        6.979392
   75        7.399630
   76        7.404497
   77        8.432052
   78       10.666289
   79       10.669046
   80       11.892855
   81       11.898704
   82       12.024240
   83       12.025067
   84       12.029217
 
 -0.1111111E+00  0.1111111E+00  0.0000000E+00  0.6172840E-02
    1      -15.272740
    2      -15.175926
    3      -15.175114
    4      -15.073749
    5      -10.831468
    6      -10.763843
    7      -10.763212
    8      -10.693788
    9      -10.290325
   10      -10.288089
   11      -10.233743
   12      -10.230465
   13      -10.230457
   14      -10.229365
   15      -10.173471
   16      -10.171331
   17       -8.669518
   18       -8.667808
   19       -8.623018
   20       -8.621609
   21       -8.621604
   22       -8.619386
   23       -8.571825
   24       -8.569908
   25       -8.157040
   26       -8.105457
   27       -8.102898
   28       -8.049221
   29       -3.972679
   30       -3.288330
   31       -3.286869
   32       -2.473490
   33       -2.388424
   34       -2.385682
   35       -2.371195
   36       -2.367071
   37       -2.367068
   38       -2.366769
   39       -2.349988
   40       -2.348033
   41       -2.084142
   42       -2.068305
   43       -2.066673
   44       -2.050534
   45        0.916946
   46        0.926617
   47        0.930990
   48        0.936904
   49        1.026571
   50        1.071340
   51        1.077413
   52        1.080248
   53        1.089084
   54        1.456016
   55        1.457403
   56        1.482354
   57        1.484740
   58        1.825992
   59        1.830037
   60        1.830123
   61        1.830576
   62        1.889726
   63        2.130707
   64        2.132722
   65        5.836829
   66        5.839018
   67        6.025205
   68        6.026974
   69        6.027234
   70        6.031882
   71        6.162639
   72        6.423036
   73        6.425834
   74        6.430040
   75        6.434190
   76        6.870359
   77        8.250533
   78       10.500737
   79       10.503509
   80       11.527134
   81       11.656516
   82       11.656881
   83       11.789041
   84       11.817181
 
 -0.3388132E-20  0.2222222E+00  0.0000000E+00  0.6172840E-02
    1      -15.052845
    2      -14.957411
    3      -14.956603
    4      -14.856723
    5      -11.836765
    6      -11.760920
    7      -11.760098
    8      -11.681687
    9      -10.634638
   10      -10.632019
   11      -10.569722
   12      -10.566674
   13      -10.566114
   14      -10.564554
   15      -10.499563
   16      -10.496971
   17       -7.989201
   18       -7.984599
   19       -7.939944
   20       -7.936099
   21       -7.934393
   22       -7.932079
   23       -7.884766
   24       -7.880202
   25       -6.832627
   26       -6.783898
   27       -6.783150
   28       -6.733419
   29       -3.706802
   30       -3.028411
   31       -3.026949
   32       -2.991703
   33       -2.986397
   34       -2.969620
   35       -2.966425
   36       -2.963541
   37       -2.961890
   38       -2.943834
   39       -2.938573
   40       -2.221723
   41       -1.873906
   42       -1.857961
   43       -1.857209
   44       -1.841264
   45        0.028446
   46        0.102828
   47        0.115441
   48        0.116223
   49        0.129030
   50        0.567465
   51        0.568535
   52        0.648966
   53        0.658349
   54        0.659071
   55        0.668261
   56        1.171300
   57        1.278757
   58        1.281509
   59        1.705610
   60        1.709000
   61        1.709096
   62        1.711317
   63        2.139995
   64        2.142725
   65        6.113889
   66        6.119476
   67        6.352371
   68        6.357344
   69        6.359027
   70        6.362650
   71        6.730523
   72        6.736085
   73        7.332543
   74        7.653878
   75        7.656203
   76        8.085015
   77        8.522815
   78       10.748144
   79       10.750896
   80       11.633192
   81       11.758893
   82       11.759846
   83       11.862423
   84       12.612480
 
  0.1111111E+00  0.2222222E+00  0.0000000E+00  0.6172840E-02
    1      -14.833517
    2      -14.739399
    3      -14.738606
    4      -14.640208
    5      -12.254070
    6      -12.175666
    7      -12.174812
    8      -12.093542
    9      -11.631238
   10      -11.556697
   11      -11.555937
   12      -11.478756
   13       -9.905649
   14       -9.849694
   15       -9.849538
   16       -9.793450
   17       -8.327608
   18       -8.285363
   19       -8.282273
   20       -8.236929
   21       -6.692308
   22       -6.645907
   23       -6.645045
   24       -6.597590
   25       -6.095769
   26       -6.051030
   27       -6.050126
   28       -6.004621
   29       -3.965307
   30       -3.936570
   31       -3.935350
   32       -3.905782
   33       -3.442087
   34       -2.770010
   35       -2.768498
   36       -2.766610
   37       -2.745398
   38       -2.742471
   39       -2.720725
   40       -1.971808
   41       -1.955043
   42       -1.937528
   43       -1.936989
   44       -1.919246
   45       -0.553039
   46       -0.540046
   47       -0.538442
   48       -0.525509
   49       -0.420413