  12  12   0   0
  0.1020254E+02  0.4770584E-09  0.6328126E-09  0.4055487E-09  0.5000000E-15
  1.000000000000000E-004
  CAR 
 ethylene                                
     10.13636981    -17.65109963  301     -3.06267817      1.00000000
    -17.651  0.0000E+00  0.0000E+00
    -17.558  0.0000E+00  0.0000E+00
    -17.466  0.0000E+00  0.0000E+00
    -17.373  0.0000E+00  0.0000E+00
    -17.281  0.0000E+00  0.0000E+00
    -17.188  0.0000E+00  0.0000E+00
    -17.095  0.0000E+00  0.0000E+00
    -17.003  0.0000E+00  0.0000E+00
    -16.910  0.0000E+00  0.0000E+00
    -16.817  0.0000E+00  0.0000E+00
    -16.725  0.0000E+00  0.0000E+00
    -16.632  0.0000E+00  0.0000E+00
    -16.540  0.0000E+00  0.0000E+00
    -16.447  0.0000E+00  0.0000E+00
    -16.354  0.0000E+00  0.0000E+00
    -16.262  0.0000E+00  0.0000E+00
    -16.169  0.0000E+00  0.0000E+00
    -16.076  0.0000E+00  0.0000E+00
    -15.984  0.0000E+00  0.0000E+00
    -15.891  0.0000E+00  0.0000E+00
    -15.799  0.0000E+00  0.0000E+00
    -15.706  0.0000E+00  0.0000E+00
    -15.613  0.9854E-02  0.1900E-03
    -15.521  0.2737E-01  0.1851E-02
    -15.428  0.8033E-01  0.6066E-02
    -15.335  0.1748E+00  0.1705E-01
    -15.243  0.0000E+00  0.2000E-01
    -15.150  0.0000E+00  0.2000E-01
    -15.058  0.0000E+00  0.2000E-01
    -14.965  0.0000E+00  0.2000E-01
    -14.872  0.0000E+00  0.2000E-01
    -14.780  0.0000E+00  0.2000E-01
    -14.687  0.0000E+00  0.2000E-01
    -14.594  0.0000E+00  0.2000E-01
    -14.502  0.0000E+00  0.2000E-01
    -14.409  0.0000E+00  0.2000E-01
    -14.317  0.0000E+00  0.2000E-01
    -14.224  0.0000E+00  0.2000E-01
    -14.131  0.0000E+00  0.2000E-01
    -14.039  0.0000E+00  0.2000E-01
    -13.946  0.0000E+00  0.2000E-01
    -13.853  0.0000E+00  0.2000E-01
    -13.761  0.0000E+00  0.2000E-01
    -13.668  0.0000E+00  0.2000E-01
    -13.576  0.0000E+00  0.2000E-01
    -13.483  0.0000E+00  0.2000E-01
    -13.390  0.0000E+00  0.2000E-01
    -13.298  0.0000E+00  0.2000E-01
    -13.205  0.0000E+00  0.2000E-01
    -13.112  0.0000E+00  0.2000E-01
    -13.020  0.0000E+00  0.2000E-01
    -12.927  0.0000E+00  0.2000E-01
    -12.835  0.0000E+00  0.2000E-01
    -12.742  0.0000E+00  0.2000E-01
    -12.649  0.0000E+00  0.2000E-01
    -12.557  0.0000E+00  0.2000E-01
    -12.464  0.0000E+00  0.2000E-01
    -12.371  0.0000E+00  0.2000E-01
    -12.279  0.0000E+00  0.2000E-01
    -12.186  0.0000E+00  0.2000E-01
    -12.094  0.0000E+00  0.2000E-01
    -12.001  0.0000E+00  0.2000E-01
    -11.908  0.0000E+00  0.2000E-01
    -11.816  0.0000E+00  0.2000E-01
    -11.723  0.0000E+00  0.2000E-01
    -11.630  0.0000E+00  0.2000E-01
    -11.538  0.0000E+00  0.2000E-01
    -11.445  0.0000E+00  0.2000E-01
    -11.353  0.0000E+00  0.2000E-01
    -11.260  0.0000E+00  0.2000E-01
    -11.167  0.0000E+00  0.2000E-01
    -11.075  0.0000E+00  0.2000E-01
    -10.982  0.4032E-01  0.2112E-01
    -10.889  0.5467E-01  0.2589E-01
    -10.797  0.7415E-01  0.3161E-01
    -10.704  0.5593E-01  0.3868E-01
    -10.612  0.0000E+00  0.4000E-01
    -10.519  0.0000E+00  0.4000E-01
    -10.426  0.0000E+00  0.4000E-01
    -10.334  0.0000E+00  0.4000E-01
    -10.241  0.0000E+00  0.4000E-01
    -10.148  0.0000E+00  0.4000E-01
    -10.056  0.0000E+00  0.4000E-01
     -9.963  0.0000E+00  0.4000E-01
     -9.871  0.0000E+00  0.4000E-01
     -9.778  0.0000E+00  0.4000E-01
     -9.685  0.0000E+00  0.4000E-01
     -9.593  0.0000E+00  0.4000E-01
     -9.500  0.0000E+00  0.4000E-01
     -9.407  0.0000E+00  0.4000E-01
     -9.315  0.0000E+00  0.4000E-01
     -9.222  0.0000E+00  0.4000E-01
     -9.130  0.0000E+00  0.4000E-01
     -9.037  0.0000E+00  0.4000E-01
     -8.944  0.0000E+00  0.4000E-01
     -8.852  0.0000E+00  0.4000E-01
     -8.759  0.0000E+00  0.4000E-01
     -8.666  0.0000E+00  0.4000E-01
     -8.574  0.0000E+00  0.4000E-01
     -8.481  0.0000E+00  0.4000E-01
     -8.389  0.0000E+00  0.4000E-01
     -8.296  0.3123E-01  0.4084E-01
     -8.203  0.4349E-01  0.4469E-01
     -8.111  0.3144E-01  0.4814E-01
     -8.018  0.2961E-01  0.5093E-01
     -7.925  0.3379E-01  0.5372E-01
     -7.833  0.3847E-01  0.5765E-01
     -7.740  0.0000E+00  0.6000E-01
     -7.648  0.0000E+00  0.6000E-01
     -7.555  0.0000E+00  0.6000E-01
     -7.462  0.0000E+00  0.6000E-01
     -7.370  0.0000E+00  0.6000E-01
     -7.277  0.0000E+00  0.6000E-01
     -7.184  0.0000E+00  0.6000E-01
     -7.092  0.4539E-02  0.6013E-01
     -6.999  0.1073E-01  0.6082E-01
     -6.907  0.2087E-01  0.6223E-01
     -6.814  0.5073E-01  0.6521E-01
     -6.721  0.7472E-01  0.7284E-01
     -6.629  0.3238E-01  0.7719E-01
     -6.536  0.1818E-01  0.7953E-01
     -6.443  0.0000E+00  0.8000E-01
     -6.351  0.0000E+00  0.8000E-01
     -6.258  0.0000E+00  0.8000E-01
     -6.166  0.0000E+00  0.8000E-01
     -6.073  0.0000E+00  0.8000E-01
     -5.980  0.0000E+00  0.8000E-01
     -5.888  0.0000E+00  0.8000E-01
     -5.795  0.0000E+00  0.8000E-01
     -5.702  0.0000E+00  0.8000E-01
     -5.610  0.0000E+00  0.8000E-01
     -5.517  0.9180E-02  0.8058E-01
     -5.425  0.1242E-01  0.8158E-01
     -5.332  0.1651E-01  0.8290E-01
     -5.239  0.2363E-01  0.8472E-01
     -5.147  0.4340E-01  0.8765E-01
     -5.054  0.4739E-01  0.9234E-01
     -4.961  0.3486E-01  0.9600E-01
     -4.869  0.1668E-01  0.9818E-01
     -4.776  0.9156E-02  0.9934E-01
     -4.684  0.3365E-02  0.9993E-01
     -4.591  0.0000E+00  0.1000E+00
     -4.498  0.0000E+00  0.1000E+00
     -4.406  0.0000E+00  0.1000E+00
     -4.313  0.0000E+00  0.1000E+00
     -4.220  0.0000E+00  0.1000E+00
     -4.128  0.0000E+00  0.1000E+00
     -4.035  0.0000E+00  0.1000E+00
     -3.943  0.0000E+00  0.1000E+00
     -3.850  0.0000E+00  0.1000E+00
     -3.757  0.3278E-02  0.1001E+00
     -3.665  0.8071E-02  0.1006E+00
     -3.572  0.1563E-01  0.1016E+00
     -3.479  0.3592E-01  0.1038E+00
     -3.387  0.7710E-01  0.1095E+00
     -3.294  0.3870E-01  0.1158E+00
     -3.202  0.2038E-01  0.1184E+00
     -3.109  0.7836E-02  0.1199E+00
     -3.016  0.0000E+00  0.1200E+00
     -2.924  0.0000E+00  0.1200E+00
     -2.831  0.0000E+00  0.1200E+00
     -2.738  0.0000E+00  0.1200E+00
     -2.646  0.0000E+00  0.1200E+00
     -2.553  0.0000E+00  0.1200E+00
     -2.461  0.0000E+00  0.1200E+00
     -2.368  0.0000E+00  0.1200E+00
     -2.275  0.0000E+00  0.1200E+00
     -2.183  0.0000E+00  0.1200E+00
     -2.090  0.0000E+00  0.1200E+00
     -1.997  0.0000E+00  0.1200E+00
     -1.905  0.0000E+00  0.1200E+00
     -1.812  0.0000E+00  0.1200E+00
     -1.720  0.0000E+00  0.1200E+00
     -1.627  0.0000E+00  0.1200E+00
     -1.534  0.0000E+00  0.1200E+00
     -1.442  0.0000E+00  0.1200E+00
     -1.349  0.0000E+00  0.1200E+00
     -1.256  0.0000E+00  0.1200E+00
     -1.164  0.0000E+00  0.1200E+00
     -1.071  0.0000E+00  0.1200E+00
     -0.979  0.0000E+00  0.1200E+00
     -0.886  0.0000E+00  0.1200E+00
     -0.793  0.0000E+00  0.1200E+00
     -0.701  0.0000E+00  0.1200E+00
     -0.608  0.0000E+00  0.1200E+00
     -0.515  0.0000E+00  0.1200E+00
     -0.423  0.0000E+00  0.1200E+00
     -0.330  0.0000E+00  0.1200E+00
     -0.238  0.0000E+00  0.1200E+00
     -0.145  0.0000E+00  0.1200E+00
     -0.052  0.0000E+00  0.1200E+00
      0.040  0.0000E+00  0.1200E+00
      0.133  0.0000E+00  0.1200E+00
      0.226  0.0000E+00  0.1200E+00
      0.318  0.0000E+00  0.1200E+00
      0.411  0.0000E+00  0.1200E+00
      0.503  0.0000E+00  0.1200E+00
      0.596  0.0000E+00  0.1200E+00
      0.689  0.0000E+00  0.1200E+00
      0.781  0.0000E+00  0.1200E+00
      0.874  0.0000E+00  0.1200E+00
      0.967  0.0000E+00  0.1200E+00
      1.059  0.0000E+00  0.1200E+00
      1.152  0.0000E+00  0.1200E+00
      1.244  0.0000E+00  0.1200E+00
      1.337  0.1160E-02  0.1200E+00
      1.430  0.3843E-02  0.1203E+00
      1.522  0.5288E-02  0.1207E+00
      1.615  0.6625E-02  0.1213E+00
      1.708  0.7868E-02  0.1219E+00
      1.800  0.9450E-02  0.1227E+00
      1.893  0.1150E-01  0.1237E+00
      1.985  0.1459E-01  0.1249E+00
      2.078  0.1523E-01  0.1263E+00
      2.171  0.1599E-01  0.1277E+00
      2.263  0.1749E-01  0.1293E+00
      2.356  0.1980E-01  0.1310E+00
      2.449  0.2446E-01  0.1331E+00
      2.541  0.2434E-01  0.1353E+00
      2.634  0.2120E-01  0.1375E+00
      2.726  0.1113E-01  0.1393E+00
      2.819  0.4161E-02  0.1399E+00
      2.912  0.0000E+00  0.1400E+00
      3.004  0.0000E+00  0.1400E+00
      3.097  0.0000E+00  0.1400E+00
      3.190  0.0000E+00  0.1400E+00
      3.282  0.0000E+00  0.1400E+00
      3.375  0.0000E+00  0.1400E+00
      3.467  0.4068E-03  0.1400E+00
      3.560  0.4672E-02  0.1404E+00
      3.653  0.5093E-02  0.1408E+00
      3.745  0.5596E-02  0.1413E+00
      3.838  0.6187E-02  0.1419E+00
      3.931  0.6737E-02  0.1425E+00
      4.023  0.7504E-02  0.1431E+00
      4.116  0.8444E-02  0.1439E+00
      4.208  0.9255E-02  0.1447E+00
      4.301  0.1019E-01  0.1456E+00
      4.394  0.1189E-01  0.1466E+00
      4.486  0.1426E-01  0.1478E+00
      4.579  0.1778E-01  0.1493E+00
      4.672  0.2269E-01  0.1512E+00
      4.764  0.2595E-01  0.1535E+00
      4.857  0.2147E-01  0.1556E+00
      4.949  0.1453E-01  0.1572E+00
      5.042  0.1168E-01  0.1585E+00
      5.135  0.9300E-02  0.1594E+00
      5.227  0.1148E-01  0.1603E+00
      5.320  0.1121E-01  0.1614E+00
      5.413  0.1245E-01  0.1625E+00
      5.505  0.1411E-01  0.1636E+00
      5.598  0.1677E-01  0.1652E+00
      5.690  0.1633E-01  0.1667E+00
      5.783  0.1733E-01  0.1683E+00
      5.876  0.1752E-01  0.1699E+00
      5.968  0.2035E-01  0.1716E+00
      6.061  0.2072E-01  0.1736E+00
      6.153  0.1606E-01  0.1753E+00
      6.246  0.1395E-01  0.1767E+00
      6.339  0.1190E-01  0.1779E+00
      6.431  0.1247E-01  0.1790E+00
      6.524  0.9883E-02  0.1801E+00
      6.617  0.1121E-01  0.1810E+00
      6.709  0.1293E-01  0.1821E+00
      6.802  0.1256E-01  0.1833E+00
      6.894  0.1213E-01  0.1845E+00
      6.987  0.9297E-02  0.1854E+00
      7.080  0.9329E-02  0.1863E+00
      7.172  0.1033E-01  0.1872E+00
      7.265  0.7764E-02  0.1880E+00
      7.358  0.6828E-02  0.1887E+00
      7.450  0.4137E-02  0.1892E+00
      7.543  0.2221E-02  0.1895E+00
      7.635  0.1474E-02  0.1897E+00
      7.728  0.1145E-02  0.1898E+00
      7.821  0.7442E-03  0.1899E+00
      7.913  0.4601E-03  0.1900E+00
      8.006  0.2287E-03  0.1900E+00
      8.099  0.2606E-04  0.1900E+00
      8.191  0.0000E+00  0.1900E+00
      8.284  0.0000E+00  0.1900E+00
      8.376  0.0000E+00  0.1900E+00
      8.469  0.0000E+00  0.1900E+00
      8.562  0.0000E+00  0.1900E+00
      8.654  0.0000E+00  0.1900E+00
      8.747  0.0000E+00  0.1900E+00
      8.840  0.0000E+00  0.1900E+00
      8.932  0.0000E+00  0.1900E+00
      9.025  0.0000E+00  0.1900E+00
      9.117  0.0000E+00  0.1900E+00
      9.210  0.0000E+00  0.1900E+00
      9.303  0.0000E+00  0.1900E+00
      9.395  0.0000E+00  0.1900E+00
      9.488  0.0000E+00  0.1900E+00
      9.581  0.0000E+00  0.1900E+00
      9.673  0.0000E+00  0.1900E+00
      9.766  0.0000E+00  0.1900E+00
      9.858  0.0000E+00  0.1900E+00
      9.951  0.0000E+00  0.1900E+00
     10.044  0.0000E+00  0.1900E+00
     10.136  0.0000E+00  0.1900E+00
