  12  12   0   0
  0.1020254E+02  0.4770584E-09  0.6328126E-09  0.4055487E-09  0.5000000E-15
  1.000000000000000E-004
  CAR 
 ethylene                                
     10.13640351    -17.65451385  301     -3.06428224      1.00000000
    -17.655  0.0000E+00  0.0000E+00
    -17.562  0.0000E+00  0.0000E+00
    -17.469  0.0000E+00  0.0000E+00
    -17.377  0.0000E+00  0.0000E+00
    -17.284  0.0000E+00  0.0000E+00
    -17.191  0.0000E+00  0.0000E+00
    -17.099  0.0000E+00  0.0000E+00
    -17.006  0.0000E+00  0.0000E+00
    -16.913  0.0000E+00  0.0000E+00
    -16.821  0.0000E+00  0.0000E+00
    -16.728  0.0000E+00  0.0000E+00
    -16.636  0.0000E+00  0.0000E+00
    -16.543  0.0000E+00  0.0000E+00
    -16.450  0.0000E+00  0.0000E+00
    -16.358  0.0000E+00  0.0000E+00
    -16.265  0.0000E+00  0.0000E+00
    -16.172  0.0000E+00  0.0000E+00
    -16.080  0.0000E+00  0.0000E+00
    -15.987  0.0000E+00  0.0000E+00
    -15.894  0.0000E+00  0.0000E+00
    -15.802  0.0000E+00  0.0000E+00
    -15.709  0.0000E+00  0.0000E+00
    -15.617  0.9904E-02  0.1930E-03
    -15.524  0.2751E-01  0.1863E-02
    -15.431  0.8079E-01  0.6113E-02
    -15.339  0.1758E+00  0.1717E-01
    -15.246  0.0000E+00  0.2000E-01
    -15.153  0.0000E+00  0.2000E-01
    -15.061  0.0000E+00  0.2000E-01
    -14.968  0.0000E+00  0.2000E-01
    -14.875  0.0000E+00  0.2000E-01
    -14.783  0.0000E+00  0.2000E-01
    -14.690  0.0000E+00  0.2000E-01
    -14.598  0.0000E+00  0.2000E-01
    -14.505  0.0000E+00  0.2000E-01
    -14.412  0.0000E+00  0.2000E-01
    -14.320  0.0000E+00  0.2000E-01
    -14.227  0.0000E+00  0.2000E-01
    -14.134  0.0000E+00  0.2000E-01
    -14.042  0.0000E+00  0.2000E-01
    -13.949  0.0000E+00  0.2000E-01
    -13.856  0.0000E+00  0.2000E-01
    -13.764  0.0000E+00  0.2000E-01
    -13.671  0.0000E+00  0.2000E-01
    -13.579  0.0000E+00  0.2000E-01
    -13.486  0.0000E+00  0.2000E-01
    -13.393  0.0000E+00  0.2000E-01
    -13.301  0.0000E+00  0.2000E-01
    -13.208  0.0000E+00  0.2000E-01
    -13.115  0.0000E+00  0.2000E-01
    -13.023  0.0000E+00  0.2000E-01
    -12.930  0.0000E+00  0.2000E-01
    -12.837  0.0000E+00  0.2000E-01
    -12.745  0.0000E+00  0.2000E-01
    -12.652  0.0000E+00  0.2000E-01
    -12.560  0.0000E+00  0.2000E-01
    -12.467  0.0000E+00  0.2000E-01
    -12.374  0.0000E+00  0.2000E-01
    -12.282  0.0000E+00  0.2000E-01
    -12.189  0.0000E+00  0.2000E-01
    -12.096  0.0000E+00  0.2000E-01
    -12.004  0.0000E+00  0.2000E-01
    -11.911  0.0000E+00  0.2000E-01
    -11.818  0.0000E+00  0.2000E-01
    -11.726  0.0000E+00  0.2000E-01
    -11.633  0.0000E+00  0.2000E-01
    -11.541  0.0000E+00  0.2000E-01
    -11.448  0.0000E+00  0.2000E-01
    -11.355  0.0000E+00  0.2000E-01
    -11.263  0.0000E+00  0.2000E-01
    -11.170  0.0000E+00  0.2000E-01
    -11.077  0.0000E+00  0.2000E-01
    -10.985  0.3832E-01  0.2096E-01
    -10.892  0.5446E-01  0.2567E-01
    -10.799  0.7193E-01  0.3133E-01
    -10.707  0.5739E-01  0.3846E-01
    -10.614  0.0000E+00  0.4000E-01
    -10.522  0.0000E+00  0.4000E-01
    -10.429  0.0000E+00  0.4000E-01
    -10.336  0.0000E+00  0.4000E-01
    -10.244  0.0000E+00  0.4000E-01
    -10.151  0.0000E+00  0.4000E-01
    -10.058  0.0000E+00  0.4000E-01
     -9.966  0.0000E+00  0.4000E-01
     -9.873  0.0000E+00  0.4000E-01
     -9.780  0.0000E+00  0.4000E-01
     -9.688  0.0000E+00  0.4000E-01
     -9.595  0.0000E+00  0.4000E-01
     -9.503  0.0000E+00  0.4000E-01
     -9.410  0.0000E+00  0.4000E-01
     -9.317  0.0000E+00  0.4000E-01
     -9.225  0.0000E+00  0.4000E-01
     -9.132  0.0000E+00  0.4000E-01
     -9.039  0.0000E+00  0.4000E-01
     -8.947  0.0000E+00  0.4000E-01
     -8.854  0.0000E+00  0.4000E-01
     -8.761  0.0000E+00  0.4000E-01
     -8.669  0.0000E+00  0.4000E-01
     -8.576  0.0000E+00  0.4000E-01
     -8.484  0.0000E+00  0.4000E-01
     -8.391  0.0000E+00  0.4000E-01
     -8.298  0.3109E-01  0.4083E-01
     -8.206  0.4366E-01  0.4468E-01
     -8.113  0.3131E-01  0.4813E-01
     -8.020  0.2956E-01  0.5092E-01
     -7.928  0.3353E-01  0.5369E-01
     -7.835  0.3866E-01  0.5763E-01
     -7.742  0.0000E+00  0.6000E-01
     -7.650  0.0000E+00  0.6000E-01
     -7.557  0.0000E+00  0.6000E-01
     -7.465  0.0000E+00  0.6000E-01
     -7.372  0.0000E+00  0.6000E-01
     -7.279  0.0000E+00  0.6000E-01
     -7.187  0.0000E+00  0.6000E-01
     -7.094  0.4535E-02  0.6013E-01
     -7.001  0.1072E-01  0.6082E-01
     -6.909  0.2085E-01  0.6223E-01
     -6.816  0.5045E-01  0.6520E-01
     -6.723  0.7442E-01  0.7284E-01
     -6.631  0.3240E-01  0.7719E-01
     -6.538  0.1815E-01  0.7953E-01
     -6.446  0.0000E+00  0.8000E-01
     -6.353  0.0000E+00  0.8000E-01
     -6.260  0.0000E+00  0.8000E-01
     -6.168  0.0000E+00  0.8000E-01
     -6.075  0.0000E+00  0.8000E-01
     -5.982  0.0000E+00  0.8000E-01
     -5.890  0.0000E+00  0.8000E-01
     -5.797  0.0000E+00  0.8000E-01
     -5.704  0.0000E+00  0.8000E-01
     -5.612  0.0000E+00  0.8000E-01
     -5.519  0.9070E-02  0.8055E-01
     -5.427  0.1230E-01  0.8153E-01
     -5.334  0.1630E-01  0.8284E-01
     -5.241  0.2320E-01  0.8463E-01
     -5.149  0.4169E-01  0.8749E-01
     -5.056  0.4743E-01  0.9214E-01
     -4.963  0.3672E-01  0.9583E-01
     -4.871  0.1713E-01  0.9811E-01
     -4.778  0.9466E-02  0.9930E-01
     -4.685  0.3705E-02  0.9992E-01
     -4.593  0.0000E+00  0.1000E+00
     -4.500  0.0000E+00  0.1000E+00
     -4.408  0.0000E+00  0.1000E+00
     -4.315  0.0000E+00  0.1000E+00
     -4.222  0.0000E+00  0.1000E+00
     -4.130  0.0000E+00  0.1000E+00
     -4.037  0.0000E+00  0.1000E+00
     -3.944  0.0000E+00  0.1000E+00
     -3.852  0.0000E+00  0.1000E+00
     -3.759  0.3297E-02  0.1001E+00
     -3.666  0.8139E-02  0.1006E+00
     -3.574  0.1574E-01  0.1017E+00
     -3.481  0.3640E-01  0.1039E+00
     -3.389  0.7669E-01  0.1096E+00
     -3.296  0.3827E-01  0.1159E+00
     -3.203  0.2030E-01  0.1184E+00
     -3.111  0.7454E-02  0.1199E+00
     -3.018  0.0000E+00  0.1200E+00
     -2.925  0.0000E+00  0.1200E+00
     -2.833  0.0000E+00  0.1200E+00
     -2.740  0.0000E+00  0.1200E+00
     -2.647  0.0000E+00  0.1200E+00
     -2.555  0.0000E+00  0.1200E+00
     -2.462  0.0000E+00  0.1200E+00
     -2.370  0.0000E+00  0.1200E+00
     -2.277  0.0000E+00  0.1200E+00
     -2.184  0.0000E+00  0.1200E+00
     -2.092  0.0000E+00  0.1200E+00
     -1.999  0.0000E+00  0.1200E+00
     -1.906  0.0000E+00  0.1200E+00
     -1.814  0.0000E+00  0.1200E+00
     -1.721  0.0000E+00  0.1200E+00
     -1.628  0.0000E+00  0.1200E+00
     -1.536  0.0000E+00  0.1200E+00
     -1.443  0.0000E+00  0.1200E+00
     -1.351  0.0000E+00  0.1200E+00
     -1.258  0.0000E+00  0.1200E+00
     -1.165  0.0000E+00  0.1200E+00
     -1.073  0.0000E+00  0.1200E+00
     -0.980  0.0000E+00  0.1200E+00
     -0.887  0.0000E+00  0.1200E+00
     -0.795  0.0000E+00  0.1200E+00
     -0.702  0.0000E+00  0.1200E+00
     -0.609  0.0000E+00  0.1200E+00
     -0.517  0.0000E+00  0.1200E+00
     -0.424  0.0000E+00  0.1200E+00
     -0.332  0.0000E+00  0.1200E+00
     -0.239  0.0000E+00  0.1200E+00
     -0.146  0.0000E+00  0.1200E+00
     -0.054  0.0000E+00  0.1200E+00
      0.039  0.0000E+00  0.1200E+00
      0.132  0.0000E+00  0.1200E+00
      0.224  0.0000E+00  0.1200E+00
      0.317  0.0000E+00  0.1200E+00
      0.410  0.0000E+00  0.1200E+00
      0.502  0.0000E+00  0.1200E+00
      0.595  0.0000E+00  0.1200E+00
      0.687  0.0000E+00  0.1200E+00
      0.780  0.0000E+00  0.1200E+00
      0.873  0.0000E+00  0.1200E+00
      0.965  0.0000E+00  0.1200E+00
      1.058  0.0000E+00  0.1200E+00
      1.151  0.0000E+00  0.1200E+00
      1.243  0.0000E+00  0.1200E+00
      1.336  0.8717E-03  0.1200E+00
      1.429  0.3800E-02  0.1203E+00
      1.521  0.5258E-02  0.1207E+00
      1.614  0.6573E-02  0.1212E+00
      1.706  0.7812E-02  0.1219E+00
      1.799  0.9380E-02  0.1227E+00
      1.892  0.1140E-01  0.1237E+00
      1.984  0.1460E-01  0.1249E+00
      2.077  0.1523E-01  0.1262E+00
      2.170  0.1594E-01  0.1277E+00
      2.262  0.1743E-01  0.1292E+00
      2.355  0.1962E-01  0.1309E+00
      2.448  0.2451E-01  0.1330E+00
      2.540  0.2426E-01  0.1352E+00
      2.633  0.2124E-01  0.1374E+00
      2.725  0.1171E-01  0.1392E+00
      2.818  0.4285E-02  0.1399E+00
      2.911  0.0000E+00  0.1400E+00
      3.003  0.0000E+00  0.1400E+00
      3.096  0.0000E+00  0.1400E+00
      3.189  0.0000E+00  0.1400E+00
      3.281  0.0000E+00  0.1400E+00
      3.374  0.0000E+00  0.1400E+00
      3.467  0.3749E-03  0.1400E+00
      3.559  0.4678E-02  0.1404E+00
      3.652  0.5092E-02  0.1408E+00
      3.744  0.5597E-02  0.1413E+00
      3.837  0.6189E-02  0.1419E+00
      3.930  0.6740E-02  0.1425E+00
      4.022  0.7503E-02  0.1431E+00
      4.115  0.8450E-02  0.1439E+00
      4.208  0.9265E-02  0.1447E+00
      4.300  0.1020E-01  0.1456E+00
      4.393  0.1190E-01  0.1466E+00
      4.486  0.1427E-01  0.1478E+00
      4.578  0.1775E-01  0.1493E+00
      4.671  0.2265E-01  0.1512E+00
      4.763  0.2587E-01  0.1535E+00
      4.856  0.2143E-01  0.1556E+00
      4.949  0.1450E-01  0.1572E+00
      5.041  0.1167E-01  0.1584E+00
      5.134  0.9298E-02  0.1594E+00
      5.227  0.1139E-01  0.1603E+00
      5.319  0.1122E-01  0.1614E+00
      5.412  0.1246E-01  0.1624E+00
      5.505  0.1407E-01  0.1636E+00
      5.597  0.1672E-01  0.1652E+00
      5.690  0.1633E-01  0.1667E+00
      5.782  0.1735E-01  0.1682E+00
      5.875  0.1753E-01  0.1698E+00
      5.968  0.2037E-01  0.1716E+00
      6.060  0.2077E-01  0.1735E+00
      6.153  0.1593E-01  0.1753E+00
      6.246  0.1399E-01  0.1767E+00
      6.338  0.1194E-01  0.1779E+00
      6.431  0.1245E-01  0.1790E+00
      6.524  0.9894E-02  0.1801E+00
      6.616  0.1085E-01  0.1810E+00
      6.709  0.1298E-01  0.1821E+00
      6.801  0.1262E-01  0.1833E+00
      6.894  0.1223E-01  0.1845E+00
      6.987  0.9312E-02  0.1854E+00
      7.079  0.9302E-02  0.1863E+00
      7.172  0.1031E-01  0.1872E+00
      7.265  0.7743E-02  0.1880E+00
      7.357  0.6795E-02  0.1887E+00
      7.450  0.4151E-02  0.1892E+00
      7.543  0.2202E-02  0.1895E+00
      7.635  0.1473E-02  0.1897E+00
      7.728  0.1148E-02  0.1898E+00
      7.820  0.7483E-03  0.1899E+00
      7.913  0.4631E-03  0.1900E+00
      8.006  0.2311E-03  0.1900E+00
      8.098  0.2677E-04  0.1900E+00
      8.191  0.0000E+00  0.1900E+00
      8.284  0.0000E+00  0.1900E+00
      8.376  0.0000E+00  0.1900E+00
      8.469  0.0000E+00  0.1900E+00
      8.562  0.0000E+00  0.1900E+00
      8.654  0.0000E+00  0.1900E+00
      8.747  0.0000E+00  0.1900E+00
      8.839  0.0000E+00  0.1900E+00
      8.932  0.0000E+00  0.1900E+00
      9.025  0.0000E+00  0.1900E+00
      9.117  0.0000E+00  0.1900E+00
      9.210  0.0000E+00  0.1900E+00
      9.303  0.0000E+00  0.1900E+00
      9.395  0.0000E+00  0.1900E+00
      9.488  0.0000E+00  0.1900E+00
      9.581  0.0000E+00  0.1900E+00
      9.673  0.0000E+00  0.1900E+00
      9.766  0.0000E+00  0.1900E+00
      9.858  0.0000E+00  0.1900E+00
      9.951  0.0000E+00  0.1900E+00
     10.044  0.0000E+00  0.1900E+00
     10.136  0.0000E+00  0.1900E+00
