   12   12  200    1
  0.1020254E+02  0.4770584E-09  0.6328126E-09  0.4055487E-09  0.5000000E-15
  1.000000000000000E-004
  CAR 
 ethylene                                
     24    350     19
 
  0.0000000E+00  0.0000000E+00  0.0000000E+00  0.8680556E-03
    1      -15.654514
    2      -15.337473
    3      -10.781521
    4      -10.780116
    5       -7.841149
    6       -7.766870
    7       -7.149507
    8       -6.764184
    9       -5.111640
   10       -4.637987
   11       -3.419819
   12       -3.124942
   13        1.314052
   14        2.716986
   15        3.466635
   16        4.703943
   17        6.022851
   18        7.070663
   19        7.194264
 
  0.8333333E-01  0.0000000E+00  0.0000000E+00  0.1736111E-02
    1      -15.645941
    2      -15.338963
    3      -10.797684
    4      -10.793033
    5       -7.846865
    6       -7.765197
    7       -7.122476
    8       -6.752070
    9       -5.115526
   10       -4.655447
   11       -3.416077
   12       -3.138559
   13        1.368433
   14        2.738652
   15        3.469395
   16        4.718486
   17        6.050996
   18        6.757894
   19        7.092614
 
  0.1666667E+00  0.0000000E+00  0.0000000E+00  0.1736111E-02
    1      -15.621253
    2      -15.344202
    3      -10.840805
    4      -10.828774
    5       -7.856848
    6       -7.761504
    7       -7.051636
    8       -6.721921
    9       -5.123556
   10       -4.704515
   11       -3.406546
   12       -3.175300
   13        1.523916
   14        2.790785
   15        3.491378
   16        4.760888
   17        6.126986
   18        6.206085
   19        6.811675
 
  0.2500000E+00  0.0000000E+00  0.0000000E+00  0.1736111E-02
    1      -15.583473
    2      -15.355178
    3      -10.897105
    4      -10.878881
    5       -7.858838
    6       -7.759319
    7       -6.958347
    8       -6.688936
    9       -5.126396
   10       -4.776580
   11       -3.394685
   12       -3.224876
   13        1.758836
   14        2.835854
   15        3.567277
   16        4.824856
   17        5.665530
   18        6.206476
   19        6.456258
 
  0.3333333E+00  0.0000000E+00  0.0000000E+00  0.1736111E-02
    1      -15.537263
    2      -15.374320
    3      -10.949772
    4      -10.931213
    5       -7.847194
    6       -7.763138
    7       -6.862280
    8       -6.670232
    9       -5.113437
   10       -4.860485
   11       -3.382530
   12       -3.275490
   13        2.040109
   14        2.828907
   15        3.726344
   16        4.863049
   17        5.231698
   18        5.967370
   19        6.422415
 
  0.4166667E+00  0.0000000E+00  0.0000000E+00  0.1736111E-02
    1      -15.488265
    2      -15.403333
    3      -10.984346
    4      -10.972667
    5       -7.824539
    6       -7.776213
    7       -6.777657
    8       -6.677394
    9       -5.078066
   10       -4.945011
   11       -3.368649
   12       -3.318079
   13        2.326093
   14        2.743733
   15        3.966722
   16        4.622500
   17        5.177516
   18        5.622897
   19        6.544788
 
  0.5000000E+00  0.0000000E+00  0.0000000E+00  0.8680556E-03
    1      -15.442127
    2      -15.442127
    3      -10.992337
    4      -10.992337
    5       -7.798260
    6       -7.798260
    7       -6.714006
    8       -6.714005
    9       -5.020206
   10       -5.020205
   11       -3.348676
   12       -3.348676
   13        2.572183
   14        2.572184
   15        4.272288
   16        4.272288
   17        5.353089
   18        5.353090
   19        6.662342
 
  0.0000000E+00  0.8333333E-01  0.0000000E+00  0.1736111E-02
    1      -15.649446
    2      -15.343247
    3      -10.780650
    4      -10.779214
    5       -7.843541
    6       -7.772786
    7       -7.140012
    8       -6.768702
    9       -5.104067
   10       -4.646657
   11       -3.411812
   12       -3.126263
   13        1.334000
   14        2.692265
   15        3.471163
   16        4.680508
   17        6.017674
   18        7.078821
   19        7.194655
 
  0.8333333E-01  0.8333333E-01  0.0000000E+00  0.3472222E-02
    1      -15.641012
    2      -15.344527
    3      -10.798432
    4      -10.790962
    5       -7.849355
    6       -7.769387
    7       -7.114057
    8       -6.756661
    9       -5.107831
   10       -4.663238
   11       -3.409685
   12       -3.139916
   13        1.387766
   14        2.715129
   15        3.473657
   16        4.696550
   17        6.044905
   18        6.762588
   19        7.101368
 
  0.1666667E+00  0.8333333E-01  0.0000000E+00  0.3472222E-02
    1      -15.616733
    2      -15.349138
    3      -10.842427
    4      -10.827017
    5       -7.858467
    6       -7.762795
    7       -7.045487
    8       -6.726549
    9       -5.115626
   10       -4.709995
   11       -3.404362
   12       -3.176852
   13        1.541539
   14        2.771484
   15        3.494383
   16        4.742552
   17        6.121841
   18        6.215188
   19        6.799723
 
  0.2500000E+00  0.8333333E-01  0.0000000E+00  0.3472222E-02
    1      -15.579646
    2      -15.359119
    3      -10.899182
    4      -10.878228
    5       -7.858607
    6       -7.758403
    7       -6.954452
    8       -6.693307
    9       -5.118399
   10       -4.779067
   11       -3.397788
   12       -3.227066
   13        1.773973
   14        2.824391
   15        3.567492
   16        4.812048
   17        5.673656
   18        6.228942
   19        6.404370
 
  0.3333333E+00  0.8333333E-01  0.0000000E+00  0.3472222E-02
    1      -15.534398
    2      -15.376983
    3      -10.952115
    4      -10.931780
    5       -7.845143
    6       -7.760751
    7       -6.860204
    8       -6.673825
    9       -5.105822
   10       -4.859979
   11       -3.390038
   12       -3.279144
   13        2.052360
   14        2.826169
   15        3.724763
   16        4.869059
   17        5.221239
   18        5.971798
   19        6.393209
 
  0.4166667E+00  0.8333333E-01  0.0000000E+00  0.3472222E-02
    1      -15.486609
    2      -15.404551
    3      -10.986751
    4      -10.974227
    5       -7.821315
    6       -7.772929
    7       -6.777113
    8       -6.679757
    9       -5.071405
   10       -4.941912
   11       -3.378061
   12       -3.324099
   13        2.335405
   14        2.746871
   15        3.968041
   16        4.641661
   17        5.151961
   18        5.614360
   19        6.545018
 
  0.5000000E+00  0.8333333E-01  0.0000000E+00  0.1736111E-02
    1      -15.441863
    2      -15.441863
    3      -10.994510
    4      -10.994510
    5       -7.794665
    6       -7.794664
    7       -6.714941
    8       -6.714940
    9       -5.015067
   10       -5.015066
   11       -3.357185
   12       -3.357185
   13        2.578693
   14        2.578694
   15        4.281246
   16        4.281246
   17        5.336167
   18        5.336168
   19        6.693364
 
  0.0000000E+00  0.1666667E+00  0.0000000E+00  0.1736111E-02
    1      -15.634527
    2      -15.360089
    3      -10.778247
    4      -10.776778
    5       -7.849843
    6       -7.788678
    7       -7.113306
    8       -6.782374
    9       -5.081734
   10       -4.671885
   11       -3.388850
   12       -3.131088
   13        1.393182
   14        2.616863
   15        3.492085
   16        4.605939
   17        6.020473
   18        7.090165
   19        7.206761
 
  0.8333333E-01  0.1666667E+00  0.0000000E+00  0.3472222E-02
    1      -15.626496
    2      -15.360751
    3      -10.798442
    4      -10.787330
    5       -7.855458
    6       -7.781278
    7       -7.089999
    8       -6.770470
    9       -5.085207
   10       -4.686141
   11       -3.390869
   12       -3.144936
   13        1.445185
   14        2.642540
   15        3.494737
   16        4.625570
   17        6.044040
   18        6.773618
   19        7.132024
 
  0.1666667E+00  0.1666667E+00  0.0000000E+00  0.3472222E-02
    1      -15.603447
    2      -15.363553
    3      -10.844729
    4      -10.824345
    5       -7.861553
    6       -7.767745
    7       -7.027400
    8       -6.740367
    9       -5.092429
   10       -4.726678
   11       -3.396524
   12       -3.182744
   13        1.594061
   14        2.708998
   15        3.514516
   16        4.680444
   17        6.112861
   18        6.241403
   19        6.800862
 
  0.2500000E+00  0.1666667E+00  0.0000000E+00  0.3472222E-02
    1      -15.568409
    2      -15.370664
    3      -10.903255
    4      -10.878046
    5       -7.856583
    6       -7.757470
    7       -6.942578
    8       -6.706249
    9       -5.095169
   10       -4.787398
   11       -3.403851
   12       -3.235296
   13        1.819339
   14        2.782199
   15        3.582614
   16        4.763009
   17        5.701146
   18        6.204054
   19        6.402803
 
  0.3333333E+00  0.1666667E+00  0.0000000E+00  0.3472222E-02
    1      -15.526011
    2      -15.384819
    3      -10.957462
    4      -10.934382
    5       -7.838476
    6       -7.755423
    7       -6.853644
    8       -6.684391
    9       -5.083875
   10       -4.859635
   11       -3.407985
   12       -3.291774
   13        2.089262
   14        2.809937
   15        3.734349
   16        4.860462
   17        5.212553
   18        5.932992
   19        6.413497
 
  0.4166667E+00  0.1666667E+00  0.0000000E+00  0.3472222E-02
    1      -15.481789
    2      -15.408174
    3      -10.992792
    4      -10.978999
    5       -7.811929
    6       -7.764582
    7       -6.775226
    8       -6.686655
    9       -5.052432
   10       -4.933834
   11       -3.402086
   12       -3.342636
   13        2.363135
   14        2.751269
   15        3.981621
   16        4.693773
   17        5.079904
   18        5.572120
   19        6.594021
 
  0.5000000E+00  0.1666667E+00  0.0000000E+00  0.1736111E-02
    1      -15.441138
    2      -15.441138
    3      -11.000424
    4      -11.000424
    5       -7.784814
    6       -7.784814
    7       -6.717503
    8       -6.717503
    9       -5.000732
   10       -5.000731
   11       -3.380656
   12       -3.380656
   13        2.596387
   14        2.596388
   15        4.310223
   16        4.310223
   17        5.282391
   18        5.282391
   19        6.786441
 
  0.0000000E+00  0.2500000E+00  0.0000000E+00  0.1736111E-02
    1      -15.610602
    2      -15.386629
    3      -10.774900
    4      -10.773501
    5       -7.857754
    6       -7.810038
    7       -7.073660
    8       -6.805376
    9       -5.045837
   10       -4.711481
   11       -3.353883
   12       -3.141483
   13        1.489617
   14        2.492425
   15        3.543450
   16        4.476961
   17        6.066306
   18        7.065541
   19        7.244860
 
  0.8333333E-01  0.2500000E+00  0.0000000E+00  0.3472222E-02
    1      -15.603238
    2      -15.386341
    3      -10.796629
    4      -10.784204
    5       -7.861954
    6       -7.798829
    7       -7.053524
    8       -6.793535
    9       -5.049018
   10       -4.722733
   11       -3.361060
   12       -3.155866
   13        1.538910
   14        2.521232
   15        3.548153
   16        4.499987
   17        6.082666
   18        6.779489
   19        7.182113
 
  0.1666667E+00  0.2500000E+00  0.0000000E+00  0.3472222E-02
    1      -15.582195
    2      -15.386347
    3      -10.845274
    4      -10.823332
    5       -7.862472
    6       -7.778059
    7       -6.998564
    8       -6.763126
    9       -5.055784
   10       -4.754941
   11       -3.380538
   12       -3.195677
   13        1.680241
   14        2.599113
   15        3.571911
   16        4.563888
   17        6.120921
   18        6.279573
   19        6.847210
 
  0.2500000E+00  0.2500000E+00  0.0000000E+00  0.3472222E-02
    1      -15.550490
    2      -15.389002
    3      -10.906347
    4      -10.880293
    5       -7.850309
    6       -7.760149
    7       -6.922546
    8       -6.727231
    9       -5.059000
   10       -4.803736
   11       -3.405880
   12       -3.252392
   13        1.894419
   14        2.697318
   15        3.639674
   16        4.659929
   17        5.747822
   18        6.104246
   19        6.543827
 
  0.3333333E+00  0.2500000E+00  0.0000000E+00  0.3472222E-02
    1      -15.512713
    2      -15.397374
    3      -10.962915
    4      -10.939781
    5       -7.826587
    6       -7.751220
    7       -6.841932
    8       -6.701341
    9       -5.050260
   10       -4.862681
   11       -3.426644
   12       -3.315072
   13        2.150684
   14        2.764145
   15        3.784045
   16        4.786160
   17        5.244305
   18        5.826380
   19        6.558749
 
  0.4166667E+00  0.2500000E+00  0.0000000E+00  0.3472222E-02
    1      -15.474236
    2      -15.414083
    3      -11.000031
    4      -10.986456
    5       -7.797561
    6       -7.754766
    7       -6.771260
    8       -6.697475
    9       -5.024060
   10       -4.924208
   11       -3.431519
   12       -3.372231
   13        2.408200
   14        2.745311
   15        4.027441
   16        4.768791
   17        4.966231
   18        5.482360
   19        6.729266
 
  0.5000000E+00  0.2500000E+00  0.0000000E+00  0.1736111E-02
    1      -15.440147
    2      -15.440146
    3      -11.008461
    4      -11.008461
    5       -7.771340
    6       -7.771340
    7       -6.721085
    8       -6.721084
    9       -4.980428
   10       -4.980427
   11       -3.413337
   12       -3.413337
   13        2.620300
   14        2.620300
   15        4.363936
   16        4.363936
   17        5.188500
   18        5.188501
   19        6.937636
 
  0.0000000E+00  0.3333333E+00  0.0000000E+00  0.1736111E-02
    1      -15.579074
    2      -15.420774
    3      -10.771446
    4      -10.770312
    5       -7.864187
    6       -7.831831
    7       -7.026027
    8       -6.837502
    9       -4.998482
   10       -4.762236
   11       -3.311279
   12       -3.159747
   13        1.619755
   14        2.329724
   15        3.633957
   16        4.305219
   17        6.174769
   18        6.958861
   19        7.312792
 
  0.8333333E-01  0.3333333E+00  0.0000000E+00  0.3472222E-02
    1      -15.572614
    2      -15.419302
    3      -10.793279
    4      -10.782624
    5       -7.865276
    6       -7.818990
    7       -7.008776
    8       -6.825511
    9       -5.001578
   10       -4.770582
   11       -3.323052
   12       -3.174989
   13        1.665684
   14        2.361552
   15        3.642739
   16        4.329397
   17        6.179823
   18        6.752848
   19        7.237672
 
  0.1666667E+00  0.3333333E+00  0.0000000E+00  0.3472222E-02
    1      -15.554277
    2      -15.415812
    3      -10.843348
    4      -10.824830
    5       -7.858261
    6       -7.793737
    7       -6.961255
    8       -6.794107
    9       -5.008558
   10       -4.794351
   11       -3.355125
   12       -3.217576
   13        1.797581
   14        2.450289
   15        3.676019
   16        4.397355
   17        6.162877
   18        6.313961
   19        6.935052
 
  0.2500000E+00  0.3333333E+00  0.0000000E+00  0.3472222E-02
    1      -15.527067
    2      -15.412855
    3      -10.906801
    4      -10.885217
    5       -7.838500
    6       -7.768912
    7       -6.894924
    8       -6.755234
    9       -5.013434
   10       -4.830119
   11       -3.397890
   12       -3.279009
   13        1.997541
   14        2.572580
   15        3.750834
   16        4.501292
   17        5.804416
   18        6.026004
   19        6.744459
 
  0.3333333E+00  0.3333333E+00  0.0000000E+00  0.3472222E-02
    1      -15.495473
    2      -15.413870
    3      -10.966199
    4      -10.947328
    5       -7.810127
    6       -7.751920
    7       -6.824642
    8       -6.723531
    9       -5.009121
   10       -4.873118
   11       -3.436742
   12       -3.347073
   13        2.235182
   14        2.682477
   15        3.890639
   16        4.639368
   17        5.313589
   18        5.706287
   19        6.784857
 
  0.4166667E+00  0.3333333E+00  0.0000000E+00  0.3472222E-02
    1      -15.464621
    2      -15.422054
    3      -11.006043
    4      -10.995074
    5       -7.780613
    6       -7.747611
    7       -6.764442
    8       -6.711206
    9       -4.990999
   10       -4.918034
   11       -3.456373
   12       -3.407536
   13        2.467670
   14        2.719086
   15        4.120079
   16        4.804719
   17        4.869442
   18        5.360458
   19        6.936827
 
  0.5000000E+00  0.3333333E+00  0.0000000E+00  0.1736111E-02
    1      -15.439159
    2      -15.439159
    3      -11.016455
    4      -11.016455
    5       -7.757850
    6       -7.757850
    7       -6.724792
    8       -6.724792
    9       -4.959234
   10       -4.959234
   11       -3.446820
   12       -3.446820
   13        2.643828
   14        2.643828
   15        4.445594
   16        4.445594
   17        5.060677
   18        5.060678
   19        7.130081
 
  0.0000000E+00  0.4166667E+00  0.0000000E+00  0.1736111E-02
    1      -15.541837
    2      -15.459922
    3      -10.768765
    4      -10.768126
    5       -7.866195
    6       -7.849911
    7       -6.975015
    8       -6.877824
    9       -4.942626
   10       -4.820407
   11       -3.266159
   12       -3.187209
   13        1.778166
   14        2.145589
   15        3.764078
   16        4.114332
   17        6.342395
   18        6.771559
   19        7.408318
 
  0.8333333E-01  0.4166667E+00  0.0000000E+00  0.3472222E-02
    1      -15.536481
    2      -15.457141
    3      -10.789215
    4      -10.783084
    5       -7.862840
    6       -7.838296
    7       -6.959988
    8       -6.865322
    9       -4.946062
   10       -4.826398
   11       -3.280982
   12       -3.203254
   13        1.820399
   14        2.180611
   15        3.777980
   16        4.136929
   17        6.328731
   18        6.659402
   19        7.291843
 
  0.1666667E+00  0.4166667E+00  0.0000000E+00  0.3472222E-02
    1      -15.521445
    2      -15.449781
    3      -10.839238
    4      -10.828658
    5       -7.847780
    6       -7.812740
    7       -6.918676
    8       -6.831933
    9       -4.954480
   10       -4.843059
   11       -3.321761
   12       -3.248107
   13        1.941735
   14        2.280041
   15        3.823476
   16        4.202248
   17        6.229116
   18        6.322335
   19        7.056603
 
  0.2500000E+00  0.4166667E+00  0.0000000E+00  0.3472222E-02
    1      -15.499684
    2      -15.440556
    3      -10.904099
    4      -10.891875
    5       -7.821781
    6       -7.783733
    7       -6.861482
    8       -6.788605
    9       -4.962963
   10       -4.866997
   11       -3.377705
   12       -3.312471
   13        2.125046
   14        2.424395
   15        3.909573
   16        4.306154
   17        5.862215
   18        5.969252
   19        6.981604
 
  0.3333333E+00  0.4166667E+00  0.0000000E+00  0.3472222E-02
    1      -15.475526
    2      -15.433267
    3      -10.966023
    4      -10.955414
    5       -7.791310
    6       -7.759428
    7       -6.802248
    8       -6.749270
    9       -4.965739
   10       -4.893996
   11       -3.432472
   12       -3.382197
   13        2.338971
   14        2.574402
   15        4.049180
   16        4.447960
   17        5.400005
   18        5.595827
   19        7.051366
 
  0.4166667E+00  0.4166667E+00  0.0000000E+00  0.3472222E-02
    1      -15.453758
    2      -15.431708
    3      -11.008957
    4      -11.002818
    5       -7.764349
    6       -7.746269
    7       -6.754344
    8       -6.726374
    9       -4.959108
   10       -4.920363
   11       -3.468234
   12       -3.440448
   13        2.536398
   14        2.671018
   15        4.260167
   16        4.626122
   17        4.973882
   18        5.227345
   19        7.178004
 
  0.5000000E+00  0.4166667E+00  0.0000000E+00  0.1736111E-02
    1      -15.438432
    2      -15.438432
    3      -11.022274
    4      -11.022273
    5       -7.747962
    6       -7.747962
    7       -6.727561
    8       -6.727561
    9       -4.943094
   10       -4.943094
   11       -3.471878
   12       -3.471878
   13        2.660789
   14        2.660789
   15        4.549296
   16        4.549296
   17        4.920148
   18        4.920149
   19        7.319387
 
  0.0000000E+00  0.5000000E+00  0.0000000E+00  0.8680556E-03
    1      -15.501229
    2      -15.501229
    3      -10.767555
    4      -10.767555
    5       -7.861675
    6       -7.861675
    7       -6.924540
    8       -6.924539
    9       -4.881925
   10       -4.881925
   11       -3.223478
   12       -3.223478
   13        1.957026
   14        1.957026
   15        3.928011
   16        3.928012
   17        6.551183
   18        6.551183
   19        7.526454
 
  0.8333333E-01  0.5000000E+00  0.0000000E+00  0.1736111E-02
    1      -15.497119
    2      -15.497119
    3      -10.785487
    4      -10.785487
    5       -7.853616
    6       -7.853616
    7       -6.911042
    8       -6.911041
    9       -4.886279
   10       -4.886278
   11       -3.239589
   12       -3.239589
   13        1.995551
   14        1.995551
   15        3.946883
   16        3.946883
   17        6.502969
   18        6.502969
   19        7.348812
 
  0.1666667E+00  0.5000000E+00  0.0000000E+00  0.1736111E-02
    1      -15.485823
    2      -15.485822
    3      -10.833901
    4      -10.833901
    5       -7.831836
    6       -7.831836
    7       -6.874438
    8       -6.874437
    9       -4.897829
   10       -4.897828
   11       -3.284393
   12       -3.284393
   13        2.105888
   14        2.105889
   15        4.003974
   16        4.003974
   17        6.291263
   18        6.291263
   19        7.202465
 
  0.2500000E+00  0.5000000E+00  0.0000000E+00  0.1736111E-02
    1      -15.470179
    2      -15.470179
    3      -10.898714
    4      -10.898714
    5       -7.802440
    6       -7.802440
    7       -6.824994
    8       -6.824993
    9       -4.912542
   10       -4.912542
   11       -3.347481
   12       -3.347481
   13        2.270582
   14        2.270582
   15        4.101020
   16        4.101020
   17        5.917284
   18        5.917285
   19        7.225812
 
  0.3333333E+00  0.5000000E+00  0.0000000E+00  0.1736111E-02
    1      -15.454298
    2      -15.454298
    3      -10.962165
    4      -10.962165
    5       -7.773329
    6       -7.773329
    7       -6.776356
    8       -6.776355
    9       -4.925755
   10       -4.925755
   11       -3.412985
   12       -3.412985
   13        2.455367
   14        2.455367
   15        4.242385
   16        4.242385
   17        5.494571
   18        5.494571
   19        7.311416
 
  0.4166667E+00  0.5000000E+00  0.0000000E+00  0.1736111E-02
    1      -15.442510
    2      -15.442510
    3      -11.007832
    4      -11.007832
    5       -7.752088
    6       -7.752087
    7       -6.741282
    8       -6.741281
    9       -4.934233
   10       -4.934233
   11       -3.462611
   12       -3.462611
   13        2.607111
   14        2.607111
   15        4.435544
   16        4.435544
   17        5.095929
   18        5.095929
   19        7.382951
 
  0.5000000E+00  0.5000000E+00  0.0000000E+00  0.8680556E-03
    1      -15.438163
    2      -15.438163
    3      -11.024394
    4      -11.024394
    5       -7.744324
    6       -7.744324
    7       -6.728578
    8       -6.728578
    9       -4.937035
   10       -4.937035
   11       -3.481166
   12       -3.481165
   13        2.666944
   14        2.666944
   15        4.620962
   16        4.620962
   17        4.834476
   18        4.834476
   19        7.408915
 
  0.0000000E+00  0.0000000E+00  0.1250000E+00  0.1736111E-02
    1      -15.626111
    2      -15.330996
    3      -10.765709
    4      -10.762610
    5       -7.942211
    6       -7.856761
    7       -7.079208
    8       -6.753837
    9       -5.135614
   10       -4.697697
   11       -3.440250
   12       -3.133808
   13        1.329157
   14        2.664812
   15        3.562638
   16        4.822366
   17        5.927701
   18        6.792486
   19        7.070752
 
  0.8333333E-01  0.0000000E+00  0.1250000E+00  0.1736111E-02
    1      -15.616783
    2      -15.332775
    3      -10.786638
    4      -10.775071
    5       -7.969605
    6       -7.863073
    7       -7.004961
    8       -6.750032
    9       -5.082392
   10       -4.724786
   11       -3.432942
   12       -3.204719
   13        1.357196
   14        2.687427
   15        3.491162
   16        4.771846
   17        5.976716
   18        6.556365
   19        7.300198
 
  0.1666667E+00  0.0000000E+00  0.1250000E+00  0.1736111E-02
    1      -15.592154
    2      -15.337709
    3      -10.832103
    4      -10.810741
    5       -7.981920
    6       -7.862634
    7       -6.910407
    8       -6.730247
    9       -5.043953
   10       -4.787333
   11       -3.418486
   12       -3.292396
   13        1.481119
   14        2.750054
   15        3.454152
   16        4.773868
   17        6.052075
   18        6.233252
   19        7.153254
 
  0.2500000E+00  0.0000000E+00  0.1250000E+00  0.1736111E-02
    1      -15.555297
    2      -15.347808
    3      -10.889325
    4      -10.859585
    5       -7.973421
    6       -7.857292
    7       -6.813095
    8       -6.710215
    9       -5.019286
   10       -4.878744
   11       -3.396125
   12       -3.378179
   13        1.682853
   14        2.828954
   15        3.471913
   16        4.829351
   17        5.893334
   18        6.130137
   19        6.818276
 
  0.3333333E+00  0.0000000E+00  0.1250000E+00  0.1736111E-02
    1      -15.510861
    2      -15.365488
    3      -10.945521
    4      -10.905566
    5       -7.945713
    6       -7.850652
    7       -6.726677
    8       -6.707177
    9       -5.001414
   10       -4.987043
   11       -3.446040
   12       -3.366223
   13        1.936449
   14        2.873401
   15        3.573826
   16        4.932051
   17        5.530247
   18        6.149762
   19        6.565835
 
  0.4166667E+00  0.0000000E+00  0.1250000E+00  0.1736111E-02
    1      -15.464395
    2      -15.392471
    3      -10.987646
    4      -10.934959
    5       -7.906270
    6       -7.846543
    7       -6.732710
    8       -6.660289
    9       -5.097608
   10       -4.981094
   11       -3.487000
   12       -3.328496
   13        2.208148
   14        2.828003
   15        3.781248
   16        5.033931
   17        5.205633
   18        6.031850
   19        6.414912
 
  0.5000000E+00  0.0000000E+00  0.1250000E+00  0.1736111E-02
    1      -15.428740
    2      -15.421351
    3      -11.005411
    4      -10.939848
    5       -7.865766
    6       -7.847375
    7       -6.788930
    8       -6.618988
    9       -5.195429
   10       -4.950944
   11       -3.500681
   12       -3.282171
   13        2.457377
   14        2.673715
   15        4.083877
   16        4.763046
   17        5.323700
   18        5.843530
   19        6.315827
 
 -0.4166667E+00  0.0000000E+00  0.1250000E+00  0.1736111E-02
    1      -15.472008
    2      -15.385915
    3      -10.993800
    4      -10.919558
    5       -7.853021
    6       -7.834518
    7       -6.869048
    8       -6.604803
    9       -5.266669
   10       -4.907836
   11       -3.493924
   12       -3.228138
   13        2.427702
   14        2.644238
   15        4.436998
   16        4.457044
   17        5.604111
   18        5.667098
   19        6.233521
 
 -0.3333333E+00  0.0000000E+00  0.1250000E+00  0.1736111E-02
    1      -15.517991
    2      -15.360176
    3      -10.954739
    4      -10.880231
    5       -7.861572
    6       -7.818821
    7       -6.960002
    8       -6.617271
    9       -5.300887
   10       -4.853621
   11       -3.477279
   12       -3.171384
   13        2.130871
   14        2.745053
   15        4.154454
   16        4.858885
   17        5.535630
   18        5.952239
   19        6.181517
 
 -0.2500000E+00  0.0000000E+00  0.1250000E+00  0.1736111E-02
    1      -15.561283
    2      -15.343911
    3      -10.897289
    4      -10.832864
    5       -7.872067
    6       -7.818882
    7       -7.044345
    8       -6.651478
    9       -5.294992
   10       -4.794833
   11       -3.460524
   12       -3.121740
   13        1.833092
   14        2.763496
   15        3.933559
   16        5.100212
   17        5.613703
   18        6.014588
   19        6.497496
 
 -0.1666667E+00  0.0000000E+00  0.1250000E+00  0.1736111E-02
    1      -15.596451
    2      -15.335210
    3      -10.836098
    4      -10.790388
    5       -7.887225
    6       -7.829767
    7       -7.101836
    8       -6.695791
    9       -5.255819
   10       -4.741581
   11       -3.449350
   12       -3.092173
   13        1.579758
   14        2.729086
   15        3.773940
   16        5.034814
   17        5.952564
   18        6.027102
   19        6.962344
 
 -0.8333333E-01  0.0000000E+00  0.1250000E+00  0.1736111E-02
    1      -15.619026
    2      -15.331568
    3      -10.787775
    4      -10.764451
    5       -7.911266
    6       -7.844441
    7       -7.115086
    8       -6.734358
    9       -5.197503
   10       -4.705610
   11       -3.443947
   12       -3.094497
   13        1.405067
   14        2.684359
   15        3.656336
   16        4.916913
   17        5.918442
   18        6.494150
   19        7.122663
 
  0.0000000E+00  0.8333333E-01  0.1250000E+00  0.3472222E-02
    1      -15.621353
    2      -15.336319
    3      -10.765787
    4      -10.761342
    5       -7.943718
    6       -7.859910
    7       -7.073213
    8       -6.758241
    9       -5.128280
   10       -4.705012
   11       -3.432978
   12       -3.136015
   13        1.348183
   14        2.640939
   15        3.570744
   16        4.801348
   17        5.911796
   18        6.843711