   32   32    1    1
  0.5760957E+01  0.4934311E-09  0.4934311E-09  0.8743465E-09  0.5000000E-15
  1.000000000000000E-004
  CAR 
 graphite                                
    128    163     84
 
  0.0000000E+00  0.0000000E+00  0.0000000E+00  0.3086420E-02
    1      -12.076222
    2      -10.668962
    3      -10.664575
    4       -8.155545
    5       -6.402331
    6       -6.399688
    7       -6.396586
    8       -5.579845
    9       -5.577213
   10       -5.574830
   11       -5.249998
   12       -5.245253
   13       -5.244229
   14       -5.243002
   15       -5.242302
   16       -5.237622
   17       -4.204691
   18       -4.198405
   19       -4.197496
   20       -4.197065
   21       -4.196847
   22       -4.190611
   23       -2.914208
   24       -2.911854
   25       -2.908479
   26       -2.647009
   27       -2.643586
   28       -2.640347
   29       -2.173161
   30        2.252893
   31        2.255783
   32        2.260455
   33        2.936595
   34        2.939979
   35        2.942521
   36        2.943303
   37        2.943776
   38        2.945058
   39        2.946027
   40        2.951016
   41        3.728695
   42        3.732458
   43        3.736905
   44        3.777683
   45        3.780677
   46        3.782720
   47        6.033036
   48        6.046930
   49        6.356508
   50        6.365594
   51        6.370358
   52        6.378945
   53        6.517475
   54        6.520894
   55        6.523199
   56        6.679234
   57        6.691985
   58        7.668218
   59        7.671895
   60        7.673477
   61        7.673729
   62        7.675274
   63        7.678750
   64        8.528346
   65       11.175210
   66       11.187109
   67       11.187526
   68       11.188040
   69       11.189269
   70       11.200330
   71       13.556194
   72       13.558378
   73       13.560823
   74       14.536679
   75       14.541547
   76       14.546646
   77       14.684389
   78       14.684626
   79       14.685737
   80       16.703871
   81       16.711802
   82       16.712231
   83       16.713386
   84       16.719011
 
  0.1111111E+00 -0.1387779E-16  0.0000000E+00  0.6172840E-02
    1      -11.998821
    2      -10.593516
    3      -10.589136
    4       -8.088041
    5       -7.280306
    6       -6.685305
    7       -6.682354
    8       -6.031938
    9       -6.028097
   10       -5.480742
   11       -5.477816
   12       -5.476055
   13       -5.472969
   14       -5.181795
   15       -5.179161
   16       -4.711720
   17       -3.845872
   18       -3.840853
   19       -3.839610
   20       -3.837523
   21       -3.700346
   22       -3.300849
   23       -3.296947
   24       -3.269267
   25       -3.266489
   26       -2.168027
   27       -2.164586
   28       -2.081852
   29       -1.617837
   30        1.990848
   31        1.996075
   32        2.329415
   33        2.697271
   34        2.699355
   35        2.701800
   36        2.706545
   37        3.011626
   38        3.015986
   39        3.016726
   40        3.021736
   41        3.170720
   42        3.541613
   43        3.547362
   44        3.661083
   45        3.663942
   46        3.799908
   47        5.666704
   48        5.823845
   49        6.062297
   50        6.069264
   51        6.199372
   52        6.206925
   53        6.463118
   54        6.584319
   55        6.778606
   56        6.782287
   57        7.211718
   58        7.299016
   59        7.302805
   60        7.628424
   61        7.630315
   62        7.631932
   63        7.636021
   64        8.588613
   65       11.304569
   66       11.314806
   67       11.316010
   68       11.320660
   69       11.624886
   70       11.632908
   71       13.157962
   72       13.223481
   73       13.225707
   74       14.599574
   75       14.829640
   76       14.831211
   77       14.931036
   78       14.938467
   79       15.191914
   80       16.795782
   81       16.799819
   82       17.030964
   83       17.038335
   84       17.054133
 
  0.2222222E+00 -0.1387779E-16  0.0000000E+00  0.6172840E-02
    1      -11.766847
    2      -10.367551
    3      -10.363193
    4       -8.359607
    5       -7.886094
    6       -7.069686
    7       -7.067358
    8       -7.063563
    9       -7.059390
   10       -5.830194
   11       -5.827621
   12       -5.825658
   13       -5.822997
   14       -4.975665
   15       -4.521721
   16       -4.519783
   17       -3.529009
   18       -3.525976
   19       -3.129427
   20       -3.125087
   21       -3.123737
   22       -3.121426
   23       -2.953966
   24       -1.940105
   25       -1.936259
   26       -1.809152
   27       -1.503390
   28       -1.499853
   29       -0.376375
   30        1.311833
   31        1.316462
   32        2.048715
   33        2.050929
   34        2.053058
   35        2.056984
   36        2.088382
   37        2.553564
   38        3.021025
   39        3.026464
   40        3.227504
   41        3.232239
   42        3.241092
   43        3.246186
   44        3.417293
   45        3.419881
   46        4.004765
   47        4.676461
   48        5.225684
   49        5.231733
   50        5.308236
   51        5.775718
   52        5.783148
   53        5.795767
   54        6.278740
   55        6.516405
   56        6.519875
   57        7.445389
   58        7.448593
   59        7.529412
   60        7.530801
   61        7.533332
   62        7.537822
   63        8.464371
   64        8.765322
   65       11.614984
   66       11.624155
   67       11.625256
   68       11.629253
   69       12.481007
   70       12.482659
   71       12.593796
   72       12.599234
   73       12.659064
   74       14.779060
   75       15.029819
   76       15.031623
   77       16.003682
   78       16.011160
   79       16.078382
   80       16.889520
   81       17.058615
   82       17.062847
   83       17.079788
   84       17.086363
 
  0.3333333E+00 -0.2775558E-16  0.0000000E+00  0.6172840E-02
    1      -11.381380
    2       -9.992250
    3       -9.987928
    4       -9.326793
    5       -7.998098
    6       -7.993992
    7       -7.550741
    8       -7.346633
    9       -7.344247
   10       -6.091485
   11       -6.089035
   12       -6.086965
   13       -6.084501
   14       -5.775950
   15       -4.214323
   16       -4.212040
   17       -3.195186
   18       -3.191117
   19       -2.293807
   20       -2.289373
   21       -2.287976
   22       -2.285716
   23       -1.450227
   24       -1.356937
   25       -0.911745
   26       -0.908803
   27       -0.475291
   28       -0.471367
   29        0.551410
   30        0.554218
   31        0.931264
   32        1.016582
   33        1.183059
   34        1.184930
   35        1.186612
   36        1.191406
   37        2.287476
   38        2.292417
   39        2.919140
   40        3.197038
   41        3.199695
   42        3.314005
   43        3.523596
   44        3.528509
   45        3.578679
   46        3.583314
   47        4.117881
   48        4.122104
   49        4.335420
   50        4.663084
   51        4.788144
   52        5.208551
   53        5.214729
   54        5.669421
   55        5.673149
   56        5.812391
   57        7.428659
   58        7.430051
   59        7.433181
   60        7.437861
   61        8.348528
   62        8.351153
   63        9.041810
   64        9.448303
   65       11.535611
   66       11.536590
   67       11.954000
   68       11.961708
   69       11.962585
   70       11.965397
   71       12.678079
   72       13.703273
   73       13.706946
   74       15.071952
   75       15.145377
   76       15.147025
   77       16.442823
   78       16.486867
   79       16.492099
   80       16.620753
   81       17.059451
   82       17.498426
   83       17.516886
   84       17.547542
 
  0.4444444E+00 -0.2775558E-16  0.0000000E+00  0.6172840E-02
    1      -10.843985
    2      -10.157592
    3       -9.469787
    4       -9.465522
    5       -8.803152
    6       -8.798958
    7       -7.488691
    8       -7.486378
    9       -7.084008
   10       -6.489810
   11       -6.226938
   12       -6.224555
   13       -6.222440
   14       -6.220034
   15       -4.246056
   16       -4.243585
   17       -2.409538
   18       -2.405758
   19       -1.524882
   20       -1.519843
   21       -1.518480
   22       -1.517038
   23       -1.084452
   24       -1.081626
   25       -0.729217
   26        0.066717
   27        0.148505
   28        0.372596
   29        0.373973
   30        0.375246
   31        0.379544
   32        0.570575
   33        0.573661
   34        1.033753
   35        1.037868
   36        1.502226
   37        1.506114
   38        1.764048
   39        2.265803
   40        2.519713
   41        2.524259
   42        3.074195
   43        3.076940
   44        3.412021
   45        3.576055
   46        4.006918
   47        4.048198
   48        4.052796
   49        4.238546
   50        4.242667
   51        4.606772
   52        4.612371
   53        4.772659
   54        4.889920
   55        4.893967
   56        5.283071
   57        7.368201
   58        7.369714
   59        7.373062
   60        7.377910
   61        9.372588
   62        9.375661
   63        9.376141
   64        9.638981
   65       10.488441
   66       10.489465
   67       12.171957
   68       12.178824
   69       12.179396
   70       12.180725
   71       13.641707
   72       14.769179
   73       14.772430
   74       15.122273
   75       15.188954
   76       15.190374
   77       15.466349
   78       15.706710
   79       15.711058
   80       15.938796
   81       18.083692
   82       18.088439
   83       18.096701
   84       18.726701
 
  0.1694066E-20  0.1111111E+00  0.0000000E+00  0.6172840E-02
    1      -11.998822
    2      -10.593518
    3      -10.589138
    4       -8.088042
    5       -7.280254
    6       -6.685706
    7       -6.682221
    8       -6.031777
    9       -6.027968
   10       -5.481171
   11       -5.477725
   12       -5.476335
   13       -5.473214
   14       -5.182338
   15       -5.178129
   16       -4.711540
   17       -3.845973
   18       -3.840718
   19       -3.839423
   20       -3.834553
   21       -3.701954
   22       -3.301749
   23       -3.298439
   24       -3.269898
   25       -3.265016
   26       -2.168597
   27       -2.162734
   28       -2.081845
   29       -1.618977
   30        1.989404
   31        1.995783
   32        2.331118
   33        2.694749
   34        2.699249
   35        2.701795
   36        2.705653
   37        3.014279
   38        3.015834
   39        3.017664
   40        3.021945
   41        3.171779
   42        3.540121
   43        3.546982
   44        3.659816
   45        3.663667
   46        3.801836
   47        5.662864
   48        5.827694
   49        6.061270
   50        6.062481
   51        6.206669
   52        6.207558
   53        6.459412
   54        6.588124
   55        6.778685
   56        6.783466
   57        7.211141
   58        7.300960
   59        7.303133
   60        7.626527
   61        7.630083
   62        7.631799
   63        7.635260
   64        8.588636
   65       11.305993
   66       11.315066
   67       11.315771
   68       11.324439
   69       11.623390
   70       11.629959
   71       13.156111
   72       13.223419
   73       13.227295
   74       14.600341
   75       14.829035
   76       14.832141
   77       14.931089
   78       14.937578
   79       15.191747
   80       16.796445
   81       16.799597
   82       17.035385
   83       17.038897
   84       17.101796
 
  0.1111111E+00  0.1111111E+00  0.0000000E+00  0.6172840E-02
    1      -11.844118
    2      -10.442769
    3      -10.438404
    4       -7.953333
    5       -7.778418
    6       -7.774570
    7       -6.507046
    8       -6.502533
    9       -6.501570
   10       -6.497134
   11       -6.197129
   12       -5.371452
   13       -5.051382
   14       -5.048060
   15       -4.579906
   16       -4.576812
   17       -4.010618
   18       -4.005669
   19       -3.534076
   20       -3.530871
   21       -2.740882
   22       -2.600208
   23       -2.596431
   24       -2.595935
   25       -2.590152
   26       -2.509927
   27       -1.899891
   28       -0.983409
   29       -0.978932
   30        1.228693
   31        1.976996
   32        1.980709
   33        2.143606
   34        2.147096
   35        2.703138
   36        2.706322
   37        2.839593
   38        2.845058
   39        2.845806
   40        2.847443
   41        2.956570
   42        3.167586
   43        3.172704
   44        3.677276
   45        3.681073
   46        4.022141
   47        5.056217
   48        5.358530
   49        5.520797
   50        5.527732
   51        5.876358
   52        5.884021
   53        6.103560
   54        6.322152
   55        6.758497
   56        6.985269
   57        6.990204
   58        6.991576
   59        6.993108
   60        7.885417
   61        7.887600
   62        7.911754
   63        7.916431
   64        8.707214
   65       11.172755
   66       11.182454
   67       12.083637
   68       12.085702
   69       12.087284
   70       12.094521
   71       12.673570
   72       12.744971
   73       12.747886
   74       14.760053
   75       15.048813
   76       15.054264
   77       15.520176
   78       15.522798
   79       15.950594
   80       17.164317
   81       17.202041
   82       17.203725
   83       17.221383
   84       17.260143
 
  0.2222222E+00  0.1111111E+00  0.0000000E+00  0.6172840E-02
    1      -11.535384
    2      -10.142136
    3      -10.137800
    4       -8.803912
    5       -8.140425
    6       -7.684672
    7       -7.492556
    8       -7.488508
    9       -6.852784
   10       -6.848805
   11       -6.271028
   12       -5.334374
   13       -5.084128
   14       -5.080603
   15       -4.790346
   16       -4.781728
   17       -3.483096
   18       -3.478403
   19       -2.947551
   20       -2.786498
   21       -2.182168
   22       -1.937741
   23       -1.793334
   24       -1.790139
   25       -1.537426
   26       -1.182940
   27       -1.179091
   28       -0.323406
   29        0.280574
   30        0.283278
   31        1.019577
   32        1.023380
   33        1.582077
   34        1.605533
   35        2.148879
   36        2.276046
   37        2.278408
   38        2.341423
   39        2.453186
   40        3.129131
   41        3.133613
   42        3.228208
   43        3.447252
   44        3.452375
   45        3.947987
   46        3.958249
   47        4.137302
   48        4.578271
   49        4.584760
   50        4.635681
   51        5.321585
   52        5.329621
   53        5.386904
   54        5.876269
   55        6.147369
   56        6.150823
   57        6.742514
   58        6.745205
   59        7.251254
   60        8.097280
   61        8.101489
   62        8.703787
   63        8.935172
   64        9.097173
   65       11.188114
   66       11.196798
   67       11.680571
   68       12.164087
   69       12.461409
   70       12.591079
   71       12.595744
   72       13.161840
   73       13.166191
   74       14.873403
   75       15.286966
   76       15.661116
   77       16.181414
   78       16.410826
   79       16.865648
   80       16.873442
   81       16.977378
   82       17.121126
   83       17.433690
   84       17.536283
 
  0.3333333E+00  0.1111111E+00  0.0000000E+00  0.6172840E-02
    1      -11.073933
    2       -9.704037
    3       -9.692841
    4       -9.688730
    5       -8.364380
    6       -8.361167
    7       -8.357201
    8       -7.283556
    9       -7.065435
   10       -7.061424
   11       -6.438491
   12       -6.098388
   13       -5.226660
   14       -5.222988
   15       -4.958311
   16       -3.955722
   17       -3.097954
   18       -2.676963
   19       -2.672441
   20       -1.903518
   21       -1.604227
   22       -0.997808
   23       -0.971496
   24       -0.968560
   25       -0.627999
   26       -0.284621
   27       -0.028345
   28        0.027395
   29        0.031338
   30        0.296894
   31        0.300725
   32        0.589612
   33        1.201172
   34        1.253443
   35        1.525463
   36        1.528135
   37        1.571668
   38        2.114076
   39        2.535977
   40        2.573863
   41        2.914831
   42        3.163219
   43        3.168591
   44        3.547579
   45        3.552200
   46        3.828398
   47        4.049098
   48        4.052723
   49        4.115887
   50        4.336185
   51        4.421194
   52        4.694017
   53        4.700415
   54        5.326160
   55        5.329935
   56        5.352462
   57        6.586219
   58        6.589141
   59        8.114508
   60        8.186934
   61        8.190321
   62        9.246692
   63        9.575603
   64        9.689839
   65       10.537758
   66       11.272320
   67       11.278657
   68       11.463139
   69       12.962626
   70       12.989730
   71       12.993626
   72       14.278126
   73       14.281092
   74       14.976487
   75       15.629183
   76       15.666228
   77       15.763286
   78       16.187948
   79       16.193435
   80       16.536128
   81       17.386698
   82       17.771557
   83       18.015147
   84       18.018834
 
  0.4444444E+00  0.1111111E+00  0.0000000E+00  0.6172840E-02
    1      -10.463689
    2      -10.460524
    3       -9.101515
    4       -9.097202
    5       -9.095863
    6       -9.091960
    7       -8.435348
    8       -7.136775
    9       -7.132753
   10       -6.754702
   11       -6.751446
   12       -6.501275
   13       -5.283149
   14       -5.279433
   15       -5.017838
   16       -3.536499
   17       -3.016046
   18       -2.157236
   19       -2.153279
   20       -1.929597
   21       -1.283829
   22       -0.553072
   23       -0.549726
   24       -0.491556
   25       -0.486935
   26       -0.395880
   27       -0.286220
   28       -0.283346
   29        0.055922
   30        0.577415
   31        0.968364
   32        0.972127
   33        1.055227
   34        1.059777
   35        1.505473
   36        1.782384
   37        1.782778
   38        1.783720
   39        1.791183
   40        2.036947
   41        2.044839
   42        2.806291
   43        2.811536
   44        3.544187
   45        3.550508
   46        4.066353
   47        4.078501
   48        4.079376
   49        4.080068
   50        4.096008
   51        4.604729
   52        4.609847
   53        4.612468
   54        4.616452
   55        4.815500
   56        4.821033
   57        6.532901
   58        6.535982
   59        8.211209
   60        8.213542
   61        8.897439
   62        9.571886
   63        9.573692
   64        9.667037
   65       10.203832
   66       10.896739
   67       11.318501
   68       11.322570
   69       13.141060
   70       13.145002
   71       14.260493
   72       14.265273
   73       15.013833
   74       15.305840
   75       15.308163
   76       15.311157
   77       15.316188
   78       15.650451
   79       16.056682
   80       16.060255
   81       18.427886
   82       18.437750
   83       18.574488
   84       18.576718
 
 -0.4444444E+00  0.1111111E+00  0.0000000E+00  0.6172840E-02
    1      -11.074043
    2       -9.703881
    3       -9.692942
    4       -9.688837
    5       -8.363080
    6       -8.361333
    7       -8.358225
    8       -7.283691
    9       -7.065722
   10       -7.061712
   11       -6.438375
   12       -6.098224
   13       -5.226607
   14       -5.222929
   15       -4.958473
   16       -3.954844
   17       -3.095358
   18       -2.673530
   19       -2.670434
   20       -1.906861
   21       -1.605181
   22       -0.997933
   23       -0.974852
   24       -0.970745
   25       -0.628090
   26       -0.284305
   27       -0.027394
   28        0.024928
   29        0.027560
   30        0.296808
   31        0.300983
   32        0.589645
   33        1.200692
   34        1.249769
   35        1.528096
   36        1.532541
   37        1.572747
   38        2.114212
   39        2.535112
   40        2.578233
   41        2.913543
   42        3.162741
   43        3.166526
   44        3.546984
   45        3.552200
   46        3.823903
   47        4.049139
   48        4.052789
   49        4.115149
   50        4.336349
   51        4.426104
   52        4.696206
   53        4.700796
   54        5.326201
   55        5.330086
   56        5.352979
   57        6.586342
   58        6.589527
   59        8.116789
   60        8.186880
   61        8.188627
   62        9.246880
   63        9.575418
   64        9.689573
   65       10.537061
   66       11.275145
   67       11.279683
   68       11.461492
   69       12.963266
   70       12.988017
   71       12.992891
   72       14.277529
   73       14.281236
   74       14.976488
   75       15.628386
   76       15.666828
   77       15.762202
   78       16.190312
   79       16.194436
   80       16.537789
   81       17.387194
   82       17.777253
   83       18.014673
   84       18.018565
 
 -0.3333333E+00  0.1111111E+00  0.0000000E+00  0.6172840E-02
    1      -11.535463
    2      -10.142215
    3      -10.137879
    4       -8.803713
    5       -8.140857
    6       -7.684749
    7       -7.492364
    8       -7.488320
    9       -6.853202
   10       -6.849221
   11       -6.270914
   12       -5.334214
   13       -5.084161
   14       -5.080703
   15       -4.790621
   16       -4.779680
   17       -3.478917
   18       -3.475985
   19       -2.945680
   20       -2.789984
   21       -2.182326
   22       -1.935573
   23       -1.796931
   24       -1.792617
   25       -1.537448
   26       -1.183109
   27       -1.179127
   28       -0.325836
   29        0.278544
   30        0.282161
   31        1.016251
   32        1.018823
   33        1.585692
   34        1.605647
   35        2.144684
   36        2.279587
   37        2.283764
   38        2.341729
   39        2.452688
   40        3.129003
   41        3.133725
   42        3.232876
   43        3.447197
   44        3.452312
   45        3.947735
   46        3.956523
   47        4.135931
   48        4.576758
   49        4.579645
   50        4.633357
   51        5.327251
   52        5.331084
   53        5.389775
   54        5.878041
   55        6.147362
   56        6.150927
   57        6.742708
   58        6.745970
   59        7.254322
   60        8.096899
   61        8.098866
   62        8.702815
   63        8.935302
   64        9.097077
   65       11.192624
   66       11.199096
   67       11.680567
   68       12.161772
   69       12.461580
   70       12.588270
   71       12.594290
   72       13.161556
   73       13.166440
   74       14.873529
   75       15.286434
   76       15.661849
   77       16.186941
   78       16.411347
   79       16.870822
   80       16.875483
   81       16.980086
   82       17.119905
   83       17.428651
   84       17.538441
 
 -0.2222222E+00  0.1111111E+00  0.0000000E+00  0.6172840E-02
    1      -11.844165
    2      -10.442817
    3      -10.438451
    4       -7.953402
    5       -7.777119
    6       -7.776241
    7       -6.505436
    8       -6.503007
    9       -6.501564
   10       -6.499023
   11       -6.197195
   12       -5.368933
   13       -5.051499
   14       -5.048632
   15       -4.578516
   16       -4.578241
   17       -4.005592
   18       -4.003407
   19       -3.536992
   20       -3.531647
   21       -2.739685
   22       -2.601634
   23       -2.597472
   24       -2.596935
   25       -2.592917
   26       -2.506710
   27       -1.899905
   28       -0.984550
   29       -0.980566
   30        1.224406
   31        1.973237
   32        1.975661
   33        2.144300
   34        2.150864
   35        2.704328
   36        2.705723
   37        2.841365
   38        2.845740
   39        2.848182
   40        2.852222
   41        2.952035
   42        3.167592
   43        3.172721
   44        3.678292
   45        3.685113
   46        4.020322
   47        5.050166
   48        5.361966
   49        5.517123
   50        5.517803
   51        5.886872
   52        5.887449
   53        6.100798
   54        6.327892
   55        6.762009
   56        6.986800
   57        6.990298
   58        6.990608
   59        6.994050
   60        7.884774
   61        7.886737
   62        7.911167
   63        7.913366
   64        8.707287
   65       11.177874
   66       11.185473
   67       12.079668
   68       12.086005
   69       12.086877
   70       12.092885
   71       12.674420
   72       12.743079
   73       12.747315
   74       14.760384
   75       15.050771
   76       15.057349
   77       15.521610
   78       15.522105
   79       15.944775
   80       17.173360
   81       17.203264
   82       17.207358
   83       17.216658
   84       17.255584
 
 -0.1111111E+00  0.1111111E+00  0.0000000E+00  0.6172840E-02
    1      -11.998838
    2      -10.593534
    3      -10.589154
    4       -8.088060
    5       -7.280964
    6       -6.685117
    7       -6.682011
    8       -6.032395
    9       -6.028600
   10       -5.481084
   11       -5.477450
   12       -5.475764
   13       -5.473099
   14       -5.180389
   15       -5.178440
   16       -4.712517
   17       -3.841762
   18       -3.839965
   19       -3.838820
   20       -3.834509
   21       -3.704697
   22       -3.305124
   23       -3.300709
   24       -3.267532
   25       -3.265044
   26       -2.165775
   27       -2.163239
   28       -2.081849
   29       -1.621573
   30        1.988762
   31        1.991723
   32        2.335920
   33        2.693289
   34        2.698639
   35        2.699445
   36        2.700652
   37        3.016498
   38        3.018652
   39        3.021469
   40        3.022849
   41        3.172807
   42        3.539438
   43        3.542844
   44        3.659509
   45        3.662440
   46        3.806843
   47        5.655686
   48        5.834962
   49        6.051085
   50        6.058864
   51        6.210371
   52        6.217798
   53        6.452611
   54        6.595033
   55        6.781467
   56        6.783835
   57        7.208675
   58        7.301387
   59        7.305112
   60        7.625621
   61        7.629890
   62        7.631584
   63        7.633451
   64        8.588659
   65       11.310956
   66       11.315195
   67       11.316858
   68       11.326266
   69       11.619103
   70       11.627290
   71       13.153906
   72       13.224904
   73       13.227357
   74       14.605718
   75       14.830044
   76       14.831771
   77       14.928933
   78       14.934076
   79       15.191525
   80       16.800224
   81       16.803619
   82       17.030845
   83       17.036569
   84       17.065767
 
  0.1694066E-20  0.2222222E+00  0.0000000E+00  0.6172840E-02
    1      -11.766854
    2      -10.367558
    3      -10.363200
    4       -8.359648
    5       -7.886115
    6       -7.071116
    7       -7.067028
    8       -7.063050
    9       -7.058902
   10       -5.831256
   11       -5.827220
   12       -5.825963
   13       -5.822258
   14       -4.975508
   15       -4.522192
   16       -4.519537
   17       -3.529155
   18       -3.524183
   19       -3.130255
   20       -3.124820
   21       -3.123423
   22       -3.118460
   23       -2.955419
   24       -1.940982
   25       -1.937744
   26       -1.809131
   27       -1.503827
   28       -1.497842
   29       -0.377633
   30        1.310163
   31        1.316090
   32        2.045761
   33        2.050719
   34        2.053093
   35        2.056612
   36        2.088870
   37        2.555354
   38        3.019444
   39        3.026206
   40        3.230586
   41        3.232724
   42        3.241198
   43        3.246306
   44        3.415826
   45        3.420072
   46        4.006769
   47        4.673376
   48        5.224559
   49        5.226108
   50        5.311817
   51        5.780121
   52        5.783165
   53        5.794894
   54        6.282176
   55        6.517385
   56        6.520227
   57        7.445291
   58        7.449662
   59        7.527227
   60        7.530935
   61        7.533388
   62        7.537201
   63        8.464679
   64        8.765416
   65       11.616252
   66       11.624303
   67       11.625178
   68       11.632865
   69       12.480938
   70       12.483959
   71       12.592741
   72       12.597247
   73       12.656563
   74       14.779921
   75       15.029233
   76       15.032849
   77       16.003250
   78       16.010471
   79       16.078259
   80       16.892631
   81       17.059886
   82       17.062544
   83       17.083319
   84       17.087636
 
  0.1111111E+00  0.2222222E+00  0.0000000E+00  0.6172840E-02
    1      -11.535389
    2      -10.142140
    3      -10.137804
    4       -8.803975
    5       -8.140379
    6       -7.684650
    7       -7.492640
    8       -7.488578
    9       -6.852741
   10       -6.848772
   11       -6.271001
   12       -5.334392
   13       -5.084111
   14       -5.080583
   15       -4.790214
   16       -4.781977
   17       -3.482966
   18       -3.478384
   19       -2.947637
   20       -2.784942
   21       -2.183613
   22       -1.937355
   23       -1.792278
   24       -1.788518
   25       -1.537405
   26       -1.183869
   27       -1.180748
   28       -0.321844
   29        0.279723
   30        0.282252
   31        1.019544
   32        1.023183
   33        1.580108
   34        1.605977
   35        2.148830
   36        2.273307
   37        2.277453
   38        2.340775
   39        2.455197
   40        3.132280
   41        3.134414
   42        3.226285
   43        3.447284
   44        3.452387
   45        3.949212
   46        3.957151
   47        4.137098
   48        4.578171
   49        4.581443