 running on    6 total cores
 distrk:  each k-point on    6 cores,    1 groups
 distr:  one band on    1 cores,    6 groups
 using from now: INCAR     
 vasp.5.3.5 31Mar14 (build Nov 02 2014 15:17:37) complex                        
  
 POSCAR found :  1 types and      32 ions
 scaLAPACK will be used

 ----------------------------------------------------------------------------- 
|                                                                             |
|           W    W    AA    RRRRR   N    N  II  N    N   GGGG   !!!           |
|           W    W   A  A   R    R  NN   N  II  NN   N  G    G  !!!           |
|           W    W  A    A  R    R  N N  N  II  N N  N  G       !!!           |
|           W WW W  AAAAAA  RRRRR   N  N N  II  N  N N  G  GGG   !            |
|           WW  WW  A    A  R   R   N   NN  II  N   NN  G    G                |
|           W    W  A    A  R    R  N    N  II  N    N   GGGG   !!!           |
|                                                                             |
|      For optimal performance we recommend to set                            |
|        NCORE= 4 - approx SQRT( number of cores)                             |
|      NCORE specifies how many cores store one orbital (NPAR=cpu/NCORE).     |
|      This setting can  greatly improve the performance of VASP for DFT.     |
|      The default, NPAR=number of cores might be grossly inefficient         |
|      on modern multi-core architectures or massively parallel machines.     |
|      Do your own testing !!!!                                               |
|      Unfortunately you need to use the default for GW and RPA calculations. |
|      (for HF NCORE is supported but not extensively tested yet)             |
|                                                                             |
 ----------------------------------------------------------------------------- 


 ----------------------------------------------------------------------------- 
|                                                                             |
|  ADVICE TO THIS USER RUNNING 'VASP/VAMP'   (HEAR YOUR MASTER'S VOICE ...):  |
|                                                                             |
|      You have a (more or less) 'large supercell' and for larger cells       |
|      it might be more efficient to use real space projection operators      |
|      So try LREAL= Auto  in the INCAR   file.                               |
|      Mind: If you want to do a very accurate calculations keep the          |
|      reciprocal projection scheme          (i.e. LREAL=.FALSE.)             |
|                                                                             |
 ----------------------------------------------------------------------------- 

 LDA part: xc-table for Pade appr. of Perdew
 POSCAR, INCAR and KPOINTS ok, starting setup
 WARNING: small aliasing (wrap around) errors must be expected
 FFT: planning ...
 WAVECAR not read
 WARNING: random wavefunctions but no delay for mixing, default for NELMDL
 entering main loop
       N       E                     dE             d eps       ncg     rms          rms(c)
DAV:   1     0.462579974515E+03    0.46258E+03   -0.76266E+04 27384   0.168E+03
DAV:   2    -0.250162205554E+03   -0.71274E+03   -0.68258E+03 34248   0.304E+02
DAV:   3    -0.286258685159E+03   -0.36096E+02   -0.35573E+02 33624   0.641E+01
DAV:   4    -0.286821011730E+03   -0.56233E+00   -0.56053E+00 33168   0.869E+00
DAV:   5    -0.286833370744E+03   -0.12359E-01   -0.12353E-01 33300   0.119E+00    0.219E+01
DAV:   6    -0.275512214269E+03    0.11321E+02   -0.96889E+00 31104   0.983E+00    0.116E+01
DAV:   7    -0.271896916493E+03    0.36153E+01   -0.96724E+00 29424   0.100E+01    0.156E+00
DAV:   8    -0.271923012614E+03   -0.26096E-01   -0.22380E-01 32208   0.154E+00    0.533E-01
DAV:   9    -0.271925529005E+03   -0.25164E-02   -0.55961E-03 32424   0.319E-01    0.666E-02
DAV:  10    -0.271925664577E+03   -0.13557E-03   -0.20243E-04 33756   0.503E-02    0.288E-02
DAV:  11    -0.271925708536E+03   -0.43959E-04   -0.63635E-05 31536   0.320E-02    0.493E-03
DAV:  12    -0.271925707175E+03    0.13604E-05   -0.17310E-06 21828   0.460E-03    0.139E-03
DAV:  13    -0.271925707163E+03    0.12398E-07   -0.63942E-07 19308   0.262E-03
   1 F= -.27555463E+03 E0= -.27554537E+03  d E =-.185036E-01
