 vasp.5.3.5 31Mar14 (build Nov 02 2014 15:17:37) complex                        
  
 executed on        ion-Intel-MKL date 2016.08.24  02:18:43
 running on    6 total cores
 distrk:  each k-point on    6 cores,    1 groups
 distr:  one band on NCORES_PER_BAND=   1 cores,    6 groups


--------------------------------------------------------------------------------------------------------


 INCAR:
 POTCAR:   PAW_PBE C 08Apr2002                    

 ----------------------------------------------------------------------------- 
|                                                                             |
|           W    W    AA    RRRRR   N    N  II  N    N   GGGG   !!!           |
|           W    W   A  A   R    R  NN   N  II  NN   N  G    G  !!!           |
|           W    W  A    A  R    R  N N  N  II  N N  N  G       !!!           |
|           W WW W  AAAAAA  RRRRR   N  N N  II  N  N N  G  GGG   !            |
|           WW  WW  A    A  R   R   N   NN  II  N   NN  G    G                |
|           W    W  A    A  R    R  N    N  II  N    N   GGGG   !!!           |
|                                                                             |
|      For optimal performance we recommend to set                            |
|        NCORE= 4 - approx SQRT( number of cores)                             |
|      NCORE specifies how many cores store one orbital (NPAR=cpu/NCORE).     |
|      This setting can  greatly improve the performance of VASP for DFT.     |
|      The default, NPAR=number of cores might be grossly inefficient         |
|      on modern multi-core architectures or massively parallel machines.     |
|      Do your own testing !!!!                                               |
|      Unfortunately you need to use the default for GW and RPA calculations. |
|      (for HF NCORE is supported but not extensively tested yet)             |
|                                                                             |
 ----------------------------------------------------------------------------- 

 POTCAR:   PAW_PBE C 08Apr2002                    
   VRHFIN =C: s2p2                                                              
   LEXCH  = PE                                                                  
   EATOM  =   147.1560 eV,   10.8157 Ry                                         
                                                                                
   TITEL  = PAW_PBE C 08Apr2002                                                 
   LULTRA =        F    use ultrasoft PP ?                                      
   IUNSCR =        0    unscreen: 0-lin 1-nonlin 2-no                           
   RPACOR =     .000    partial core radius                                     
   POMASS =   12.011; ZVAL   =    4.000    mass and valenz                      
   RCORE  =    1.500    outmost cutoff radius                                   
   RWIGS  =    1.630; RWIGS  =     .863    wigner-seitz radius (au A)           
   ENMAX  =  400.000; ENMIN  =  300.000 eV                                      
   ICORE  =        2    local potential                                         
   LCOR   =        T    correct aug charges                                     
   LPAW   =        T    paw PP                                                  
   EAUG   =  644.873                                                            
   DEXC   =     .000                                                            
   RMAX   =    2.266    core radius for proj-oper                               
   RAUG   =    1.300    factor for augmentation sphere                          
   RDEP   =    1.501    radius for radial grids                                 
   RDEPT  =    1.300    core radius for aug-charge                              
   QCUT   =   -5.516; QGAM   =   11.032    optimization parameters              
                                                                                
   Description                                                                  
     l     E      TYP  RCUT    TYP  RCUT                                        
     0   .000     23  1.200                                                     
     0   .000     23  1.200                                                     
     1   .000     23  1.500                                                     
     1  2.500     23  1.500                                                     
     2   .000      7  1.500                                                     
  local pseudopotential read in
  atomic valenz-charges read in
  non local Contribution for L=           0  read in
    real space projection operators read in
  non local Contribution for L=           0  read in
    real space projection operators read in
  non local Contribution for L=           1  read in
    real space projection operators read in
  non local Contribution for L=           1  read in
    real space projection operators read in
    PAW grid and wavefunctions read in
 
   number of l-projection  operators is LMAX  =           4
   number of lm-projection operators is LMMAX =           8
 

 ----------------------------------------------------------------------------- 
|                                                                             |
|  ADVICE TO THIS USER RUNNING 'VASP/VAMP'   (HEAR YOUR MASTER'S VOICE ...):  |
|                                                                             |
|      You have a (more or less) 'large supercell' and for larger cells       |
|      it might be more efficient to use real space projection operators      |
|      So try LREAL= Auto  in the INCAR   file.                               |
|      Mind: If you want to do a very accurate calculations keep the          |
|      reciprocal projection scheme          (i.e. LREAL=.FALSE.)             |
|                                                                             |
 ----------------------------------------------------------------------------- 

 PAW_PBE C 08Apr2002                    :
 energy of atom  1       EATOM= -147.1560
 kinetic energy error for atom=    0.0057 (will be added to EATOM!!)
 
 
 POSCAR: C                                       
  positions in direct lattice
  No initial velocities read in
 exchange correlation table for  LEXCH =        8
   RHO(1)=    0.500       N(1)  =     2000
   RHO(2)=  100.500       N(2)  =     4000
 


--------------------------------------------------------------------------------------------------------


 ion  position               nearest neighbor table
   1  0.500  0.000  0.125-  20 1.42  18 1.42  19 1.42
   2  1.000  0.000  0.125-  19 1.42  20 1.42  17 1.42
   3  0.500  0.500  0.125-  18 1.42  20 1.42  17 1.43
   4  1.000  0.500  0.125-  17 1.42  19 1.42  18 1.42
   5  0.500  0.000  0.625-  24 1.42  22 1.42  23 1.42
   6  1.000  0.000  0.625-  23 1.42  21 1.42  24 1.42
   7  0.500  0.500  0.625-  22 1.42  24 1.42  21 1.42
   8  1.000  0.500  0.625-  21 1.42  23 1.42  22 1.42
   9  0.000  0.500  0.375-  28 1.42  27 1.42  26 1.42
  10  0.500  0.500  0.375-  27 1.42  28 1.42  25 1.42
  11  0.000  1.000  0.375-  26 1.42  25 1.42  28 1.42
  12  0.500  1.000  0.375-  25 1.42  26 1.42  27 1.42
  13  0.000  0.500  0.875-  32 1.42  31 1.42  30 1.42
  14  0.500  0.500  0.875-  31 1.42  32 1.42  29 1.42
  15  0.000  1.000  0.875-  30 1.42  29 1.42  32 1.42
  16  0.500  1.000  0.875-  29 1.42  30 1.42  31 1.42
  17  0.166  0.333  0.124-   4 1.42   2 1.42   3 1.43
  18  0.667  0.333  0.125-   3 1.42   1 1.42   4 1.42
  19  0.167  0.833  0.125-   2 1.42   4 1.42   1 1.42
  20  0.667  0.833  0.125-   1 1.42   3 1.42   2 1.42
  21  0.167  0.333  0.625-   8 1.42   6 1.42   7 1.42
  22  0.667  0.333  0.625-   7 1.42   5 1.42   8 1.42
  23  0.167  0.833  0.625-   6 1.42   8 1.42   5 1.42
  24  0.667  0.833  0.625-   5 1.42   7 1.42   6 1.42
  25  0.333  0.167  0.375-  12 1.42  11 1.42  10 1.42
  26  0.833  0.167  0.375-  11 1.42  12 1.42   9 1.42
  27  0.333  0.667  0.375-  10 1.42   9 1.42  12 1.42
  28  0.833  0.667  0.375-   9 1.42  10 1.42  11 1.42
  29  0.333  0.167  0.875-  16 1.42  15 1.42  14 1.42
  30  0.833  0.167  0.875-  15 1.42  16 1.42  13 1.42
  31  0.333  0.667  0.875-  14 1.42  13 1.42  16 1.42
  32  0.833  0.667  0.875-  13 1.42  14 1.42  15 1.42
 
  LATTYP: Found a base centered orthorhombic cell.
 ALAT       =     4.9339256766
 B/A-ratio  =     1.7322311103
 C/A-ratio  =     2.3173761993
  
  Lattice vectors:
  
 A1 = (   4.9343108848,  -0.0002224000,   0.0000000000)
 A2 = (  -2.4673480464,   4.2731273763,   0.0000000000)
 A3 = (   0.0000000000,   0.0000000000,  11.4337619320)


Analysis of symmetry for initial positions (statically):
=====================================================================
 Subroutine PRICEL returns:
 Original cell was already a primitive cell.
 

 Routine SETGRP: Setting up the symmetry group for a 
 base centered orthorhombic supercell.


 Subroutine GETGRP returns: Found  1 space group operations
 (whereof  1 operations were pure point group operations)
 out of a pool of  8 trial point group operations.


The static configuration has the point symmetry C_1 .


Analysis of symmetry for dynamics (positions and initial velocities):
=====================================================================
 Subroutine PRICEL returns:
 Original cell was already a primitive cell.
 

 Routine SETGRP: Setting up the symmetry group for a 
 base centered orthorhombic supercell.


 Subroutine GETGRP returns: Found  1 space group operations
 (whereof  1 operations were pure point group operations)
 out of a pool of  8 trial point group operations.


The dynamic configuration has the point symmetry C_1 .
 
 
 KPOINTS: B4C B11C-CBC                            

Automatic generation of k-mesh.
Space group operators:
 irot       det(A)        alpha          n_x          n_y          n_z        tau_x        tau_y        tau_z
    1     1.000000     0.000000     1.000000     0.000000     0.000000     0.000000     0.000000     0.000000
 
 Subroutine IBZKPT returns following result:
 ===========================================
 
 Found    163 irreducible k-points:
 
 Following reciprocal coordinates:
            Coordinates               Weight
  0.000000  0.000000  0.000000      1.000000
  0.111111  0.000000  0.000000      2.000000
  0.222222  0.000000  0.000000      2.000000
  0.333333  0.000000  0.000000      2.000000
  0.444444  0.000000  0.000000      2.000000
 -0.000000  0.111111  0.000000      2.000000
  0.111111  0.111111  0.000000      2.000000
  0.222222  0.111111  0.000000      2.000000
  0.333333  0.111111  0.000000      2.000000
  0.444444  0.111111  0.000000      2.000000
 -0.444444  0.111111  0.000000      2.000000
 -0.333333  0.111111  0.000000      2.000000
 -0.222222  0.111111  0.000000      2.000000
 -0.111111  0.111111  0.000000      2.000000
 -0.000000  0.222222  0.000000      2.000000
  0.111111  0.222222  0.000000      2.000000
  0.222222  0.222222  0.000000      2.000000
  0.333333  0.222222  0.000000      2.000000
  0.444444  0.222222  0.000000      2.000000
 -0.444444  0.222222  0.000000      2.000000
 -0.333333  0.222222  0.000000      2.000000
 -0.222222  0.222222  0.000000      2.000000
 -0.111111  0.222222  0.000000      2.000000
 -0.000000  0.333333  0.000000      2.000000
  0.111111  0.333333  0.000000      2.000000
  0.222222  0.333333  0.000000      2.000000
  0.333333  0.333333  0.000000      2.000000
  0.444444  0.333333  0.000000      2.000000
 -0.444444  0.333333  0.000000      2.000000
 -0.333333  0.333333  0.000000      2.000000
 -0.222222  0.333333  0.000000      2.000000
 -0.111111  0.333333  0.000000      2.000000
 -0.000000  0.444444  0.000000      2.000000
  0.111111  0.444444  0.000000      2.000000
  0.222222  0.444444  0.000000      2.000000
  0.333333  0.444444  0.000000      2.000000
  0.444444  0.444444  0.000000      2.000000
 -0.444444  0.444444  0.000000      2.000000
 -0.333333  0.444444  0.000000      2.000000
 -0.222222  0.444444  0.000000      2.000000
 -0.111111  0.444444  0.000000      2.000000
  0.000000  0.000000  0.250000      2.000000
  0.111111  0.000000  0.250000      2.000000
  0.222222  0.000000  0.250000      2.000000
  0.333333  0.000000  0.250000      2.000000
  0.444444  0.000000  0.250000      2.000000
 -0.444444 -0.000000  0.250000      2.000000
 -0.333333 -0.000000  0.250000      2.000000
 -0.222222 -0.000000  0.250000      2.000000
 -0.111111 -0.000000  0.250000      2.000000
 -0.000000  0.111111  0.250000      2.000000
  0.111111  0.111111  0.250000      2.000000
  0.222222  0.111111  0.250000      2.000000
  0.333333  0.111111  0.250000      2.000000
  0.444444  0.111111  0.250000      2.000000
 -0.444444  0.111111  0.250000      2.000000
 -0.333333  0.111111  0.250000      2.000000
 -0.222222  0.111111  0.250000      2.000000
 -0.111111  0.111111  0.250000      2.000000
 -0.000000  0.222222  0.250000      2.000000
  0.111111  0.222222  0.250000      2.000000
  0.222222  0.222222  0.250000      2.000000
  0.333333  0.222222  0.250000      2.000000
  0.444444  0.222222  0.250000      2.000000
 -0.444444  0.222222  0.250000      2.000000
 -0.333333  0.222222  0.250000      2.000000
 -0.222222  0.222222  0.250000      2.000000
 -0.111111  0.222222  0.250000      2.000000
 -0.000000  0.333333  0.250000      2.000000
  0.111111  0.333333  0.250000      2.000000
  0.222222  0.333333  0.250000      2.000000
  0.333333  0.333333  0.250000      2.000000
  0.444444  0.333333  0.250000      2.000000
 -0.444444  0.333333  0.250000      2.000000
 -0.333333  0.333333  0.250000      2.000000
 -0.222222  0.333333  0.250000      2.000000
 -0.111111  0.333333  0.250000      2.000000
 -0.000000  0.444444  0.250000      2.000000
  0.111111  0.444444  0.250000      2.000000
  0.222222  0.444444  0.250000      2.000000
  0.333333  0.444444  0.250000      2.000000
  0.444444  0.444444  0.250000      2.000000
 -0.444444  0.444444  0.250000      2.000000
 -0.333333  0.444444  0.250000      2.000000
 -0.222222  0.444444  0.250000      2.000000
 -0.111111  0.444444  0.250000      2.000000
  0.000000 -0.444444  0.250000      2.000000
  0.111111 -0.444444  0.250000      2.000000
  0.222222 -0.444444  0.250000      2.000000
  0.333333 -0.444444  0.250000      2.000000
  0.444444 -0.444444  0.250000      2.000000
 -0.444444 -0.444444  0.250000      2.000000
 -0.333333 -0.444444  0.250000      2.000000
 -0.222222 -0.444444  0.250000      2.000000
 -0.111111 -0.444444  0.250000      2.000000
  0.000000 -0.333333  0.250000      2.000000
  0.111111 -0.333333  0.250000      2.000000
  0.222222 -0.333333  0.250000      2.000000
  0.333333 -0.333333  0.250000      2.000000
  0.444444 -0.333333  0.250000      2.000000
 -0.444444 -0.333333  0.250000      2.000000
 -0.333333 -0.333333  0.250000      2.000000
 -0.222222 -0.333333  0.250000      2.000000
 -0.111111 -0.333333  0.250000      2.000000
  0.000000 -0.222222  0.250000      2.000000
  0.111111 -0.222222  0.250000      2.000000
  0.222222 -0.222222  0.250000      2.000000
  0.333333 -0.222222  0.250000      2.000000
  0.444444 -0.222222  0.250000      2.000000
 -0.444444 -0.222222  0.250000      2.000000
 -0.333333 -0.222222  0.250000      2.000000
 -0.222222 -0.222222  0.250000      2.000000
 -0.111111 -0.222222  0.250000      2.000000
  0.000000 -0.111111  0.250000      2.000000
  0.111111 -0.111111  0.250000      2.000000
  0.222222 -0.111111  0.250000      2.000000
  0.333333 -0.111111  0.250000      2.000000
  0.444444 -0.111111  0.250000      2.000000
 -0.444444 -0.111111  0.250000      2.000000
 -0.333333 -0.111111  0.250000      2.000000
 -0.222222 -0.111111  0.250000      2.000000
 -0.111111 -0.111111  0.250000      2.000000
  0.000000  0.000000  0.500000      1.000000
  0.111111  0.000000  0.500000      2.000000
  0.222222  0.000000  0.500000      2.000000
  0.333333  0.000000  0.500000      2.000000
  0.444444  0.000000  0.500000      2.000000
 -0.000000  0.111111  0.500000      2.000000
  0.111111  0.111111  0.500000      2.000000
  0.222222  0.111111  0.500000      2.000000
  0.333333  0.111111  0.500000      2.000000
  0.444444  0.111111  0.500000      2.000000
 -0.444444  0.111111  0.500000      2.000000
 -0.333333  0.111111  0.500000      2.000000
 -0.222222  0.111111  0.500000      2.000000
 -0.111111  0.111111  0.500000      2.000000
 -0.000000  0.222222  0.500000      2.000000
  0.111111  0.222222  0.500000      2.000000
  0.222222  0.222222  0.500000      2.000000
  0.333333  0.222222  0.500000      2.000000
  0.444444  0.222222  0.500000      2.000000
 -0.444444  0.222222  0.500000      2.000000
 -0.333333  0.222222  0.500000      2.000000
 -0.222222  0.222222  0.500000      2.000000
 -0.111111  0.222222  0.500000      2.000000
 -0.000000  0.333333  0.500000      2.000000
  0.111111  0.333333  0.500000      2.000000
  0.222222  0.333333  0.500000      2.000000
  0.333333  0.333333  0.500000      2.000000
  0.444444  0.333333  0.500000      2.000000
 -0.444444  0.333333  0.500000      2.000000
 -0.333333  0.333333  0.500000      2.000000
 -0.222222  0.333333  0.500000      2.000000
 -0.111111  0.333333  0.500000      2.000000
 -0.000000  0.444444  0.500000      2.000000
  0.111111  0.444444  0.500000      2.000000
  0.222222  0.444444  0.500000      2.000000
  0.333333  0.444444  0.500000      2.000000
  0.444444  0.444444  0.500000      2.000000
 -0.444444  0.444444  0.500000      2.000000
 -0.333333  0.444444  0.500000      2.000000
 -0.222222  0.444444  0.500000      2.000000
 -0.111111  0.444444  0.500000      2.000000
 
 Following cartesian coordinates:
            Coordinates               Weight
  0.000000  0.000000  0.000000      1.000000
  0.022519  0.013002  0.000000      2.000000
  0.045037  0.026005  0.000000      2.000000
  0.067556  0.039007  0.000000      2.000000
  0.090075  0.052010  0.000000      2.000000
  0.000001  0.026003  0.000000      2.000000
  0.022520  0.039005  0.000000      2.000000
  0.045038  0.052008  0.000000      2.000000
  0.067557  0.065010  0.000000      2.000000
  0.090076  0.078013  0.000000      2.000000
 -0.090073 -0.026007  0.000000      2.000000
 -0.067555 -0.013005  0.000000      2.000000
 -0.045036 -0.000002  0.000000      2.000000
 -0.022517  0.013000  0.000000      2.000000
  0.000002  0.052006  0.000000      2.000000
  0.022521  0.065008  0.000000      2.000000
  0.045040  0.078011  0.000000      2.000000
  0.067558  0.091013  0.000000      2.000000
  0.090077  0.104016  0.000000      2.000000
 -0.090072 -0.000004  0.000000      2.000000
 -0.067554  0.012998  0.000000      2.000000
 -0.045035  0.026001  0.000000      2.000000
 -0.022516  0.039003  0.000000      2.000000
  0.000004  0.078009  0.000000      2.000000
  0.022522  0.091011  0.000000      2.000000
  0.045041  0.104014  0.000000      2.000000
  0.067559  0.117016  0.000000      2.000000
  0.090078  0.130019  0.000000      2.000000
 -0.090071  0.025999  0.000000      2.000000
 -0.067552  0.039001  0.000000      2.000000
 -0.045034  0.052004  0.000000      2.000000
 -0.022515  0.065006  0.000000      2.000000
  0.000005  0.104012  0.000000      2.000000
  0.022523  0.117014  0.000000      2.000000
  0.045042  0.130017  0.000000      2.000000
  0.067561  0.143019  0.000000      2.000000
  0.090079  0.156022  0.000000      2.000000
 -0.090070  0.052002  0.000000      2.000000
 -0.067551  0.065004  0.000000      2.000000
 -0.045033  0.078007  0.000000      2.000000
 -0.022514  0.091009  0.000000      2.000000
  0.000000  0.000000  0.021865      2.000000
  0.022519  0.013002  0.021865      2.000000
  0.045037  0.026005  0.021865      2.000000
  0.067556  0.039007  0.021865      2.000000
  0.090075  0.052010  0.021865      2.000000
 -0.090075 -0.052010  0.021865      2.000000
 -0.067556 -0.039007  0.021865      2.000000
 -0.045037 -0.026005  0.021865      2.000000
 -0.022519 -0.013002  0.021865      2.000000
  0.000001  0.026003  0.021865      2.000000
  0.022520  0.039005  0.021865      2.000000
  0.045038  0.052008  0.021865      2.000000
  0.067557  0.065010  0.021865      2.000000
  0.090076  0.078013  0.021865      2.000000
 -0.090073 -0.026007  0.021865      2.000000
 -0.067555 -0.013005  0.021865      2.000000
 -0.045036 -0.000002  0.021865      2.000000
 -0.022517  0.013000  0.021865      2.000000
  0.000002  0.052006  0.021865      2.000000
  0.022521  0.065008  0.021865      2.000000
  0.045040  0.078011  0.021865      2.000000
  0.067558  0.091013  0.021865      2.000000
  0.090077  0.104016  0.021865      2.000000
 -0.090072 -0.000004  0.021865      2.000000
 -0.067554  0.012998  0.021865      2.000000
 -0.045035  0.026001  0.021865      2.000000
 -0.022516  0.039003  0.021865      2.000000
  0.000004  0.078009  0.021865      2.000000
  0.022522  0.091011  0.021865      2.000000
  0.045041  0.104014  0.021865      2.000000
  0.067559  0.117016  0.021865      2.000000
  0.090078  0.130019  0.021865      2.000000
 -0.090071  0.025999  0.021865      2.000000
 -0.067552  0.039001  0.021865      2.000000
 -0.045034  0.052004  0.021865      2.000000
 -0.022515  0.065006  0.021865      2.000000
  0.000005  0.104012  0.021865      2.000000
  0.022523  0.117014  0.021865      2.000000
  0.045042  0.130017  0.021865      2.000000
  0.067561  0.143019  0.021865      2.000000
  0.090079  0.156022  0.021865      2.000000
 -0.090070  0.052002  0.021865      2.000000
 -0.067551  0.065004  0.021865      2.000000
 -0.045033  0.078007  0.021865      2.000000
 -0.022514  0.091009  0.021865      2.000000
 -0.000005 -0.104012  0.021865      2.000000
  0.022514 -0.091009  0.021865      2.000000
  0.045033 -0.078007  0.021865      2.000000
  0.067551 -0.065004  0.021865      2.000000
  0.090070 -0.052002  0.021865      2.000000
 -0.090079 -0.156022  0.021865      2.000000
 -0.067561 -0.143019  0.021865      2.000000
 -0.045042 -0.130017  0.021865      2.000000
 -0.022523 -0.117014  0.021865      2.000000
 -0.000004 -0.078009  0.021865      2.000000
  0.022515 -0.065006  0.021865      2.000000
  0.045034 -0.052004  0.021865      2.000000
  0.067552 -0.039001  0.021865      2.000000
  0.090071 -0.025999  0.021865      2.000000
 -0.090078 -0.130019  0.021865      2.000000
 -0.067559 -0.117016  0.021865      2.000000
 -0.045041 -0.104014  0.021865      2.000000
 -0.022522 -0.091011  0.021865      2.000000
 -0.000002 -0.052006  0.021865      2.000000
  0.022516 -0.039003  0.021865      2.000000
  0.045035 -0.026001  0.021865      2.000000
  0.067554 -0.012998  0.021865      2.000000
  0.090072  0.000004  0.021865      2.000000
 -0.090077 -0.104016  0.021865      2.000000
 -0.067558 -0.091013  0.021865      2.000000
 -0.045040 -0.078011  0.021865      2.000000
 -0.022521 -0.065008  0.021865      2.000000
 -0.000001 -0.026003  0.021865      2.000000
  0.022517 -0.013000  0.021865      2.000000
  0.045036  0.000002  0.021865      2.000000
  0.067555  0.013005  0.021865      2.000000
  0.090073  0.026007  0.021865      2.000000
 -0.090076 -0.078013  0.021865      2.000000
 -0.067557 -0.065010  0.021865      2.000000
 -0.045038 -0.052008  0.021865      2.000000
 -0.022520 -0.039005  0.021865      2.000000
  0.000000  0.000000  0.043730      1.000000
  0.022519  0.013002  0.043730      2.000000
  0.045037  0.026005  0.043730      2.000000
  0.067556  0.039007  0.043730      2.000000
  0.090075  0.052010  0.043730      2.000000
  0.000001  0.026003  0.043730      2.000000
  0.022520  0.039005  0.043730      2.000000
  0.045038  0.052008  0.043730      2.000000
  0.067557  0.065010  0.043730      2.000000
  0.090076  0.078013  0.043730      2.000000
 -0.090073 -0.026007  0.043730      2.000000
 -0.067555 -0.013005  0.043730      2.000000
 -0.045036 -0.000002  0.043730      2.000000
 -0.022517  0.013000  0.043730      2.000000
  0.000002  0.052006  0.043730      2.000000
  0.022521  0.065008  0.043730      2.000000
  0.045040  0.078011  0.043730      2.000000
  0.067558  0.091013  0.043730      2.000000
  0.090077  0.104016  0.043730      2.000000
 -0.090072 -0.000004  0.043730      2.000000
 -0.067554  0.012998  0.043730      2.000000
 -0.045035  0.026001  0.043730      2.000000
 -0.022516  0.039003  0.043730      2.000000
  0.000004  0.078009  0.043730      2.000000
  0.022522  0.091011  0.043730      2.000000
  0.045041  0.104014  0.043730      2.000000
  0.067559  0.117016  0.043730      2.000000
  0.090078  0.130019  0.043730      2.000000
 -0.090071  0.025999  0.043730      2.000000
 -0.067552  0.039001  0.043730      2.000000
 -0.045034  0.052004  0.043730      2.000000
 -0.022515  0.065006  0.043730      2.000000
  0.000005  0.104012  0.043730      2.000000
  0.022523  0.117014  0.043730      2.000000
  0.045042  0.130017  0.043730      2.000000
  0.067561  0.143019  0.043730      2.000000
  0.090079  0.156022  0.043730      2.000000
 -0.090070  0.052002  0.043730      2.000000
 -0.067551  0.065004  0.043730      2.000000
 -0.045033  0.078007  0.043730      2.000000
 -0.022514  0.091009  0.043730      2.000000
 
 TETIRR: Found    970 inequivalent tetrahedra from     1944


--------------------------------------------------------------------------------------------------------




 Dimension of arrays:
   k-points           NKPTS =    163   k-points in BZ     NKDIM =    163   number of bands    NBANDS=     84
   number of dos      NEDOS =    301   number of ions     NIONS =     32
   non local maximal  LDIM  =      4   non local SUM 2l+1 LMDIM =      8
   total plane-waves  NPLWV = 153600
   max r-space proj   IRMAX =      1   max aug-charges    IRDMAX=   7718
   dimension x,y,z NGX =    40 NGY =   40 NGZ =   96
   dimension x,y,z NGXF=    80 NGYF=   80 NGZF=  192
   support grid    NGXF=    80 NGYF=   80 NGZF=  192
   ions per type =              32
 NGX,Y,Z   is equivalent  to a cutoff of  13.48, 13.48, 13.96 a.u.
 NGXF,Y,Z  is equivalent  to a cutoff of  26.95, 26.95, 27.92 a.u.


 I would recommend the setting:
   dimension x,y,z NGX =    39 NGY =   39 NGZ =   91
 SYSTEM =  graphite                                
 POSCAR =  C                                       

 Startparameter for this run:
   NWRITE =      2    write-flag & timer
   PREC   = accura    normal or accurate (medium, high low for compatibility)
   ISTART =      0    job   : 0-new  1-cont  2-samecut
   ICHARG =      2    charge: 1-file 2-atom 10-const
   ISPIN  =      1    spin polarized calculation?
   LNONCOLLINEAR =      F non collinear calculations
   LSORBIT =      F    spin-orbit coupling
   INIWAV =      1    electr: 0-lowe 1-rand  2-diag
   LASPH  =      F    aspherical Exc in radial PAW
   METAGGA=      F    non-selfconsistent MetaGGA calc.

 Electronic Relaxation 1
   ENCUT  =  600.0 eV  44.10 Ry    6.64 a.u.   9.86  9.86 22.84*2*pi/ulx,y,z
   ENINI  =  600.0     initial cutoff
   ENAUG  =  644.9 eV  augmentation charge cutoff
   NELM   =    200;   NELMIN=  2; NELMDL=  0     # of ELM steps 
   EDIFF  = 0.1E-05   stopping-criterion for ELM
   LREAL  =      F    real-space projection
   NLSPLINE    = F    spline interpolate recip. space projectors
   LCOMPAT=      F    compatible to vasp.4.4
   GGA_COMPAT  = T    GGA compatible to vasp.4.4-vasp.4.6
   LMAXPAW     = -100 max onsite density
   LMAXMIX     =    2 max onsite mixed and CHGCAR
   VOSKOWN=      0    Vosko Wilk Nusair interpolation
   ROPT   =    0.00000
 Ionic relaxation
   EDIFFG = 0.1E-02   stopping-criterion for IOM
   NSW    =      0    number of steps for IOM
   NBLOCK =      1;   KBLOCK =      1    inner block; outer block 
   IBRION =     -1    ionic relax: 0-MD 1-quasi-New 2-CG
   NFREE  =      0    steps in history (QN), initial steepest desc. (CG)
   ISIF   =      2    stress and relaxation
   IWAVPR =     10    prediction:  0-non 1-charg 2-wave 3-comb
   ISYM   =      2    0-nonsym 1-usesym 2-fastsym
   LCORR  =      T    Harris-Foulkes like correction to forces

   POTIM  = 0.5000    time-step for ionic-motion
   TEIN   =    0.0    initial temperature
   TEBEG  =    0.0;   TEEND  =   0.0 temperature during run
   SMASS  =  -3.00    Nose mass-parameter (am)
   estimated Nose-frequenzy (Omega)   =  0.10E-29 period in steps =****** mass=  -0.556E-27a.u.
   SCALEE = 1.0000    scale energy and forces
   NPACO  =    256;   APACO  = 16.0  distance and # of slots for P.C.
   PSTRESS=    0.0 pullay stress

  Mass of Ions in am
   POMASS =  12.01
  Ionic Valenz
   ZVAL   =   4.00
  Atomic Wigner-Seitz radii
   RWIGS  =  -1.00
  virtual crystal weights 
   VCA    =   1.00
   NELECT =     128.0000    total number of electrons
   NUPDOWN=      -1.0000    fix difference up-down

 DOS related values:
   EMIN   =  10.00;   EMAX   =-10.00  energy-range for DOS
   EFERMI =   0.00
   ISMEAR =    -5;   SIGMA  =   0.20  broadening in eV -4-tet -1-fermi 0-gaus

 Electronic relaxation 2 (details)
   IALGO  =     38    algorithm
   LDIAG  =      T    sub-space diagonalisation (order eigenvalues)
   LSUBROT=      F    optimize rotation matrix (better conditioning)
   TURBO    =      0    0=normal 1=particle mesh
   IRESTART =      0    0=no restart 2=restart with 2 vectors
   NREBOOT  =      0    no. of reboots
   NMIN     =      0    reboot dimension
   EREF     =   0.00    reference energy to select bands
   IMIX   =      4    mixing-type and parameters
     AMIX     =   0.40;   BMIX     =  1.00
     AMIX_MAG =   1.60;   BMIX_MAG =  1.00
     AMIN     =   0.10
     WC   =   100.;   INIMIX=   1;  MIXPRE=   1;  MAXMIX= -45

 Intra band minimization:
   WEIMIN = 0.0000     energy-eigenvalue tresh-hold
   EBREAK =  0.30E-08  absolut break condition
   DEPER  =   0.30     relativ break condition  

   TIME   =   0.40     timestep for ELM

  volume/ion in A,a.u.               =       7.53        50.84
  Fermi-wavevector in a.u.,A,eV,Ry     =   1.325648  2.505111 23.910084  1.757342
  Thomas-Fermi vector in A             =   2.455093
 
 Write flags
   LWAVE  =      F    write WAVECAR
   LCHARG =      F    write CHGCAR
   LVTOT  =      F    write LOCPOT, total local potential
   LVHAR  =      F    write LOCPOT, Hartree potential only
   LELF   =      F    write electronic localiz. function (ELF)
   LORBIT =      0    0 simple, 1 ext, 2 COOP (PROOUT)


 Dipole corrections
   LMONO  =      F    monopole corrections only (constant potential shift)
   LDIPOL =      F    correct potential (dipole corrections)
   IDIPOL =      0    1-x, 2-y, 3-z, 4-all directions 
   EPSILON=  1.0000000 bulk dielectric constant

 Exchange correlation treatment:
   GGA     =    PE    GGA type
   LEXCH   =     8    internal setting for exchange type
   VOSKOWN=      0    Vosko Wilk Nusair interpolation
   LHFCALC =     F    Hartree Fock is set to
   LHFONE  =     F    Hartree Fock one center treatment
   AEXX    =    0.0000 exact exchange contribution

 Linear response parameters
   LEPSILON=     F    determine dielectric tensor
   LRPA    =     F    only Hartree local field effects (RPA)
   LNABLA  =     F    use nabla operator in PAW spheres
   LVEL    =     F    velocity operator in full k-point grid
   LINTERFAST=   F  fast interpolation
   KINTER  =     0    interpolate to denser k-point grid
   CSHIFT  =0.1000    complex shift for real part using Kramers Kronig
   OMEGAMAX=  -1.0    maximum frequency
   DEG_THRESHOLD= 0.2000000E-02 threshold for treating states as degnerate
   RTIME   =    0.100 relaxation time in fs

 Orbital magnetization related:
   ORBITALMAG=     F  switch on orbital magnetization
   LCHIMAG   =     F  perturbation theory with respect to B field
   DQ        =  0.001000  dq finite difference perturbation B field



--------------------------------------------------------------------------------------------------------


 Static calculation
 charge density and potential will be updated during run
 non-spin polarized calculation
 Variant of blocked Davidson
 Davidson routine will perform the subspace rotation
 perform sub-space diagonalisation
    after iterative eigenvector-optimisation
 modified Broyden-mixing scheme, WC =      100.0
 initial mixing is a Kerker type mixing with AMIX =  0.4000 and BMIX =      1.0000
 Hartree-type preconditioning will be used
 using additional bands           20
 reciprocal scheme for non local part
 calculate Harris-corrections to forces 
   (improved forces if not selfconsistent)
 use gradient corrections 
 use of overlap-Matrix (Vanderbilt PP)
 Fermi weights with tetrahedron method with Bloechl corrections


--------------------------------------------------------------------------------------------------------


  energy-cutoff  :      600.00
  volume of cell :      241.07
      direct lattice vectors                 reciprocal lattice vectors
     4.934310885 -0.000222400  0.000000000     0.202667819  0.117022500  0.000000000
    -2.467348046  4.273127376  0.000000000     0.000010548  0.234026730  0.000000000
     0.000000000  0.000000000 11.433761932     0.000000000  0.000000000  0.087460278

  length of vectors
     4.934310890  4.934310890 11.433761932     0.234026730  0.234026730  0.087460278


 
 k-points in units of 2pi/SCALE and weight: B4C B11C-CBC                            
   0.00000000  0.00000000  0.00000000       0.003
   0.02251865  0.01300250  0.00000000       0.006
   0.04503729  0.02600500  0.00000000       0.006
   0.06755594  0.03900750  0.00000000       0.006
   0.09007459  0.05201000  0.00000000       0.006
   0.00000117  0.02600297  0.00000000       0.006
   0.02251982  0.03900547  0.00000000       0.006
   0.04503847  0.05200797  0.00000000       0.006
   0.06755711  0.06501047  0.00000000       0.006
   0.09007576  0.07801297  0.00000000       0.006
  -0.09007341 -0.02600703  0.00000000       0.006
  -0.06755477 -0.01300453  0.00000000       0.006
  -0.04503612 -0.00000203  0.00000000       0.006
  -0.02251747  0.01300047  0.00000000       0.006
   0.00000234  0.05200594  0.00000000       0.006
   0.02252099  0.06500844  0.00000000       0.006
   0.04503964  0.07801094  0.00000000       0.006
   0.06755828  0.09101344  0.00000000       0.006
   0.09007693  0.10401594  0.00000000       0.006
  -0.09007224 -0.00000406  0.00000000       0.006
  -0.06755360  0.01299844  0.00000000       0.006
  -0.04503495  0.02600094  0.00000000       0.006
  -0.02251630  0.03900344  0.00000000       0.006
   0.00000352  0.07800891  0.00000000       0.006
   0.02252216  0.09101141  0.00000000       0.006
   0.04504081  0.10401391  0.00000000       0.006
   0.06755946  0.11701641  0.00000000       0.006
   0.09007810  0.13001891  0.00000000       0.006
  -0.09007107  0.02599891  0.00000000       0.006
  -0.06755242  0.03900141  0.00000000       0.006
  -0.04503378  0.05200391  0.00000000       0.006
  -0.02251513  0.06500641  0.00000000       0.006
   0.00000469  0.10401188  0.00000000       0.006
   0.02252333  0.11701438  0.00000000       0.006
   0.04504198  0.13001688  0.00000000       0.006
   0.06756063  0.14301938  0.00000000       0.006
   0.09007927  0.15602188  0.00000000       0.006
  -0.09006990  0.05200188  0.00000000       0.006
  -0.06755125  0.06500438  0.00000000       0.006
  -0.04503261  0.07800688  0.00000000       0.006
  -0.02251396  0.09100938  0.00000000       0.006
   0.00000000  0.00000000  0.02186507       0.006
   0.02251865  0.01300250  0.02186507       0.006
   0.04503729  0.02600500  0.02186507       0.006
   0.06755594  0.03900750  0.02186507       0.006
   0.09007459  0.05201000  0.02186507       0.006
  -0.09007459 -0.05201000  0.02186507       0.006
  -0.06755594 -0.03900750  0.02186507       0.006
  -0.04503729 -0.02600500  0.02186507       0.006
  -0.02251865 -0.01300250  0.02186507       0.006
   0.00000117  0.02600297  0.02186507       0.006
   0.02251982  0.03900547  0.02186507       0.006
   0.04503847  0.05200797  0.02186507       0.006
   0.06755711  0.06501047  0.02186507       0.006
   0.09007576  0.07801297  0.02186507       0.006
  -0.09007341 -0.02600703  0.02186507       0.006
  -0.06755477 -0.01300453  0.02186507       0.006
  -0.04503612 -0.00000203  0.02186507       0.006
  -0.02251747  0.01300047  0.02186507       0.006
   0.00000234  0.05200594  0.02186507       0.006
   0.02252099  0.06500844  0.02186507       0.006
   0.04503964  0.07801094  0.02186507       0.006
   0.06755828  0.09101344  0.02186507       0.006
   0.09007693  0.10401594  0.02186507       0.006
  -0.09007224 -0.00000406  0.02186507       0.006
  -0.06755360  0.01299844  0.02186507       0.006
  -0.04503495  0.02600094  0.02186507       0.006
  -0.02251630  0.03900344  0.02186507       0.006
   0.00000352  0.07800891  0.02186507       0.006
   0.02252216  0.09101141  0.02186507       0.006
   0.04504081  0.10401391  0.02186507       0.006
   0.06755946  0.11701641  0.02186507       0.006
   0.09007810  0.13001891  0.02186507       0.006
  -0.09007107  0.02599891  0.02186507       0.006
  -0.06755242  0.03900141  0.02186507       0.006
  -0.04503378  0.05200391  0.02186507       0.006
  -0.02251513  0.06500641  0.02186507       0.006
   0.00000469  0.10401188  0.02186507       0.006
   0.02252333  0.11701438  0.02186507       0.006
   0.04504198  0.13001688  0.02186507       0.006
   0.06756063  0.14301938  0.02186507       0.006
   0.09007927  0.15602188  0.02186507       0.006
  -0.09006990  0.05200188  0.02186507       0.006
  -0.06755125  0.06500438  0.02186507       0.006
  -0.04503261  0.07800688  0.02186507       0.006
  -0.02251396  0.09100938  0.02186507       0.006
  -0.00000469 -0.10401188  0.02186507       0.006
   0.02251396 -0.09100938  0.02186507       0.006
   0.04503261 -0.07800688  0.02186507       0.006
   0.06755125 -0.06500438  0.02186507       0.006
   0.09006990 -0.05200188  0.02186507       0.006
  -0.09007927 -0.15602188  0.02186507       0.006
  -0.06756063 -0.14301938  0.02186507       0.006
  -0.04504198 -0.13001688  0.02186507       0.006
  -0.02252333 -0.11701438  0.02186507       0.006
  -0.00000352 -0.07800891  0.02186507       0.006
   0.02251513 -0.06500641  0.02186507       0.006
   0.04503378 -0.05200391  0.02186507       0.006
   0.06755242 -0.03900141  0.02186507       0.006
   0.09007107 -0.02599891  0.02186507       0.006
  -0.09007810 -0.13001891  0.02186507       0.006
  -0.06755946 -0.11701641  0.02186507       0.006
  -0.04504081 -0.10401391  0.02186507       0.006
  -0.02252216 -0.09101141  0.02186507       0.006
  -0.00000234 -0.05200594  0.02186507       0.006
   0.02251630 -0.03900344  0.02186507       0.006
   0.04503495 -0.02600094  0.02186507       0.006
   0.06755360 -0.01299844  0.02186507       0.006
   0.09007224  0.00000406  0.02186507       0.006
  -0.09007693 -0.10401594  0.02186507       0.006
  -0.06755828 -0.09101344  0.02186507       0.006
  -0.04503964 -0.07801094  0.02186507       0.006
  -0.02252099 -0.06500844  0.02186507       0.006
  -0.00000117 -0.02600297  0.02186507       0.006
   0.02251747 -0.01300047  0.02186507       0.006
   0.04503612  0.00000203  0.02186507       0.006
   0.06755477  0.01300453  0.02186507       0.006
   0.09007341  0.02600703  0.02186507       0.006
  -0.09007576 -0.07801297  0.02186507       0.006
  -0.06755711 -0.06501047  0.02186507       0.006
  -0.04503847 -0.05200797  0.02186507       0.006
  -0.02251982 -0.03900547  0.02186507       0.006
   0.00000000  0.00000000  0.04373014       0.003
   0.02251865  0.01300250  0.04373014       0.006
   0.04503729  0.02600500  0.04373014       0.006
   0.06755594  0.03900750  0.04373014       0.006
   0.09007459  0.05201000  0.04373014       0.006
   0.00000117  0.02600297  0.04373014       0.006
   0.02251982  0.03900547  0.04373014       0.006
   0.04503847  0.05200797  0.04373014       0.006
   0.06755711  0.06501047  0.04373014       0.006
   0.09007576  0.07801297  0.04373014       0.006
  -0.09007341 -0.02600703  0.04373014       0.006
  -0.06755477 -0.01300453  0.04373014       0.006
  -0.04503612 -0.00000203  0.04373014       0.006
  -0.02251747  0.01300047  0.04373014       0.006
   0.00000234  0.05200594  0.04373014       0.006
   0.02252099  0.06500844  0.04373014       0.006
   0.04503964  0.07801094  0.04373014       0.006
   0.06755828  0.09101344  0.04373014       0.006
   0.09007693  0.10401594  0.04373014       0.006
  -0.09007224 -0.00000406  0.04373014       0.006
  -0.06755360  0.01299844  0.04373014       0.006
  -0.04503495  0.02600094  0.04373014       0.006
  -0.02251630  0.03900344  0.04373014       0.006
   0.00000352  0.07800891  0.04373014       0.006
   0.02252216  0.09101141  0.04373014       0.006
   0.04504081  0.10401391  0.04373014       0.006
   0.06755946  0.11701641  0.04373014       0.006
   0.09007810  0.13001891  0.04373014       0.006
  -0.09007107  0.02599891  0.04373014       0.006
  -0.06755242  0.03900141  0.04373014       0.006
  -0.04503378  0.05200391  0.04373014       0.006
  -0.02251513  0.06500641  0.04373014       0.006
   0.00000469  0.10401188  0.04373014       0.006
   0.02252333  0.11701438  0.04373014       0.006
   0.04504198  0.13001688  0.04373014       0.006
   0.06756063  0.14301938  0.04373014       0.006
   0.09007927  0.15602188  0.04373014       0.006
  -0.09006990  0.05200188  0.04373014       0.006
  -0.06755125  0.06500438  0.04373014       0.006
  -0.04503261  0.07800688  0.04373014       0.006
  -0.02251396  0.09100938  0.04373014       0.006
 
 k-points in reciprocal lattice and weights: B4C B11C-CBC                            
   0.00000000  0.00000000  0.00000000       0.003
   0.11111111  0.00000000  0.00000000       0.006
   0.22222222  0.00000000  0.00000000       0.006
   0.33333333  0.00000000  0.00000000       0.006
   0.44444444  0.00000000  0.00000000       0.006
  -0.00000000  0.11111111  0.00000000       0.006
   0.11111111  0.11111111  0.00000000       0.006
   0.22222222  0.11111111  0.00000000       0.006
   0.33333333  0.11111111  0.00000000       0.006
   0.44444444  0.11111111  0.00000000       0.006
  -0.44444444  0.11111111  0.00000000       0.006
  -0.33333333  0.11111111  0.00000000       0.006
  -0.22222222  0.11111111  0.00000000       0.006
  -0.11111111  0.11111111  0.00000000       0.006
  -0.00000000  0.22222222  0.00000000       0.006
   0.11111111  0.22222222  0.00000000       0.006
   0.22222222  0.22222222  0.00000000       0.006
   0.33333333  0.22222222  0.00000000       0.006
   0.44444444  0.22222222  0.00000000       0.006
  -0.44444444  0.22222222  0.00000000       0.006
  -0.33333333  0.22222222  0.00000000       0.006
  -0.22222222  0.22222222  0.00000000       0.006
  -0.11111111  0.22222222  0.00000000       0.006
  -0.00000000  0.33333333  0.00000000       0.006
   0.11111111  0.33333333  0.00000000       0.006
   0.22222222  0.33333333  0.00000000       0.006
   0.33333333  0.33333333  0.00000000       0.006
   0.44444444  0.33333333  0.00000000       0.006
  -0.44444444  0.33333333  0.00000000       0.006
  -0.33333333  0.33333333  0.00000000       0.006
  -0.22222222  0.33333333  0.00000000       0.006
  -0.11111111  0.33333333  0.00000000       0.006
  -0.00000000  0.44444444  0.00000000       0.006
   0.11111111  0.44444444  0.00000000       0.006
   0.22222222  0.44444444  0.00000000       0.006
   0.33333333  0.44444444  0.00000000       0.006
   0.44444444  0.44444444  0.00000000       0.006
  -0.44444444  0.44444444  0.00000000       0.006
  -0.33333333  0.44444444  0.00000000       0.006
  -0.22222222  0.44444444  0.00000000       0.006
  -0.11111111  0.44444444  0.00000000       0.006
   0.00000000  0.00000000  0.25000000       0.006
   0.11111111  0.00000000  0.25000000       0.006
   0.22222222  0.00000000  0.25000000       0.006
   0.33333333  0.00000000  0.25000000       0.006
   0.44444444  0.00000000  0.25000000       0.006
  -0.44444444 -0.00000000  0.25000000       0.006
  -0.33333333 -0.00000000  0.25000000       0.006
  -0.22222222 -0.00000000  0.25000000       0.006
  -0.11111111 -0.00000000  0.25000000       0.006
  -0.00000000  0.11111111  0.25000000       0.006
   0.11111111  0.11111111  0.25000000       0.006
   0.22222222  0.11111111  0.25000000       0.006
   0.33333333  0.11111111  0.25000000       0.006
   0.44444444  0.11111111  0.25000000       0.006
  -0.44444444  0.11111111  0.25000000       0.006
  -0.33333333  0.11111111  0.25000000       0.006
  -0.22222222  0.11111111  0.25000000       0.006
  -0.11111111  0.11111111  0.25000000       0.006
  -0.00000000  0.22222222  0.25000000       0.006
   0.11111111  0.22222222  0.25000000       0.006
   0.22222222  0.22222222  0.25000000       0.006
   0.33333333  0.22222222  0.25000000       0.006
   0.44444444  0.22222222  0.25000000       0.006
  -0.44444444  0.22222222  0.25000000       0.006
  -0.33333333  0.22222222  0.25000000       0.006
  -0.22222222  0.22222222  0.25000000       0.006
  -0.11111111  0.22222222  0.25000000       0.006
  -0.00000000  0.33333333  0.25000000       0.006
   0.11111111  0.33333333  0.25000000       0.006
   0.22222222  0.33333333  0.25000000       0.006
   0.33333333  0.33333333  0.25000000       0.006
   0.44444444  0.33333333  0.25000000       0.006
  -0.44444444  0.33333333  0.25000000       0.006
  -0.33333333  0.33333333  0.25000000       0.006
  -0.22222222  0.33333333  0.25000000       0.006
  -0.11111111  0.33333333  0.25000000       0.006
  -0.00000000  0.44444444  0.25000000       0.006
   0.11111111  0.44444444  0.25000000       0.006
   0.22222222  0.44444444  0.25000000       0.006
   0.33333333  0.44444444  0.25000000       0.006
   0.44444444  0.44444444  0.25000000       0.006
  -0.44444444  0.44444444  0.25000000       0.006
  -0.33333333  0.44444444  0.25000000       0.006
  -0.22222222  0.44444444  0.25000000       0.006
  -0.11111111  0.44444444  0.25000000       0.006
   0.00000000 -0.44444444  0.25000000       0.006
   0.11111111 -0.44444444  0.25000000       0.006
   0.22222222 -0.44444444  0.25000000       0.006
   0.33333333 -0.44444444  0.25000000       0.006
   0.44444444 -0.44444444  0.25000000       0.006
  -0.44444444 -0.44444444  0.25000000       0.006
  -0.33333333 -0.44444444  0.25000000       0.006
  -0.22222222 -0.44444444  0.25000000       0.006
  -0.11111111 -0.44444444  0.25000000       0.006
   0.00000000 -0.33333333  0.25000000       0.006
   0.11111111 -0.33333333  0.25000000       0.006
   0.22222222 -0.33333333  0.25000000       0.006
   0.33333333 -0.33333333  0.25000000       0.006
   0.44444444 -0.33333333  0.25000000       0.006
  -0.44444444 -0.33333333  0.25000000       0.006
  -0.33333333 -0.33333333  0.25000000       0.006
  -0.22222222 -0.33333333  0.25000000       0.006
  -0.11111111 -0.33333333  0.25000000       0.006
   0.00000000 -0.22222222  0.25000000       0.006
   0.11111111 -0.22222222  0.25000000       0.006
   0.22222222 -0.22222222  0.25000000       0.006
   0.33333333 -0.22222222  0.25000000       0.006
   0.44444444 -0.22222222  0.25000000       0.006
  -0.44444444 -0.22222222  0.25000000       0.006
  -0.33333333 -0.22222222  0.25000000       0.006
  -0.22222222 -0.22222222  0.25000000       0.006
  -0.11111111 -0.22222222  0.25000000       0.006
   0.00000000 -0.11111111  0.25000000       0.006
   0.11111111 -0.11111111  0.25000000       0.006
   0.22222222 -0.11111111  0.25000000       0.006
   0.33333333 -0.11111111  0.25000000       0.006
   0.44444444 -0.11111111  0.25000000       0.006
  -0.44444444 -0.11111111  0.25000000       0.006
  -0.33333333 -0.11111111  0.25000000       0.006
  -0.22222222 -0.11111111  0.25000000       0.006
  -0.11111111 -0.11111111  0.25000000       0.006
   0.00000000  0.00000000  0.50000000       0.003
   0.11111111  0.00000000  0.50000000       0.006
   0.22222222  0.00000000  0.50000000       0.006
   0.33333333  0.00000000  0.50000000       0.006
   0.44444444  0.00000000  0.50000000       0.006
  -0.00000000  0.11111111  0.50000000       0.006
   0.11111111  0.11111111  0.50000000       0.006
   0.22222222  0.11111111  0.50000000       0.006
   0.33333333  0.11111111  0.50000000       0.006
   0.44444444  0.11111111  0.50000000       0.006
  -0.44444444  0.11111111  0.50000000       0.006
  -0.33333333  0.11111111  0.50000000       0.006
  -0.22222222  0.11111111  0.50000000       0.006
  -0.11111111  0.11111111  0.50000000       0.006
  -0.00000000  0.22222222  0.50000000       0.006
   0.11111111  0.22222222  0.50000000       0.006
   0.22222222  0.22222222  0.50000000       0.006
   0.33333333  0.22222222  0.50000000       0.006
   0.44444444  0.22222222  0.50000000       0.006
  -0.44444444  0.22222222  0.50000000       0.006
  -0.33333333  0.22222222  0.50000000       0.006
  -0.22222222  0.22222222  0.50000000       0.006
  -0.11111111  0.22222222  0.50000000       0.006
  -0.00000000  0.33333333  0.50000000       0.006
   0.11111111  0.33333333  0.50000000       0.006
   0.22222222  0.33333333  0.50000000       0.006
   0.33333333  0.33333333  0.50000000       0.006
   0.44444444  0.33333333  0.50000000       0.006
  -0.44444444  0.33333333  0.50000000       0.006
  -0.33333333  0.33333333  0.50000000       0.006
  -0.22222222  0.33333333  0.50000000       0.006
  -0.11111111  0.33333333  0.50000000       0.006
  -0.00000000  0.44444444  0.50000000       0.006
   0.11111111  0.44444444  0.50000000       0.006
   0.22222222  0.44444444  0.50000000       0.006
   0.33333333  0.44444444  0.50000000       0.006
   0.44444444  0.44444444  0.50000000       0.006
  -0.44444444  0.44444444  0.50000000       0.006
  -0.33333333  0.44444444  0.50000000       0.006
  -0.22222222  0.44444444  0.50000000       0.006
  -0.11111111  0.44444444  0.50000000       0.006
 
 position of ions in fractional coordinates (direct lattice) 
   0.49999985  0.00000017  0.12500000
   0.99999985  0.00000017  0.12500000
   0.49999985  0.50000017  0.12500000
   0.99999985  0.50000017  0.12500000
   0.49999985  0.00000017  0.62500000
   0.99999985  0.00000017  0.62500000
   0.49999985  0.50000017  0.62500000
   0.99999985  0.50000017  0.62500000
   0.00000017  0.49999985  0.37500000
   0.50000017  0.49999985  0.37500000
   0.00000017  0.99999985  0.37500000
   0.50000017  0.99999985  0.37500000
   0.00000017  0.49999985  0.87500000
   0.50000017  0.49999985  0.87500000
   0.00000017  0.99999985  0.87500000
   0.50000017  0.99999985  0.87500000
   0.16584645  0.33335053  0.12419698
   0.66664946  0.33335053  0.12500000
   0.16664946  0.83335053  0.12500000
   0.66664946  0.83335053  0.12500000
   0.16664946  0.33335053  0.62500000
   0.66664946  0.33335053  0.62500000
   0.16664946  0.83335053  0.62500000
   0.66664946  0.83335053  0.62500000
   0.33335053  0.16664946  0.37500000
   0.83335053  0.16664946  0.37500000
   0.33335053  0.66664946  0.37500000
   0.83335053  0.66664946  0.37500000
   0.33335053  0.16664946  0.87500000
   0.83335053  0.16664946  0.87500000
   0.33335053  0.66664946  0.87500000
   0.83335053  0.66664946  0.87500000
 
 position of ions in cartesian coordinates  (Angst):
   2.46715426 -0.00011045  1.42922024
   4.93430971 -0.00022165  1.42922024
   1.23348024  2.13645323  1.42922024
   3.70063568  2.13634203  1.42922024
   2.46715426 -0.00011045  7.14610121
   4.93430971 -0.00022165  7.14610121
   1.23348024  2.13645323  7.14610121
   3.70063568  2.13634203  7.14610121
  -1.23367279  2.13656304  4.28766072
   1.23348265  2.13645184  4.28766072
  -2.46734681  4.27312673  4.28766072
  -0.00019137  4.27301553  4.28766072
  -1.23367279  2.13656304 10.00454169
   1.23348265  2.13645184 10.00454169
  -2.46734681  4.27312673 10.00454169
  -0.00019137  4.27301553 10.00454169
  -0.00415383  1.42441238  1.42003874
   2.46696394  1.42430100  1.42922024
  -1.23386552  3.56097589  1.42922024
   1.23328992  3.56086469  1.42922024
  -0.00019150  1.42441220  7.14610121
   2.46696394  1.42430100  7.14610121
  -1.23386552  3.56097589  7.14610121
   1.23328992  3.56086469  7.14610121
   1.23367290  0.71204025  4.28766072
   3.70082834  0.71192905  4.28766072
  -0.00000112  2.84860394  4.28766072
   2.46715432  2.84849274  4.28766072
   1.23367290  0.71204025 10.00454169
   3.70082834  0.71192905 10.00454169
  -0.00000112  2.84860394 10.00454169
   2.46715432  2.84849274 10.00454169
 


--------------------------------------------------------------------------------------------------------


 k-point  1 :   0.0000 0.0000 0.0000  plane waves:    8025
 k-point  2 :   0.1111 0.0000 0.0000  plane waves:    8019
 k-point  3 :   0.2222 0.0000 0.0000  plane waves:    8039
 k-point  4 :   0.3333 0.0000 0.0000  plane waves:    8059
 k-point  5 :   0.4444 0.0000 0.0000  plane waves:    8057
 k-point  6 :  -0.0000 0.1111 0.0000  plane waves:    8019
 k-point  7 :   0.1111 0.1111 0.0000  plane waves:    8010
 k-point  8 :   0.2222 0.1111 0.0000  plane waves:    8044
 k-point  9 :   0.3333 0.1111 0.0000  plane waves:    8048
 k-point 10 :   0.4444 0.1111 0.0000  plane waves:    8050
 k-point 11 :  -0.4444 0.1111 0.0000  plane waves:    8046
 k-point 12 :  -0.3333 0.1111 0.0000  plane waves:    8044
 k-point 13 :  -0.2222 0.1111 0.0000  plane waves:    8006
 k-point 14 :  -0.1111 0.1111 0.0000  plane waves:    8017
 k-point 15 :  -0.0000 0.2222 0.0000  plane waves:    8039
 k-point 16 :   0.1111 0.2222 0.0000  plane waves:    8044
 k-point 17 :   0.2222 0.2222 0.0000  plane waves:    8050
 k-point 18 :   0.3333 0.2222 0.0000  plane waves:    8058
 k-point 19 :   0.4444 0.2222 0.0000  plane waves:    8058
 k-point 20 :  -0.4444 0.2222 0.0000  plane waves:    8052
 k-point 21 :  -0.3333 0.2222 0.0000  plane waves:    8044
 k-point 22 :  -0.2222 0.2222 0.0000  plane waves:    8043
 k-point 23 :  -0.1111 0.2222 0.0000  plane waves:    8006
 k-point 24 :  -0.0000 0.3333 0.0000  plane waves:    8059
 k-point 25 :   0.1111 0.3333 0.0000  plane waves:    8048
 k-point 26 :   0.2222 0.3333 0.0000  plane waves:    8058
 k-point 27 :   0.3333 0.3333 0.0000  plane waves:    8064
 k-point 28 :   0.4444 0.3333 0.0000  plane waves:    8058
 k-point 29 :  -0.4444 0.3333 0.0000  plane waves:    8046
 k-point 30 :  -0.3333 0.3333 0.0000  plane waves:    8059
 k-point 31 :  -0.2222 0.3333 0.0000  plane waves:    8044
 k-point 32 :  -0.1111 0.3333 0.0000  plane waves:    8044
 k-point 33 :  -0.0000 0.4444 0.0000  plane waves:    8057
 k-point 34 :   0.1111 0.4444 0.0000  plane waves:    8050
 k-point 35 :   0.2222 0.4444 0.0000  plane waves:    8058
 k-point 36 :   0.3333 0.4444 0.0000  plane waves:    8058
 k-point 37 :   0.4444 0.4444 0.0000  plane waves:    8050
 k-point 38 :  -0.4444 0.4444 0.0000  plane waves:    8057
 k-point 39 :  -0.3333 0.4444 0.0000  plane waves:    8046
 k-point 40 :  -0.2222 0.4444 0.0000  plane waves:    8052
 k-point 41 :  -0.1111 0.4444 0.0000  plane waves:    8046
 k-point 42 :   0.0000 0.0000 0.2500  plane waves:    7972
 k-point 43 :   0.1111 0.0000 0.2500  plane waves:    8020
 k-point 44 :   0.2222 0.0000 0.2500  plane waves:    8044
 k-point 45 :   0.3333 0.0000 0.2500  plane waves:    8058
 k-point 46 :   0.4444 0.0000 0.2500  plane waves:    8063
 k-point 47 :  -0.4444-0.0000 0.2500  plane waves:    8063
 k-point 48 :  -0.3333-0.0000 0.2500  plane waves:    8058
 k-point 49 :  -0.2222-0.0000 0.2500  plane waves:    8044
 k-point 50 :  -0.1111-0.0000 0.2500  plane waves:    8020
 k-point 51 :  -0.0000 0.1111 0.2500  plane waves:    8020
 k-point 52 :   0.1111 0.1111 0.2500  plane waves:    8025
 k-point 53 :   0.2222 0.1111 0.2500  plane waves:    8048
 k-point 54 :   0.3333 0.1111 0.2500  plane waves:    8048
 k-point 55 :   0.4444 0.1111 0.2500  plane waves:    8072
 k-point 56 :  -0.4444 0.1111 0.2500  plane waves:    8048
 k-point 57 :  -0.3333 0.1111 0.2500  plane waves:    8048
 k-point 58 :  -0.2222 0.1111 0.2500  plane waves:    8025
 k-point 59 :  -0.1111 0.1111 0.2500  plane waves:    8020
 k-point 60 :  -0.0000 0.2222 0.2500  plane waves:    8044
 k-point 61 :   0.1111 0.2222 0.2500  plane waves:    8048
 k-point 62 :   0.2222 0.2222 0.2500  plane waves:    8038
 k-point 63 :   0.3333 0.2222 0.2500  plane waves:    8050
 k-point 64 :   0.4444 0.2222 0.2500  plane waves:    8050
 k-point 65 :  -0.4444 0.2222 0.2500  plane waves:    8038
 k-point 66 :  -0.3333 0.2222 0.2500  plane waves:    8048
 k-point 67 :  -0.2222 0.2222 0.2500  plane waves:    8047
 k-point 68 :  -0.1111 0.2222 0.2500  plane waves:    8025
 k-point 69 :  -0.0000 0.3333 0.2500  plane waves:    8058
 k-point 70 :   0.1111 0.3333 0.2500  plane waves:    8048
 k-point 71 :   0.2222 0.3333 0.2500  plane waves:    8050
 k-point 72 :   0.3333 0.3333 0.2500  plane waves:    8070
 k-point 73 :   0.4444 0.3333 0.2500  plane waves:    8050
 k-point 74 :  -0.4444 0.3333 0.2500  plane waves:    8047
 k-point 75 :  -0.3333 0.3333 0.2500  plane waves:    8058
 k-point 76 :  -0.2222 0.3333 0.2500  plane waves:    8048
 k-point 77 :  -0.1111 0.3333 0.2500  plane waves:    8048
 k-point 78 :  -0.0000 0.4444 0.2500  plane waves:    8063
 k-point 79 :   0.1111 0.4444 0.2500  plane waves:    8072
 k-point 80 :   0.2222 0.4444 0.2500  plane waves:    8050
 k-point 81 :   0.3333 0.4444 0.2500  plane waves:    8050
 k-point 82 :   0.4444 0.4444 0.2500  plane waves:    8072
 k-point 83 :  -0.4444 0.4444 0.2500  plane waves:    8063
 k-point 84 :  -0.3333 0.4444 0.2500  plane waves:    8047
 k-point 85 :  -0.2222 0.4444 0.2500  plane waves:    8038
 k-point 86 :  -0.1111 0.4444 0.2500  plane waves:    8048
 k-point 87 :   0.0000-0.4444 0.2500  plane waves:    8063
 k-point 88 :   0.1111-0.4444 0.2500  plane waves:    8048
 k-point 89 :   0.2222-0.4444 0.2500  plane waves:    8038
 k-point 90 :   0.3333-0.4444 0.2500  plane waves:    8047
 k-point 91 :   0.4444-0.4444 0.2500  plane waves:    8063
 k-point 92 :  -0.4444-0.4444 0.2500  plane waves:    8072
 k-point 93 :  -0.3333-0.4444 0.2500  plane waves:    8050
 k-point 94 :  -0.2222-0.4444 0.2500  plane waves:    8050
 k-point 95 :  -0.1111-0.4444 0.2500  plane waves:    8072
 k-point 96 :   0.0000-0.3333 0.2500  plane waves:    8058
 k-point 97 :   0.1111-0.3333 0.2500  plane waves:    8048
 k-point 98 :   0.2222-0.3333 0.2500  plane waves:    8048
 k-point 99 :   0.3333-0.3333 0.2500  plane waves:    8058
 k-point ** :   0.4444-0.3333 0.2500  plane waves:    8047
 k-point ** :  -0.4444-0.3333 0.2500  plane waves:    8050
 k-point ** :  -0.3333-0.3333 0.2500  plane waves:    8070
 k-point ** :  -0.2222-0.3333 0.2500  plane waves:    8050
 k-point ** :  -0.1111-0.3333 0.2500  plane waves:    8048
 k-point ** :   0.0000-0.2222 0.2500  plane waves:    8044
 k-point ** :   0.1111-0.2222 0.2500  plane waves:    8025
 k-point ** :   0.2222-0.2222 0.2500  plane waves:    8047
 k-point ** :   0.3333-0.2222 0.2500  plane waves:    8048
 k-point ** :   0.4444-0.2222 0.2500  plane waves:    8038
 k-point ** :  -0.4444-0.2222 0.2500  plane waves:    8050
 k-point ** :  -0.3333-0.2222 0.2500  plane waves:    8050
 k-point ** :  -0.2222-0.2222 0.2500  plane waves:    8038
 k-point ** :  -0.1111-0.2222 0.2500  plane waves:    8048
 k-point ** :   0.0000-0.1111 0.2500  plane waves:    8020
 k-point ** :   0.1111-0.1111 0.2500  plane waves:    8020
 k-point ** :   0.2222-0.1111 0.2500  plane waves:    8025
 k-point ** :   0.3333-0.1111 0.2500  plane waves:    8048
 k-point ** :   0.4444-0.1111 0.2500  plane waves:    8048
 k-point ** :  -0.4444-0.1111 0.2500  plane waves:    8072
 k-point ** :  -0.3333-0.1111 0.2500  plane waves:    8048
 k-point ** :  -0.2222-0.1111 0.2500  plane waves:    8048
 k-point ** :  -0.1111-0.1111 0.2500  plane waves:    8025
 k-point ** :   0.0000 0.0000 0.5000  plane waves:    7990
 k-point ** :   0.1111 0.0000 0.5000  plane waves:    8020
 k-point ** :   0.2222 0.0000 0.5000  plane waves:    8042
 k-point ** :   0.3333 0.0000 0.5000  plane waves:    8066
 k-point ** :   0.4444 0.0000 0.5000  plane waves:    8074
 k-point ** :  -0.0000 0.1111 0.5000  plane waves:    8020
 k-point ** :   0.1111 0.1111 0.5000  plane waves:    8054
 k-point ** :   0.2222 0.1111 0.5000  plane waves:    8048
 k-point ** :   0.3333 0.1111 0.5000  plane waves:    8042
 k-point ** :   0.4444 0.1111 0.5000  plane waves:    8066
 k-point ** :  -0.4444 0.1111 0.5000  plane waves:    8042
 k-point ** :  -0.3333 0.1111 0.5000  plane waves:    8048
 k-point ** :  -0.2222 0.1111 0.5000  plane waves:    8052
 k-point ** :  -0.1111 0.1111 0.5000  plane waves:    8022
 k-point ** :  -0.0000 0.2222 0.5000  plane waves:    8042
 k-point ** :   0.1111 0.2222 0.5000  plane waves:    8048
 k-point ** :   0.2222 0.2222 0.5000  plane waves:    8044
 k-point ** :   0.3333 0.2222 0.5000  plane waves:    8042
 k-point ** :   0.4444 0.2222 0.5000  plane waves:    8044
 k-point ** :  -0.4444 0.2222 0.5000  plane waves:    8044
 k-point ** :  -0.3333 0.2222 0.5000  plane waves:    8048
 k-point ** :  -0.2222 0.2222 0.5000  plane waves:    8042
 k-point ** :  -0.1111 0.2222 0.5000  plane waves:    8052
 k-point ** :  -0.0000 0.3333 0.5000  plane waves:    8066
 k-point ** :   0.1111 0.3333 0.5000  plane waves:    8042
 k-point ** :   0.2222 0.3333 0.5000  plane waves:    8042
 k-point ** :   0.3333 0.3333 0.5000  plane waves:    8028
 k-point ** :   0.4444 0.3333 0.5000  plane waves:    8042
 k-point ** :  -0.4444 0.3333 0.5000  plane waves:    8042
 k-point ** :  -0.3333 0.3333 0.5000  plane waves:    8066
 k-point ** :  -0.2222 0.3333 0.5000  plane waves:    8048
 k-point ** :  -0.1111 0.3333 0.5000  plane waves:    8048
 k-point ** :  -0.0000 0.4444 0.5000  plane waves:    8074
 k-point ** :   0.1111 0.4444 0.5000  plane waves:    8066
 k-point ** :   0.2222 0.4444 0.5000  plane waves:    8044
 k-point ** :   0.3333 0.4444 0.5000  plane waves:    8042
 k-point ** :   0.4444 0.4444 0.5000  plane waves:    8066
 k-point ** :  -0.4444 0.4444 0.5000  plane waves:    8070
 k-point ** :  -0.3333 0.4444 0.5000  plane waves:    8042
 k-point ** :  -0.2222 0.4444 0.5000  plane waves:    8044
 k-point ** :  -0.1111 0.4444 0.5000  plane waves:    8042

 maximum and minimum number of plane-waves per node :      8074     7972

 maximum number of plane-waves:      8074
 maximum index in each direction: 
   IXMAX=   10   IYMAX=   10   IZMAX=   22
   IXMIN=  -10   IYMIN=  -10   IZMIN=  -23

 WARNING: aliasing errors must be expected set NGX to  42 to avoid them
 WARNING: aliasing errors must be expected set NGY to  42 to avoid them
 NGZ is ok and might be reduce to  92
 aliasing errors are usually negligible using standard VASP settings
 and one can safely disregard these warnings

 serial   3D FFT for wavefunctions
 parallel 3D FFT for charge:
    minimum data exchange during FFTs selected (reduces bandwidth)


 total amount of memory used by VASP on root node   447154. kBytes
========================================================================

   base      :      30000. kBytes
   nonl-proj :      88383. kBytes
   fftplans  :       7819. kBytes
   grid      :      16563. kBytes
   one-center:         98. kBytes
   wavefun   :     304291. kBytes
 
     INWAV:  cpu time    0.00: real time    0.00
 Broyden mixing: mesh for mixing (old mesh)
   NGX = 19   NGY = 19   NGZ = 45
  (NGX  = 80   NGY  = 80   NGZ  =192)
  gives a total of  16245 points

 initial charge density was supplied:
 charge density of overlapping atoms calculated
 number of electron     128.0000000 magnetization 
 keeping initial charge density in first step


--------------------------------------------------------------------------------------------------------


 Maximum index for augmentation-charges         1491 (set IRDMAX)


--------------------------------------------------------------------------------------------------------


 First call to EWALD:  gamma=   0.285
 Maximum number of real-space cells 4x 4x 2
 Maximum number of reciprocal cells 2x 2x 5

 FEWALD executed in parallel
    FEWALD:  cpu time    0.00: real time    0.00


----------------------------------------- Iteration    1(   1)  ---------------------------------------


    POTLOK:  cpu time    0.19: real time    0.19
    SETDIJ:  cpu time    0.02: real time    0.02
     EDDAV:  cpu time  136.97: real time  137.06
 BZINTS: Fermi energy: 17.457876;128.000000 electrons
         Band energy: 231.630749;  BLOECHL correction: -0.148742
       DOS:  cpu time    0.20: real time    0.20
    --------------------------------------------
      LOOP:  cpu time  137.38: real time  137.51

 eigenvalue-minimisations  : 27384
 total energy-change (2. order) : 0.5264043E+03  (-0.7348794E+04)
 number of electron     128.0000000 magnetization 
 augmentation part      128.0000000 magnetization 

 Free energy of the ion-electron system (eV)
  ---------------------------------------------------
  alpha Z        PSCENC =       346.10004929
  Ewald energy   TEWEN  =     -4414.31302073
  -Hartree energ DENC   =      -755.27413904
  -exchange      EXHF   =         0.00000000
  -V(xc)+E(xc)   XCENC  =       446.26678530
  PAW double counting   =      1210.60617908    -1247.42152856
  entropy T*S    EENTRO =         0.00000000
  eigenvalues    EBANDS =       231.63074886
  atomic energy  EATOM  =      4708.80920826
  ---------------------------------------------------
  free energy    TOTEN  =       526.40428246 eV

  energy without entropy =      526.40428246  energy(sigma->0) =      526.40428246


--------------------------------------------------------------------------------------------------------




----------------------------------------- Iteration    1(   2)  ---------------------------------------


     EDDAV:  cpu time  159.77: real time  159.85
 BZINTS: Fermi energy:  5.611861;128.000000 electrons
         Band energy:-561.902615;  BLOECHL correction: -0.001323
       DOS:  cpu time    0.16: real time    0.16
    --------------------------------------------
      LOOP:  cpu time  159.93: real time  160.01

 eigenvalue-minimisations  : 33888
 total energy-change (2. order) :-0.7935334E+03  (-0.7631060E+03)
 number of electron     128.0000000 magnetization 
 augmentation part      128.0000000 magnetization 

 Free energy of the ion-electron system (eV)
  ---------------------------------------------------
  alpha Z        PSCENC =       346.10004929
  Ewald energy   TEWEN  =     -4414.31302073
  -Hartree energ DENC   =      -755.27413904
  -exchange      EXHF   =         0.00000000
  -V(xc)+E(xc)   XCENC  =       446.26678530
  PAW double counting   =      1210.60617908    -1247.42152856
  entropy T*S    EENTRO =         0.00000000
  eigenvalues    EBANDS =      -561.90261482
  atomic energy  EATOM  =      4708.80920826
  ---------------------------------------------------
  free energy    TOTEN  =      -267.12908122 eV

  energy without entropy =     -267.12908122  energy(sigma->0) =     -267.12908122


--------------------------------------------------------------------------------------------------------




----------------------------------------- Iteration    1(   3)  ---------------------------------------


     EDDAV:  cpu time  158.70: real time  158.78
 BZINTS: Fermi energy:  5.006508;128.000000 electrons
         Band energy:-603.945067;  BLOECHL correction: -0.000049
       DOS:  cpu time    0.15: real time    0.15
    --------------------------------------------
      LOOP:  cpu time  158.86: real time  158.94

 eigenvalue-minimisations  : 33480
 total energy-change (2. order) :-0.4204245E+02  (-0.4158783E+02)
 number of electron     128.0000000 magnetization 
 augmentation part      128.0000000 magnetization 

 Free energy of the ion-electron system (eV)
  ---------------------------------------------------
  alpha Z        PSCENC =       346.10004929
  Ewald energy   TEWEN  =     -4414.31302073
  -Hartree energ DENC   =      -755.27413904
  -exchange      EXHF   =         0.00000000
  -V(xc)+E(xc)   XCENC  =       446.26678530
  PAW double counting   =      1210.60617908    -1247.42152856
  entropy T*S    EENTRO =         0.00000000
  eigenvalues    EBANDS =      -603.94506749
  atomic energy  EATOM  =      4708.80920826
  ---------------------------------------------------
  free energy    TOTEN  =      -309.17153389 eV

  energy without entropy =     -309.17153389  energy(sigma->0) =     -309.17153389


--------------------------------------------------------------------------------------------------------




----------------------------------------- Iteration    1(   4)  ---------------------------------------


     EDDAV:  cpu time  158.28: real time  158.36
 BZINTS: Fermi energy:  5.000065;128.000000 electrons
         Band energy:-604.660972;  BLOECHL correction: -0.000092
       DOS:  cpu time    0.15: real time    0.16
    --------------------------------------------
      LOOP:  cpu time  158.44: real time  158.52

 eigenvalue-minimisations  : 33420
 total energy-change (2. order) :-0.7159046E+00  (-0.7144050E+00)
 number of electron     128.0000000 magnetization 
 augmentation part      128.0000000 magnetization 

 Free energy of the ion-electron system (eV)
  ---------------------------------------------------
  alpha Z        PSCENC =       346.10004929
  Ewald energy   TEWEN  =     -4414.31302073
  -Hartree energ DENC   =      -755.27413904
  -exchange      EXHF   =         0.00000000
  -V(xc)+E(xc)   XCENC  =       446.26678530
  PAW double counting   =      1210.60617908    -1247.42152856
  entropy T*S    EENTRO =         0.00000000
  eigenvalues    EBANDS =      -604.66097205
  atomic energy  EATOM  =      4708.80920826
  ---------------------------------------------------
  free energy    TOTEN  =      -309.88743845 eV

  energy without entropy =     -309.88743845  energy(sigma->0) =     -309.88743845


--------------------------------------------------------------------------------------------------------




----------------------------------------- Iteration    1(   5)  ---------------------------------------


     EDDAV:  cpu time  158.87: real time  158.95
 BZINTS: Fermi energy:  5.000024;128.000000 electrons
         Band energy:-604.681059;  BLOECHL correction: -0.000092
       DOS:  cpu time    0.16: real time    0.16
    CHARGE:  cpu time    6.95: real time    6.96
    MIXING:  cpu time    0.01: real time    0.01
    --------------------------------------------
      LOOP:  cpu time  166.00: real time  166.08

 eigenvalue-minimisations  : 33624
 total energy-change (2. order) :-0.2008679E-01  (-0.2007688E-01)
 number of electron     127.9999993 magnetization 
 augmentation part        3.3822011 magnetization 

 Broyden mixing:
  rms(total) = 0.21998E+01    rms(broyden)= 0.21996E+01
  rms(prec ) = 0.27061E+01
  weight for this iteration     100.00

 Free energy of the ion-electron system (eV)
  ---------------------------------------------------
  alpha Z        PSCENC =       346.10004929
  Ewald energy   TEWEN  =     -4414.31302073
  -Hartree energ DENC   =      -755.27413904
  -exchange      EXHF   =         0.00000000
  -V(xc)+E(xc)   XCENC  =       446.26678530
  PAW double counting   =      1210.60617908    -1247.42152856
  entropy T*S    EENTRO =         0.00000000
  eigenvalues    EBANDS =      -604.68105884
  atomic energy  EATOM  =      4708.80920826
  ---------------------------------------------------
  free energy    TOTEN  =      -309.90752524 eV

  energy without entropy =     -309.90752524  energy(sigma->0) =     -309.90752524


--------------------------------------------------------------------------------------------------------




----------------------------------------- Iteration    1(   6)  ---------------------------------------


    POTLOK:  cpu time    0.39: real time    0.39
    SETDIJ:  cpu time    0.01: real time    0.01
     EDDAV:  cpu time  152.61: real time  152.69
 BZINTS: Fermi energy:  5.593591;128.000000 electrons
         Band energy:-486.265623;  BLOECHL correction: -0.000003
       DOS:  cpu time    0.13: real time    0.13
    CHARGE:  cpu time    7.04: real time    7.05
    MIXING:  cpu time    0.01: real time    0.01
    --------------------------------------------
      LOOP:  cpu time  160.20: real time  160.29

 eigenvalue-minimisations  : 31296
 total energy-change (2. order) : 0.1347329E+02  (-0.1369172E+01)
 number of electron     127.9999994 magnetization 
 augmentation part        3.2337967 magnetization 

 Broyden mixing:
  rms(total) = 0.11531E+01    rms(broyden)= 0.11531E+01
  rms(prec ) = 0.14036E+01
  weight for this iteration     100.00

 eigenvalues of (default mixing * dielectric matrix)
  average eigenvalue GAMMA=   2.0397
  2.0397

 Free energy of the ion-electron system (eV)
  ---------------------------------------------------
  alpha Z        PSCENC =       346.10004929
  Ewald energy   TEWEN  =     -4414.31302073
  -Hartree energ DENC   =      -865.24495326
  -exchange      EXHF   =         0.00000000
  -V(xc)+E(xc)   XCENC  =       454.18669667
  PAW double counting   =      1638.52371626    -1678.23030394
  entropy T*S    EENTRO =         0.00000000
  eigenvalues    EBANDS =      -486.26562284
  atomic energy  EATOM  =      4708.80920826
  ---------------------------------------------------
  free energy    TOTEN  =      -296.43423028 eV

  energy without entropy =     -296.43423028  energy(sigma->0) =     -296.43423028


--------------------------------------------------------------------------------------------------------




----------------------------------------- Iteration    1(   7)  ---------------------------------------


    POTLOK:  cpu time    0.39: real time    0.39
    SETDIJ:  cpu time    0.01: real time    0.01
     EDDAV:  cpu time  152.37: real time  152.45
 BZINTS: Fermi energy:  6.159963;128.000000 electrons
         Band energy:-367.254835;  BLOECHL correction: -0.000004
       DOS:  cpu time    0.14: real time    0.14
    CHARGE:  cpu time    7.30: real time    7.31
    MIXING:  cpu time    0.01: real time    0.01
    --------------------------------------------
      LOOP:  cpu time  160.22: real time  160.31

 eigenvalue-minimisations  : 31248
 total energy-change (2. order) : 0.4175732E+01  (-0.1372404E+01)
 number of electron     127.9999995 magnetization 
 augmentation part        3.0775076 magnetization 

 Broyden mixing:
  rms(total) = 0.18135E+00    rms(broyden)= 0.18123E+00
  rms(prec ) = 0.19782E+00
  weight for this iteration     100.00

 eigenvalues of (default mixing * dielectric matrix)
  average eigenvalue GAMMA=   2.1260
  2.0070  2.2451

 Free energy of the ion-electron system (eV)
  ---------------------------------------------------
  alpha Z        PSCENC =       346.10004929
  Ewald energy   TEWEN  =     -4414.31302073
  -Hartree energ DENC   =      -986.63818784
  -exchange      EXHF   =         0.00000000
  -V(xc)+E(xc)   XCENC  =       463.12373109
  PAW double counting   =      2175.22583397    -2217.31127718
  entropy T*S    EENTRO =         0.00000000
  eigenvalues    EBANDS =      -367.25483481
  atomic energy  EATOM  =      4708.80920826
  ---------------------------------------------------
  free energy    TOTEN  =      -292.25849794 eV

  energy without entropy =     -292.25849794  energy(sigma->0) =     -292.25849794


--------------------------------------------------------------------------------------------------------




----------------------------------------- Iteration    1(   8)  ---------------------------------------


    POTLOK:  cpu time    0.19: real time    0.19
    SETDIJ:  cpu time    0.01: real time    0.02
     EDDAV:  cpu time  150.82: real time  150.90
 BZINTS: Fermi energy:  6.139804;128.000000 electrons
         Band energy:-370.077436;  BLOECHL correction:  0.000000
       DOS:  cpu time    0.09: real time    0.09
    CHARGE:  cpu time    7.10: real time    7.11
    MIXING:  cpu time    0.01: real time    0.01
    --------------------------------------------
      LOOP:  cpu time  158.23: real time  158.31

 eigenvalue-minimisations  : 31296
 total energy-change (2. order) :-0.3571541E-01  (-0.2738960E-01)
 number of electron     127.9999995 magnetization 
 augmentation part        3.0723446 magnetization 

 Broyden mixing:
  rms(total) = 0.27600E-01    rms(broyden)= 0.27575E-01
  rms(prec ) = 0.33396E-01
  weight for this iteration     100.00

 eigenvalues of (default mixing * dielectric matrix)
  average eigenvalue GAMMA=   1.7990
  0.9558  2.4918  1.9493

 Free energy of the ion-electron system (eV)
  ---------------------------------------------------
  alpha Z        PSCENC =       346.10004929
  Ewald energy   TEWEN  =     -4414.31302073
  -Hartree energ DENC   =      -984.41322835
  -exchange      EXHF   =         0.00000000
  -V(xc)+E(xc)   XCENC  =       463.01825560
  PAW double counting   =      2215.81537504    -2257.23341599
  entropy T*S    EENTRO =         0.00000000
  eigenvalues    EBANDS =      -370.07743648
  atomic energy  EATOM  =      4708.80920826
  ---------------------------------------------------
  free energy    TOTEN  =      -292.29421335 eV

  energy without entropy =     -292.29421335  energy(sigma->0) =     -292.29421335


--------------------------------------------------------------------------------------------------------




----------------------------------------- Iteration    1(   9)  ---------------------------------------


    POTLOK:  cpu time    0.39: real time    0.39
    SETDIJ:  cpu time    0.01: real time    0.02
     EDDAV:  cpu time  156.80: real time  156.88
 BZINTS: Fermi energy:  6.144946;128.000000 electrons
         Band energy:-369.004964;  BLOECHL correction: -0.000018
       DOS:  cpu time    0.15: real time    0.15
    CHARGE:  cpu time    6.93: real time    6.93
    MIXING:  cpu time    0.01: real time    0.01
    --------------------------------------------
      LOOP:  cpu time  164.29: real time  164.38

 eigenvalue-minimisations  : 33012
 total energy-change (2. order) :-0.1690407E-02  (-0.8703664E-03)
 number of electron     127.9999995 magnetization 
 augmentation part        3.0701025 magnetization 

 Broyden mixing:
  rms(total) = 0.10046E-01    rms(broyden)= 0.10043E-01
  rms(prec ) = 0.13362E-01
  weight for this iteration     100.00

 eigenvalues of (default mixing * dielectric matrix)
  average eigenvalue GAMMA=   1.7093
  2.5058  1.9863  0.9737  1.3713

 Free energy of the ion-electron system (eV)
  ---------------------------------------------------
  alpha Z        PSCENC =       346.10004929
  Ewald energy   TEWEN  =     -4414.31302073
  -Hartree energ DENC   =      -985.64433096
  -exchange      EXHF   =         0.00000000
  -V(xc)+E(xc)   XCENC  =       463.12280047
  PAW double counting   =      2225.63725351    -2267.00289970
  entropy T*S    EENTRO =         0.00000000
  eigenvalues    EBANDS =      -369.00496390
  atomic energy  EATOM  =      4708.80920826
  ---------------------------------------------------
  free energy    TOTEN  =      -292.29590376 eV

  energy without entropy =     -292.29590376  energy(sigma->0) =     -292.29590376


--------------------------------------------------------------------------------------------------------




----------------------------------------- Iteration    1(  10)  ---------------------------------------


    POTLOK:  cpu time    0.19: real time    0.19
    SETDIJ:  cpu time    0.01: real time    0.02
     EDDAV:  cpu time  174.31: real time  174.40
 BZINTS: Fermi energy:  6.147112;128.000000 electrons
         Band energy:-368.810451;  BLOECHL correction: -0.000003
       DOS:  cpu time    0.14: real time    0.14
    CHARGE:  cpu time    6.94: real time    6.95
    MIXING:  cpu time    0.01: real time    0.01
    --------------------------------------------
      LOOP:  cpu time  181.60: real time  181.70

 eigenvalue-minimisations  : 37956
 total energy-change (2. order) :-0.6836587E-03  (-0.6695982E-03)
 number of electron     127.9999995 magnetization 
 augmentation part        3.0697543 magnetization 

 Broyden mixing:
  rms(total) = 0.78417E-02    rms(broyden)= 0.78376E-02
  rms(prec ) = 0.12303E-01
  weight for this iteration     100.00

 eigenvalues of (default mixing * dielectric matrix)
  average eigenvalue GAMMA=   1.5275
  2.5544  1.9583  1.4397  0.8425  0.8425

 Free energy of the ion-electron system (eV)
  ---------------------------------------------------
[...]
     80      14.1175      0.00000
     81      14.4212      0.00000
     82      14.4333      0.00000
     83      14.6734      0.00000
     84      14.6784      0.00000

 k-point   162 :      -0.2222    0.4444    0.5000
  band No.  band energies     occupation 
      1     -12.7157      2.00000
      2     -12.7146      2.00000
      3     -12.0918      2.00000
      4     -12.0910      2.00000
      5     -10.7600      2.00000
      6     -10.7565      2.00000
      7     -10.7559      2.00000
      8     -10.7533      2.00000
      9     -10.1994      2.00000
     10     -10.1959      2.00000
     11     -10.1953      2.00000
     12     -10.1927      2.00000
     13      -7.4336      2.00000
     14      -7.4312      2.00000
     15      -7.1883      2.00000
     16      -7.1863      2.00000
     17      -6.3445      2.00000
     18      -6.3415      2.00000
     19      -6.2143      2.00000
     20      -6.2108      2.00000
     21      -3.4403      2.00000
     22      -3.4355      2.00000
     23      -3.4337      2.00000
     24      -3.4313      2.00000
     25      -3.1297      2.00000
     26      -3.1248      2.00000
     27      -3.1230      2.00000
     28      -3.1204      2.00000
     29      -3.1134      2.00000
     30      -3.1108      2.00000
     31      -2.8479      2.00000
     32      -2.8451      2.00000
     33      -1.5896      2.00000
     34      -1.5877      2.00000
     35      -0.4647      2.00000
     36      -0.4618      2.00000
     37      -0.4592      2.00000
     38      -0.4559      2.00000
     39      -0.2745      2.00000
     40      -0.2719      2.00000
     41      -0.2692      2.00000
     42      -0.2656      2.00000
     43       0.4953      2.00000
     44       0.5010      2.00000
     45       0.6099      2.00000
     46       0.6154      2.00000
     47       0.7056      2.00000
     48       0.7082      2.00000
     49       0.7086      2.00000
     50       0.7113      2.00000
     51       1.1613      2.00000
     52       1.1634      2.00000
     53       1.4922      2.00000
     54       1.4966      2.00000
     55       1.5744      2.00000
     56       1.5796      2.00000
     57       3.1634      2.00000
     58       3.1665      2.00000
     59       3.1670      2.00000
     60       3.1701      2.00000
     61       4.1774      2.00000
     62       4.1807      2.00000
     63       5.2016      2.00000
     64       5.2039      2.00000
     65       7.4855      0.00000
     66       7.4888      0.00000
     67       7.6953      0.00000
     68       7.6986      0.00000
     69      10.2840      0.00000
     70      10.2886      0.00000
     71      10.2897      0.00000
     72      10.2920      0.00000
     73      11.4892      0.00000
     74      11.4932      0.00000
     75      11.4939      0.00000
     76      11.4964      0.00000
     77      14.4360      0.00000
     78      14.4472      0.00000
     79      14.4649      0.00000
     80      14.4704      0.00000
     81      14.7981      0.00000
     82      14.8023      0.00000
     83      14.8072      0.00000
     84      14.8106      0.00000

 k-point   163 :      -0.1111    0.4444    0.5000
  band No.  band energies     occupation 
      1     -12.6421      2.00000
      2     -12.6410      2.00000
      3     -12.0205      2.00000
      4     -12.0197      2.00000
      5     -11.3301      2.00000
      6     -11.3291      2.00000
      7     -10.7505      2.00000
      8     -10.7497      2.00000
      9     -10.0507      2.00000
     10     -10.0497      2.00000
     11      -9.5141      2.00000
     12      -9.5134      2.00000
     13      -8.2299      2.00000
     14      -8.2289      2.00000
     15      -7.7747      2.00000
     16      -7.7738      2.00000
     17      -5.6900      2.00000
     18      -5.6882      2.00000
     19      -5.3636      2.00000
     20      -5.3623      2.00000
     21      -4.0222      2.00000
     22      -4.0198      2.00000
     23      -3.7210      2.00000
     24      -3.7188      2.00000
     25      -2.9996      2.00000
     26      -2.9973      2.00000
     27      -2.7683      2.00000
     28      -2.7677      2.00000
     29      -2.7491      2.00000
     30      -2.7467      2.00000
     31      -2.4649      2.00000
     32      -2.4646      2.00000
     33      -1.5384      2.00000
     34      -1.5369      2.00000
     35      -1.5024      2.00000
     36      -1.5005      2.00000
     37      -1.3264      2.00000
     38      -1.3246      2.00000
     39       0.0409      2.00000
     40       0.0428      2.00000
     41       0.1336      2.00000
     42       0.1354      2.00000
     43       0.3229      2.00000
     44       0.3254      2.00000
     45       0.4051      2.00000
     46       0.4060      2.00000
     47       0.5671      2.00000
     48       0.5679      2.00000
     49       1.2392      2.00000
     50       1.2414      2.00000
     51       1.5200      2.00000
     52       1.5219      2.00000
     53       1.5498      2.00000
     54       1.5523      2.00000
     55       1.6775      2.00000
     56       1.6790      2.00000
     57       2.5974      2.00000
     58       2.5994      2.00000
     59       3.5123      2.00000
     60       3.5140      2.00000
     61       3.8447      2.00000
     62       3.8463      2.00000
     63       5.2067      2.00000
     64       5.2091      2.00000
     65       7.5082      0.00000
     66       7.5116      0.00000
     67       8.4315      0.00000
     68       8.4332      0.00000
     69       9.3770      0.00000
     70       9.3801      0.00000
     71      10.4819      0.00000
     72      10.4839      0.00000
     73      11.1731      0.00000
     74      11.1761      0.00000
     75      12.4141      0.00000
     76      12.4159      0.00000
     77      14.0403      0.00000
     78      14.0421      0.00000
     79      14.1077      0.00000
     80      14.1169      0.00000
     81      14.4202      0.00000
     82      14.4319      0.00000
     83      14.6687      0.00000
     84      14.6713      0.00000


--------------------------------------------------------------------------------------------------------


 soft charge-density along one line, spin component           1
         0         1         2         3         4         5         6         7         8         9
 total charge-density along one line
 
 pseudopotential strength for first ion, spin component:           1
  9.680   0.002  -0.000  -0.000   0.000   0.000  -0.000  -0.000
  0.002  -0.002  -0.000   0.000   0.000   0.000  -0.000  -0.000
 -0.000  -0.000  -3.862   0.000   0.000  -0.014  -0.000   0.000
 -0.000   0.000   0.000  -3.857  -0.000  -0.000  -0.011   0.000
  0.000   0.000   0.000  -0.000  -3.862   0.000   0.000  -0.014
  0.000   0.000  -0.014  -0.000   0.000  -0.762   0.000   0.000
 -0.000  -0.000  -0.000  -0.011   0.000   0.000  -0.762  -0.000
 -0.000  -0.000   0.000   0.000  -0.014   0.000  -0.000  -0.762
 total augmentation occupancy for first ion, spin component:           1
  1.475  -1.102  -0.000   0.000   0.000  -0.000  -0.000   0.000
 -1.102   1.037   0.000   0.000  -0.000   0.000   0.000  -0.000
 -0.000   0.000   1.225  -0.000  -0.000   0.224   0.000  -0.000
  0.000   0.000  -0.000   0.920  -0.000  -0.000   0.102  -0.000
  0.000  -0.000  -0.000  -0.000   1.225  -0.000  -0.000   0.224
 -0.000   0.000   0.224  -0.000  -0.000   0.047   0.000  -0.000
 -0.000   0.000   0.000   0.102  -0.000   0.000   0.013  -0.000
  0.000  -0.000  -0.000  -0.000   0.224  -0.000  -0.000   0.047


------------------------ aborting loop because EDIFF is reached ----------------------------------------


    CHARGE:  cpu time    7.11: real time    7.11
    FORLOC:  cpu time    0.05: real time    0.05
    FORNL :  cpu time   45.94: real time   45.96
    STRESS:  cpu time   84.45: real time   84.49
    FORHAR:  cpu time    0.08: real time    0.08
    MIXING:  cpu time    0.01: real time    0.01
    OFIELD:  cpu time    0.00: real time    0.00

 ---------------------------------------------------------------------------------------------

         DFTD3 V3.0 Rev 1        
 IVDW         = 11
 DF pbe       
 parameters
 VDW_S6       =    1.0000
 VDW_S8       =    0.7220
 VDW_SR       =    1.2170
 rs18     =    1.0000
 alpha6   =   14.0000
 alpha8   =   16.0000
 k1-k3    =   16.0000    1.3333   -4.0000
 VDW_RADIUS   =   50.2022 A
 VDW_CNRADIUS =   21.1671 A
 Edisp (eV)   -3.60843

 E6    (eV) :    -2.1083
 E8    (eV) :    -1.5001
 % E8        : 41.57
    FORVDW:  cpu time    0.60: real time    0.60

  FORCE on cell =-STRESS in cart. coord.  units (eV):
  Direction    XX          YY          ZZ          XY          YZ          ZX
  --------------------------------------------------------------------------------------
  Alpha Z   346.10005   346.10005   346.10005
  Ewald    -109.43707  -109.83559 -4195.05939    -1.21432     0.00005    -0.00888
  Hartree   807.03688   806.98891  -627.82943    -0.16246     0.00004    -0.00216
  E(xc)    -469.55312  -469.55525  -483.93361    -0.00509    -0.00000     0.00000
  Local   -2375.76392 -2375.39218  2882.24237     1.14619     0.00006     0.00813
  n-local  -111.76891  -111.78424  -104.34370    -0.02024     0.00013    -0.00081
  augment   -12.38884   -12.38817   -11.34680     0.00194    -0.00000     0.00005
  Kinetic  1923.68128  1923.81682  2220.90214     0.23725    -0.00177     0.01274
  Fock        0.00000     0.00000     0.00000     0.00000     0.00000     0.00000
  vdW        -0.07748    -0.07663    -2.13845     0.00105     0.00000    -0.00002
  -------------------------------------------------------------------------------------
  Total      -2.17111    -2.12629    24.59317    -0.01570    -0.00149     0.00905
  in kB     -14.42922   -14.13132   163.44624    -0.10431    -0.00987     0.06014
  external pressure =       44.96 kB  Pullay stress =        0.00 kB


 VOLUME and BASIS-vectors are now :
 -----------------------------------------------------------------------------
  energy-cutoff  :      600.00
  volume of cell :      241.07
      direct lattice vectors                 reciprocal lattice vectors
     4.934310885 -0.000222400  0.000000000     0.202667819  0.117022500  0.000000000
    -2.467348046  4.273127376  0.000000000     0.000010548  0.234026730  0.000000000
     0.000000000  0.000000000 11.433761932     0.000000000  0.000000000  0.087460278

  length of vectors
     4.934310890  4.934310890 11.433761932     0.234026730  0.234026730  0.087460278


 FORCES acting on ions
    electron-ion (+dipol)            ewald-force                    non-local-force                 convergence-correction
 -----------------------------------------------------------------------------------------------
   0.854E-01 0.827E-03 -.316E+00   -.907E-01 0.123E-02 0.297E+00   -.364E-02 0.120E-02 -.688E-02   -.260E-04 -.179E-04 0.171E-01
   -.272E+00 -.707E-02 -.830E+00   0.264E+00 0.995E-02 0.841E+00   -.328E-01 0.100E-02 -.669E-01   0.250E-04 -.256E-04 0.172E-01
   0.380E+00 0.376E+00 -.825E+00   -.449E+00 -.409E+00 0.836E+00   -.222E-01 0.723E-02 -.666E-01   0.857E-05 0.132E-04 0.172E-01
   0.370E+00 -.372E+00 -.834E+00   -.439E+00 0.409E+00 0.846E+00   -.234E-01 -.433E-02 -.671E-01   -.166E-05 0.368E-04 0.172E-01
   -.711E-03 0.485E-03 0.129E+00   -.298E-02 0.155E-02 -.109E+00   -.213E-02 0.122E-02 0.435E-02   0.126E-03 -.298E-04 -.197E-01
   -.124E-02 0.541E-03 0.131E+00   -.245E-02 0.154E-02 -.111E+00   -.214E-02 0.122E-02 0.408E-02   0.122E-03 -.714E-04 -.197E-01
   -.101E-02 0.616E-03 0.131E+00   -.271E-02 0.140E-02 -.111E+00   -.213E-02 0.123E-02 0.408E-02   0.152E-03 -.462E-05 -.197E-01
   -.929E-03 0.249E-03 0.131E+00   -.272E-02 0.171E-02 -.111E+00   -.213E-02 0.122E-02 0.408E-02   0.978E-04 0.297E-04 -.197E-01
   -.393E-01 0.174E-01 0.505E-01   0.427E-01 -.194E-01 -.103E+00   0.204E-02 -.122E-02 -.577E-02   -.649E-07 0.449E-04 0.521E-01
   0.426E-01 0.290E-01 0.850E-01   -.396E-01 -.312E-01 -.138E+00   0.183E-02 -.129E-02 -.632E-02   0.515E-05 -.176E-04 0.521E-01
   -.838E-02 -.476E-01 0.678E-01   0.118E-01 0.459E-01 -.121E+00   0.199E-02 -.107E-02 -.605E-02   0.518E-04 0.132E-05 0.521E-01
   0.785E-02 -.334E-03 0.214E-01   -.504E-02 -.160E-02 -.741E-01   0.213E-02 -.119E-02 -.361E-02   -.234E-04 -.236E-04 0.521E-01
   0.432E-01 -.302E-01 0.188E+00   -.402E-01 0.286E-01 -.139E+00   0.185E-02 -.111E-02 -.608E-02   -.399E-04 0.345E-04 -.496E-01
   -.397E-01 -.185E-01 0.152E+00   0.431E-01 0.164E-01 -.103E+00   0.206E-02 -.117E-02 -.551E-02   0.497E-04 0.523E-04 -.496E-01
   -.844E-02 0.475E-01 0.170E+00   0.120E-01 -.497E-01 -.121E+00   0.201E-02 -.132E-02 -.579E-02   -.525E-05 -.759E-04 -.496E-01
   0.805E-02 -.361E-03 0.123E+00   -.525E-02 -.159E-02 -.737E-01   0.219E-02 -.120E-02 -.331E-02   0.286E-04 -.146E-04 -.496E-01
   -.867E+00 0.376E-02 0.116E+01   0.100E+01 -.663E-02 -.122E+01   0.111E+00 -.136E-02 0.191E+00   0.156E-03 0.834E-05 0.174E-01
   0.232E+00 -.223E-04 -.376E+00   -.247E+00 -.162E-02 0.343E+00   -.189E-01 -.120E-02 0.208E-01   -.177E-05 0.105E-04 0.171E-01
   0.298E-01 -.117E+00 -.376E+00   -.188E-01 0.130E+00 0.343E+00   -.606E-02 0.629E-02 0.208E-01   0.880E-04 0.149E-04 0.171E-01
   0.300E-01 0.117E+00 -.376E+00   -.187E-01 -.134E+00 0.343E+00   -.615E-02 -.844E-02 0.208E-01   0.974E-04 -.917E-04 0.171E-01
   -.588E-03 0.188E-03 0.133E+00   0.339E-02 -.163E-02 -.113E+00   0.184E-02 -.997E-03 -.119E-02   -.154E-03 0.460E-04 -.196E-01
   0.579E-03 0.167E-03 0.129E+00   0.232E-02 -.163E-02 -.109E+00   0.182E-02 -.994E-03 -.569E-03   -.161E-03 0.654E-04 -.196E-01
   0.344E-04 -.716E-04 0.129E+00   0.285E-02 -.132E-02 -.109E+00   0.183E-02 -.988E-03 -.570E-03   -.181E-03 -.140E-04 -.196E-01
   -.231E-04 0.543E-03 0.129E+00   0.285E-02 -.194E-02 -.109E+00   0.183E-02 -.100E-02 -.569E-03   -.130E-03 0.174E-04 -.196E-01
   0.441E-01 -.303E-01 0.852E-01   -.452E-01 0.313E-01 -.138E+00   -.206E-02 0.129E-02 0.411E-03   -.765E-04 -.580E-06 0.521E-01
   -.395E-01 -.181E-01 0.507E-01   0.372E-01 0.195E-01 -.103E+00   -.121E-02 0.128E-02 -.479E-03   -.275E-04 -.130E-04 0.521E-01
   -.822E-02 0.481E-01 0.680E-01   0.623E-02 -.459E-01 -.121E+00   -.162E-02 0.550E-03 -.314E-04   -.376E-04 -.439E-05 0.521E-01
   0.896E-02 -.121E-03 0.217E-01   -.106E-01 0.168E-02 -.741E-01   -.131E-02 0.104E-02 0.121E-02   -.359E-04 -.553E-05 0.521E-01
   -.400E-01 0.181E-01 0.152E+00   0.376E-01 -.163E-01 -.103E+00   -.121E-02 0.795E-03 -.598E-03   0.184E-04 -.859E-05 -.496E-01
   0.446E-01 0.306E-01 0.188E+00   -.457E-01 -.285E-01 -.139E+00   -.207E-02 0.772E-03 0.379E-03   -.777E-04 -.489E-04 -.496E-01
   -.853E-02 -.491E-01 0.170E+00   0.649E-02 0.498E-01 -.121E+00   -.162E-02 0.152E-02 -.100E-03   0.907E-05 0.716E-04 -.496E-01
   0.917E-02 -.210E-03 0.123E+00   -.108E-01 0.168E-02 -.737E-01   -.128E-02 0.103E-02 0.118E-02   -.554E-04 0.269E-04 -.496E-01
 -----------------------------------------------------------------------------------------------
   -.344E-03 -.821E-04 -.193E-01   -.466E-13 0.338E-14 -.149E-12   0.375E-03 0.245E-04 0.192E-01   0.143E-05 0.612E-05 0.774E-04
 
 
 POSITION                                       TOTAL-FORCE (eV/Angst)
 -----------------------------------------------------------------------------------
      2.46715     -0.00011      1.42922        -0.008963      0.003243     -0.008768
      4.93431     -0.00022      1.42922        -0.040984      0.003859     -0.038462
      1.23348      2.13645      1.42922        -0.091613     -0.025911     -0.038969
      3.70064      2.13634      1.42922        -0.092498      0.033057     -0.037902
      2.46715     -0.00011      7.14610        -0.005693      0.003228      0.004609
      4.93431     -0.00022      7.14610        -0.005710      0.003235      0.004491
      1.23348      2.13645      7.14610        -0.005692      0.003246      0.004490
      3.70064      2.13634      7.14610        -0.005687      0.003209      0.004491
     -1.23367      2.13656      4.28766         0.005494     -0.003196     -0.006335
      1.23348      2.13645      4.28766         0.004657     -0.003593     -0.007677
     -2.46735      4.27313      4.28766         0.005418     -0.002685     -0.007007
     -0.00019      4.27302      4.28766         0.004909     -0.003150     -0.004265
     -1.23367      2.13656     10.00454         0.004738     -0.002677     -0.007173
      1.23348      2.13645     10.00454         0.005570     -0.003194     -0.005795
     -2.46735      4.27313     10.00454         0.005599     -0.003638     -0.006481
     -0.00019      4.27302     10.00454         0.005010     -0.003164     -0.003682
     -0.00415      1.42441      1.42004         0.249624     -0.004223      0.142731
      2.46696      1.42430      1.42922        -0.035023     -0.002823      0.005516
     -1.23387      3.56098      1.42922         0.004810      0.020156      0.005448
      1.23329      3.56086      1.42922         0.004952     -0.025935      0.005596
     -0.00019      1.42441      7.14610         0.004484     -0.002392     -0.000936
      2.46696      1.42430      7.14610         0.004554     -0.002390     -0.000414
     -1.23387      3.56098      7.14610         0.004534     -0.002394     -0.000413
      1.23329      3.56086      7.14610         0.004532     -0.002382     -0.000416
      1.23367      0.71204      4.28766        -0.003306      0.002400     -0.000806
      3.70083      0.71193      4.28766        -0.003556      0.002644     -0.000884
     -0.00000      2.84860      4.28766        -0.003643      0.002728     -0.000843
      2.46715      2.84849      4.28766        -0.002979      0.002596      0.000813
      1.23367      0.71204     10.00454        -0.003597      0.002511     -0.000730
      3.70083      0.71193     10.00454        -0.003342      0.002713     -0.000607
     -0.00000      2.84860     10.00454        -0.003648      0.002389     -0.000663
      2.46715      2.84849     10.00454        -0.002951      0.002529      0.001043
 -----------------------------------------------------------------------------------
    total drift:                                0.000032     -0.000051     -0.000003


--------------------------------------------------------------------------------------------------------



  FREE ENERGIE OF THE ION-ELECTRON SYSTEM (eV)
  ---------------------------------------------------
  free  energy   TOTEN  =      -295.90489590 eV

  energy  without entropy=     -295.90489590  energy(sigma->0) =     -295.90489590
 


--------------------------------------------------------------------------------------------------------


    POTLOK:  cpu time    0.21: real time    0.21


--------------------------------------------------------------------------------------------------------


     LOOP+:  cpu time 2959.78: real time 2961.42
    4ORBIT:  cpu time    0.00: real time    0.00
 BZINTS: Fermi energy:  6.149598;128.000000 electrons
         Band energy:-368.533204;  BLOECHL correction: -0.000029

 total amount of memory used by VASP on root node   447154. kBytes
========================================================================

   base      :      30000. kBytes
   nonl-proj :      88383. kBytes
   fftplans  :       7819. kBytes
   grid      :      16563. kBytes
   one-center:         98. kBytes
   wavefun   :     304291. kBytes
 
  
  
 General timing and accounting informations for this job:
 ========================================================
  
                  Total CPU time used (sec):     2996.981
                            User time (sec):     2567.905
                          System time (sec):      429.077
                         Elapsed time (sec):     2998.838
  
                   Maximum memory used (kb):      560488.
                   Average memory used (kb):           0.
  
                          Minor page faults:     34722372
                          Major page faults:            0
                 Voluntary context switches:          949
