  32  32   0   0
  0.8294063E+01  0.4932875E-09  0.4932875E-09  0.1260033E-08  0.5000000E-15
  1.000000000000000E-004
  CAR 
 graphite                                
     16.96218005    -16.46370658  301      5.23287104      1.00000000
    -16.464  0.0000E+00  0.0000E+00
    -16.352  0.0000E+00  0.0000E+00
    -16.241  0.0000E+00  0.0000E+00
    -16.129  0.0000E+00  0.0000E+00
    -16.018  0.0000E+00  0.0000E+00
    -15.907  0.0000E+00  0.0000E+00
    -15.795  0.0000E+00  0.0000E+00
    -15.684  0.0000E+00  0.0000E+00
    -15.572  0.0000E+00  0.0000E+00
    -15.461  0.0000E+00  0.0000E+00
    -15.350  0.0000E+00  0.0000E+00
    -15.238  0.0000E+00  0.0000E+00
    -15.127  0.0000E+00  0.0000E+00
    -15.015  0.0000E+00  0.0000E+00
    -14.904  0.0000E+00  0.0000E+00
    -14.792  0.0000E+00  0.0000E+00
    -14.681  0.0000E+00  0.0000E+00
    -14.570  0.0000E+00  0.0000E+00
    -14.458  0.1254E-01  0.2322E-04
    -14.347  0.1463E+01  0.9599E-01
    -14.235  0.2372E+01  0.3077E+00
    -14.124  0.3021E+01  0.6086E+00
    -14.012  0.3985E+01  0.9944E+00
    -13.901  0.4835E+01  0.1520E+01
    -13.790  0.4954E+01  0.2067E+01
    -13.678  0.4890E+01  0.2612E+01
    -13.567  0.5016E+01  0.3165E+01
    -13.455  0.4916E+01  0.3719E+01
    -13.344  0.4938E+01  0.4267E+01
    -13.233  0.5382E+01  0.4836E+01
    -13.121  0.5590E+01  0.5449E+01
    -13.010  0.6492E+01  0.6113E+01
    -12.898  0.5866E+01  0.6824E+01
    -12.787  0.3983E+01  0.7362E+01
    -12.675  0.2667E+01  0.7698E+01
    -12.564  0.3606E+01  0.8067E+01
    -12.453  0.3977E+01  0.8454E+01
    -12.341  0.5976E+01  0.9140E+01
    -12.230  0.5374E+01  0.9759E+01
    -12.118  0.5790E+01  0.1036E+02
    -12.007  0.5014E+01  0.1098E+02
    -11.896  0.4807E+01  0.1150E+02
    -11.784  0.5093E+01  0.1206E+02
    -11.673  0.4997E+01  0.1262E+02
    -11.561  0.5022E+01  0.1318E+02
    -11.450  0.5221E+01  0.1374E+02
    -11.338  0.5788E+01  0.1437E+02
    -11.227  0.4988E+01  0.1496E+02
    -11.116  0.5019E+01  0.1551E+02
    -11.004  0.5075E+01  0.1608E+02
    -10.893  0.5152E+01  0.1664E+02
    -10.781  0.5226E+01  0.1722E+02
    -10.670  0.5315E+01  0.1781E+02
    -10.558  0.5566E+01  0.1841E+02
    -10.447  0.5695E+01  0.1904E+02
    -10.336  0.6031E+01  0.1969E+02
    -10.224  0.6023E+01  0.2036E+02
    -10.113  0.6089E+01  0.2103E+02
    -10.001  0.5180E+01  0.2167E+02
     -9.890  0.4187E+01  0.2218E+02
     -9.779  0.4316E+01  0.2264E+02
     -9.667  0.5073E+01  0.2317E+02
     -9.556  0.5402E+01  0.2376E+02
     -9.444  0.5596E+01  0.2437E+02
     -9.333  0.6189E+01  0.2501E+02
     -9.221  0.7044E+01  0.2575E+02
     -9.110  0.8679E+01  0.2662E+02
     -8.999  0.8352E+01  0.2765E+02
     -8.887  0.6251E+01  0.2849E+02
     -8.776  0.5011E+01  0.2910E+02
     -8.664  0.3630E+01  0.2965E+02
     -8.553  0.3240E+01  0.3003E+02
     -8.441  0.2849E+01  0.3037E+02
     -8.330  0.2461E+01  0.3067E+02
     -8.219  0.3145E+01  0.3097E+02
     -8.107  0.2385E+01  0.3126E+02
     -7.996  0.1891E+01  0.3151E+02
     -7.884  0.2001E+01  0.3170E+02
     -7.773  0.3633E+01  0.3198E+02
     -7.662  0.6544E+01  0.3264E+02
     -7.550  0.4239E+01  0.3319E+02
     -7.439  0.4077E+01  0.3365E+02
     -7.327  0.6320E+01  0.3418E+02
     -7.216  0.6691E+01  0.3486E+02
     -7.104  0.6684E+01  0.3566E+02
     -6.993  0.7824E+01  0.3646E+02
     -6.882  0.8371E+01  0.3740E+02
     -6.770  0.7321E+01  0.3828E+02
     -6.659  0.6129E+01  0.3900E+02
     -6.547  0.5840E+01  0.3967E+02
     -6.436  0.5598E+01  0.4030E+02
     -6.325  0.5395E+01  0.4092E+02
     -6.213  0.5209E+01  0.4151E+02
     -6.102  0.5018E+01  0.4208E+02
     -5.990  0.4869E+01  0.4263E+02
     -5.879  0.4829E+01  0.4316E+02
     -5.767  0.4798E+01  0.4370E+02
     -5.656  0.4635E+01  0.4423E+02
     -5.545  0.4518E+01  0.4474E+02
     -5.433  0.3924E+01  0.4522E+02
     -5.322  0.3783E+01  0.4563E+02
     -5.210  0.4379E+01  0.4609E+02
     -5.099  0.5084E+01  0.4661E+02
     -4.987  0.5835E+01  0.4722E+02
     -4.876  0.7571E+01  0.4793E+02
     -4.765  0.9293E+01  0.4889E+02
     -4.653  0.8670E+01  0.4996E+02
     -4.542  0.6031E+01  0.5078E+02
     -4.430  0.3397E+01  0.5130E+02
     -4.319  0.2358E+01  0.5160E+02
     -4.208  0.3198E+01  0.5190E+02
     -4.096  0.4579E+01  0.5233E+02
     -3.985  0.6187E+01  0.5293E+02
     -3.873  0.7791E+01  0.5372E+02
     -3.762  0.7898E+01  0.5461E+02
     -3.650  0.6551E+01  0.5541E+02
     -3.539  0.5348E+01  0.5607E+02
     -3.428  0.8252E+01  0.5678E+02
     -3.316  0.7977E+01  0.5769E+02
     -3.205  0.7733E+01  0.5856E+02
     -3.093  0.7614E+01  0.5941E+02
     -2.982  0.7505E+01  0.6026E+02
     -2.871  0.8928E+01  0.6122E+02
     -2.759  0.8358E+01  0.6221E+02
     -2.648  0.9187E+01  0.6322E+02
     -2.536  0.7953E+01  0.6418E+02
     -2.425  0.6991E+01  0.6500E+02
     -2.313  0.7784E+01  0.6582E+02
     -2.202  0.9217E+01  0.6676E+02
     -2.091  0.1109E+02  0.6790E+02
     -1.979  0.1232E+02  0.6920E+02
     -1.868  0.1152E+02  0.7057E+02
     -1.756  0.1087E+02  0.7175E+02
     -1.645  0.1243E+02  0.7306E+02
     -1.533  0.1427E+02  0.7449E+02
     -1.422  0.1347E+02  0.7612E+02
     -1.311  0.1380E+02  0.7757E+02
     -1.199  0.1077E+02  0.7920E+02
     -1.088  0.1608E+02  0.8046E+02
     -0.976  0.1887E+02  0.8258E+02
     -0.865  0.1691E+02  0.8463E+02
     -0.754  0.1433E+02  0.8637E+02
     -0.642  0.1229E+02  0.8786E+02
     -0.531  0.1071E+02  0.8912E+02
     -0.419  0.9710E+01  0.9027E+02
     -0.308  0.8254E+01  0.9123E+02
     -0.196  0.1282E+02  0.9234E+02
     -0.085  0.1356E+02  0.9387E+02
      0.026  0.1341E+02  0.9547E+02
      0.138  0.8817E+01  0.9659E+02
      0.249  0.8813E+01  0.9755E+02
      0.361  0.9702E+01  0.9861E+02
      0.472  0.1043E+02  0.9972E+02
      0.583  0.1293E+02  0.1009E+03
      0.695  0.1069E+02  0.1022E+03
      0.806  0.9443E+01  0.1033E+03
      0.918  0.9339E+01  0.1044E+03
      1.029  0.9346E+01  0.1054E+03
      1.141  0.9386E+01  0.1065E+03
      1.252  0.9668E+01  0.1075E+03
      1.363  0.9185E+01  0.1086E+03
      1.475  0.9317E+01  0.1096E+03
      1.586  0.9785E+01  0.1107E+03
      1.698  0.9463E+01  0.1118E+03
      1.809  0.9085E+01  0.1128E+03
      1.921  0.8568E+01  0.1138E+03
      2.032  0.9513E+01  0.1148E+03
      2.143  0.9782E+01  0.1158E+03
      2.255  0.7190E+01  0.1168E+03
      2.366  0.5860E+01  0.1175E+03
      2.478  0.6024E+01  0.1182E+03
      2.589  0.5575E+01  0.1188E+03
      2.700  0.4356E+01  0.1194E+03
      2.812  0.5221E+01  0.1199E+03
      2.923  0.8125E+01  0.1207E+03
      3.035  0.8450E+01  0.1216E+03
      3.146  0.5552E+01  0.1224E+03
      3.258  0.4438E+01  0.1229E+03
      3.369  0.5497E+01  0.1236E+03
      3.480  0.6628E+01  0.1242E+03
      3.592  0.5381E+01  0.1249E+03
      3.703  0.4172E+01  0.1254E+03
      3.815  0.3403E+01  0.1258E+03
      3.926  0.3022E+01  0.1262E+03
      4.038  0.2704E+01  0.1265E+03
      4.149  0.2358E+01  0.1268E+03
      4.260  0.1915E+01  0.1270E+03
      4.372  0.1677E+01  0.1272E+03
      4.483  0.1446E+01  0.1274E+03
      4.595  0.1238E+01  0.1276E+03
      4.706  0.1058E+01  0.1277E+03
      4.817  0.9652E+00  0.1278E+03
      4.929  0.7079E+00  0.1279E+03
      5.040  0.4319E+00  0.1280E+03
      5.152  0.1622E+00  0.1280E+03
      5.263  0.1733E-01  0.1280E+03
      5.375  0.1637E+00  0.1280E+03
      5.486  0.3187E+00  0.1280E+03
      5.597  0.4822E+00  0.1281E+03
      5.709  0.6568E+00  0.1281E+03
      5.820  0.8464E+00  0.1282E+03
      5.932  0.1033E+01  0.1283E+03
      6.043  0.1274E+01  0.1285E+03
      6.154  0.1565E+01  0.1286E+03
      6.266  0.1879E+01  0.1288E+03
      6.377  0.2292E+01  0.1290E+03
      6.489  0.3093E+01  0.1293E+03
      6.600  0.4277E+01  0.1297E+03
      6.712  0.4964E+01  0.1303E+03
      6.823  0.1344E+02  0.1311E+03
      6.934  0.8456E+01  0.1323E+03
      7.046  0.7353E+01  0.1332E+03
      7.157  0.7383E+01  0.1340E+03
      7.269  0.7130E+01  0.1348E+03
      7.380  0.6609E+01  0.1356E+03
      7.492  0.5490E+01  0.1362E+03
      7.603  0.4634E+01  0.1368E+03
      7.714  0.4595E+01  0.1373E+03
      7.826  0.3612E+01  0.1378E+03
      7.937  0.3499E+01  0.1381E+03
      8.049  0.3745E+01  0.1385E+03
      8.160  0.4049E+01  0.1390E+03
      8.271  0.4507E+01  0.1395E+03
      8.383  0.4818E+01  0.1400E+03
      8.494  0.4985E+01  0.1405E+03
      8.606  0.4682E+01  0.1411E+03
      8.717  0.4355E+01  0.1416E+03
      8.829  0.4077E+01  0.1420E+03
      8.940  0.3974E+01  0.1425E+03
      9.051  0.3824E+01  0.1429E+03
      9.163  0.3657E+01  0.1433E+03
      9.274  0.3570E+01  0.1437E+03
      9.386  0.3474E+01  0.1441E+03
      9.497  0.3334E+01  0.1445E+03
      9.608  0.3224E+01  0.1449E+03
      9.720  0.3186E+01  0.1452E+03
      9.831  0.3186E+01  0.1456E+03
      9.943  0.3156E+01  0.1459E+03
     10.054  0.3047E+01  0.1463E+03
     10.166  0.2976E+01  0.1466E+03
     10.277  0.3126E+01  0.1470E+03
     10.388  0.3341E+01  0.1473E+03
     10.500  0.3455E+01  0.1477E+03
     10.611  0.3533E+01  0.1481E+03
     10.723  0.3617E+01  0.1485E+03
     10.834  0.3632E+01  0.1489E+03
     10.946  0.3592E+01  0.1493E+03
     11.057  0.3950E+01  0.1497E+03
     11.168  0.4168E+01  0.1502E+03
     11.280  0.4265E+01  0.1506E+03
     11.391  0.4131E+01  0.1511E+03
     11.503  0.4095E+01  0.1516E+03
     11.614  0.4112E+01  0.1520E+03
     11.725  0.4937E+01  0.1525E+03
     11.837  0.4197E+01  0.1531E+03
     11.948  0.3414E+01  0.1535E+03
     12.060  0.2808E+01  0.1538E+03
     12.171  0.2372E+01  0.1541E+03
     12.283  0.3481E+01  0.1545E+03
     12.394  0.4324E+01  0.1549E+03
     12.505  0.5170E+01  0.1554E+03
     12.617  0.7028E+01  0.1561E+03
     12.728  0.9347E+01  0.1571E+03
     12.840  0.1101E+02  0.1582E+03
     12.951  0.1238E+02  0.1595E+03
     13.062  0.1177E+02  0.1608E+03
     13.174  0.1046E+02  0.1621E+03
     13.285  0.9909E+01  0.1632E+03
     13.397  0.9951E+01  0.1643E+03
     13.508  0.1109E+02  0.1655E+03
     13.620  0.8365E+01  0.1665E+03
     13.731  0.4727E+01  0.1673E+03
     13.842  0.2642E+01  0.1677E+03
     13.954  0.1114E+01  0.1679E+03
     14.065  0.3373E+00  0.1679E+03
     14.177  0.1470E+00  0.1680E+03
     14.288  0.7691E-01  0.1680E+03
     14.400  0.5359E-01  0.1680E+03
     14.511  0.3447E-01  0.1680E+03
     14.622  0.1955E-01  0.1680E+03
     14.734  0.8830E-02  0.1680E+03
     14.845  0.2316E-02  0.1680E+03
     14.957  0.5220E-05  0.1680E+03
     15.068  0.0000E+00  0.1680E+03
     15.179  0.0000E+00  0.1680E+03
     15.291  0.0000E+00  0.1680E+03
     15.402  0.0000E+00  0.1680E+03
     15.514  0.0000E+00  0.1680E+03
     15.625  0.0000E+00  0.1680E+03
     15.737  0.0000E+00  0.1680E+03
     15.848  0.0000E+00  0.1680E+03
     15.959  0.0000E+00  0.1680E+03
     16.071  0.0000E+00  0.1680E+03
     16.182  0.0000E+00  0.1680E+03
     16.294  0.0000E+00  0.1680E+03
     16.405  0.0000E+00  0.1680E+03
     16.517  0.0000E+00  0.1680E+03
     16.628  0.0000E+00  0.1680E+03
     16.739  0.0000E+00  0.1680E+03
     16.851  0.0000E+00  0.1680E+03
     16.962  0.0000E+00  0.1680E+03
