   32   32    1    1
  0.8294063E+01  0.4932875E-09  0.4932875E-09  0.1260033E-08  0.5000000E-15
  1.000000000000000E-004
  CAR 
 graphite                                
    128    163     84
 
  0.0000000E+00  0.0000000E+00  0.0000000E+00  0.3086420E-02
    1      -14.463707
    2      -14.236144
    3      -14.235093
    4      -13.983361
    5       -9.095328
    6       -9.087935
    7       -9.084490
    8       -8.991309
    9       -8.990977
   10       -8.983514
   11       -8.979308
   12       -8.979283
   13       -8.977503
   14       -8.915400
   15       -8.903343
   16       -8.901153
   17       -7.984584
   18       -7.981925
   19       -7.980394
   20       -7.946173
   21       -7.941666
   22       -7.940225
   23       -7.939137
   24       -7.939131
   25       -7.935738
   26       -7.851571
   27       -7.846334
   28       -7.843578
   29       -3.546018
   30       -2.356581
   31       -2.354334
   32       -1.163092
   33       -1.160339
   34       -1.140943
   35       -1.115814
   36       -1.110984
   37       -1.110966
   38       -1.110721
   39       -1.092309
   40       -1.090355
   41       -1.062611
   42       -1.060134
   43       -1.040692
   44       -0.872105
   45        2.243107
   46        2.259840
   47        2.267354
   48        2.267770
   49        2.281675
   50        2.283406
   51        2.285374
   52        2.293823
   53        2.295391
   54        2.298326
   55        2.308751
   56        2.891716
   57        2.893088
   58        2.895258
   59        2.899318
   60        2.899364
   61        2.900430
   62        3.217727
   63        3.237022
   64        3.238485
   65        6.822990
   66        6.824705
   67        6.829820
   68        6.886590
   69        6.893572
   70        6.897316
   71        6.898688
   72        6.899178
   73        6.905658
   74        7.627931
   75        7.642119
   76        7.645481
   77       10.166232
   78       12.343473
   79       12.347638
   80       12.381209
   81       12.639230
   82       12.645083
   83       12.664753
   84       12.676260
 
  0.1111111E+00  0.6938894E-17  0.0000000E+00  0.6172840E-02
    1      -14.389650
    2      -14.163047
    3      -14.161999
    4      -13.911369
    5       -9.904505
    6       -9.737706
    7       -9.736490
    8       -9.558974
    9       -9.357997
   10       -9.349959
   11       -9.212333
   12       -9.211476
   13       -9.203044
   14       -9.202587
   15       -9.065105
   16       -9.055312
   17       -7.714843
   18       -7.708733
   19       -7.604402
   20       -7.600730
   21       -7.595924
   22       -7.595280
   23       -7.468547
   24       -7.461306
   25       -7.204776
   26       -7.073305
   27       -7.071977
   28       -6.928964
   29       -3.456306
   30       -2.269852
   31       -2.267605
   32       -1.390350
   33       -1.370666
   34       -1.336174
   35       -1.335092
   36       -1.316801
   37       -1.314873
   38       -1.279571
   39       -1.259851
   40       -1.089700
   41       -1.042046
   42       -1.038492
   43       -0.989973
   44       -0.789682
   45        1.668508
   46        1.958429
   47        1.980739
   48        1.984600
   49        2.007329
   50        2.088654
   51        2.108661
   52        2.114933
   53        2.134506
   54        2.166443
   55        2.167646
   56        2.470043
   57        2.472869
   58        2.839991
   59        2.841264
   60        2.846791
   61        2.847578
   62        3.218033
   63        3.315144
   64        3.332217
   65        6.859103
   66        6.863088
   67        7.018405
   68        7.025173
   69        7.029208
   70        7.032116
   71        7.072286
   72        7.438946
   73        7.443540
   74        7.765971
   75        7.777939
   76        8.266447
   77       10.251875
   78       12.387425
   79       12.678239
   80       12.683216
   81       12.684449
   82       12.716036
   83       12.985781
   84       12.999055
 
  0.2222222E+00  0.1387779E-16  0.0000000E+00  0.6172840E-02
    1      -14.167876
    2      -13.943909
    3      -13.942873
    4      -13.695545
    5      -10.922801
    6      -10.738469
    7      -10.737510
    8      -10.538376
    9       -9.711774
   10       -9.706100
   11       -9.548321
   12       -9.546961
   13       -9.541640
   14       -9.541130
   15       -9.372958
   16       -9.366666
   17       -7.041947
   18       -7.032742
   19       -6.915606
   20       -6.912344
   21       -6.904915
   22       -6.904110
   23       -6.774833
   24       -6.765445
   25       -5.876387
   26       -5.751356
   27       -5.750190
   28       -5.618080
   29       -3.187392
   30       -2.010350
   31       -2.008099
   32       -2.002638
   33       -1.984200
   34       -1.936953
   35       -1.936055
   36       -1.918810
   37       -1.916907
   38       -1.868020
   39       -1.849524
   40       -0.874443
   41       -0.827605
   42       -0.823891
   43       -0.776447
   44       -0.543771
   45        0.618667
   46        1.124810
   47        1.161746
   48        1.165462
   49        1.202704
   50        1.582083
   51        1.584372
   52        1.664815
   53        1.692691
   54        1.698573
   55        1.726533
   56        1.922320
   57        1.924721
   58        2.681081
   59        2.718761
   60        2.719475
   61        2.724029
   62        2.725521
   63        3.461569
   64        3.473308
   65        7.025414
   66        7.027487
   67        7.353869
   68        7.360144
   69        7.364115
   70        7.366742
   71        8.064142
   72        8.071587
   73        8.109450
   74        8.660764
   75        8.664501
   76        9.474375
   77       10.509780
   78       12.510615
   79       12.794441
   80       12.796797
   81       13.072546
   82       13.455710
   83       13.468643
   84       13.605459
 
  0.3333333E+00  0.2775558E-16  0.0000000E+00  0.6172840E-02
    1      -13.799471
    2      -13.579909
    3      -13.578889
    4      -13.337024
    5      -11.840849
    6      -11.644745
    7      -11.643813
    8      -11.430450
    9       -9.970790
   10       -9.967143
   11       -9.800663
   12       -9.798924
   13       -9.795908
   14       -9.795432
   15       -9.616201
   16       -9.612310
   17       -6.230485
   18       -6.219481
   19       -6.112693
   20       -6.109292
   21       -6.100688
   22       -6.099569
   23       -5.984391
   24       -5.973914
   25       -4.435593
   26       -4.326185
   27       -4.324837
   28       -4.209699
   29       -2.822693
   30       -2.806714
   31       -2.746996
   32       -2.746470
   33       -2.741962
   34       -2.731480
   35       -2.729425
   36       -2.666234
   37       -2.650029
   38       -1.581340
   39       -1.579088
   40       -0.524893
   41       -0.479501
   42       -0.475537
   43       -0.429766
   44       -0.418807
   45       -0.138646
   46       -0.069432
   47       -0.014602
   48       -0.011549
   49        0.043912
   50        0.630229
   51        0.632392
   52        1.098809
   53        1.133404
   54        1.138648
   55        1.173626
   56        1.714944
   57        1.717372
   58        1.890754
   59        2.594667
   60        2.595288
   61        2.598338
   62        2.600532
   63        3.541567
   64        3.548507
   65        7.319157
   66        7.323541
   67        7.746686
   68        7.752329
   69        7.755303
   70        7.757333
   71        8.340366
   72        8.344203
   73        9.600243
   74       10.137365
   75       10.140639
   76       10.855184
   77       10.940558
   78       12.684568
   79       12.971758
   80       12.974341
   81       13.071733
   82       13.452093
   83       13.457709
   84       13.485907
 
  0.4444444E+00  0.2775558E-16  0.0000000E+00  0.6172840E-02
    1      -13.286497
    2      -13.072980
    3      -13.071971
    4      -12.837631
    5      -12.631881
    6      -12.426126
    7      -12.425190
    8      -12.200375
    9      -10.103737
   10      -10.101632
   11       -9.931403
   12       -9.929122
   13       -9.928105
   14       -9.927428
   15       -9.743395
   16       -9.741224
   17       -5.467442
   18       -5.459197
   19       -5.380734
   20       -5.376548
   21       -5.371879
   22       -5.369786
   23       -5.290570
   24       -5.283844
   25       -3.562440
   26       -3.554038
   27       -3.503181
   28       -3.502303
   29       -3.494691
   30       -3.492169
   31       -3.430875
   32       -3.420933
   33       -2.946578
   34       -2.854675
   35       -2.852920
   36       -2.757218
   37       -2.124935
   38       -1.465206
   39       -1.393370
   40       -1.391370
   41       -1.344944
   42       -1.313481
   43       -0.986643
   44       -0.984621
   45       -0.243500
   46       -0.241352
   47       -0.057522
   48       -0.014505
   49       -0.010167
   50        0.033138
   51        0.416716
   52        0.499489
   53        0.539216
   54        0.543829
   55        0.583713
   56        1.105257
   57        1.601515
   58        1.603617
   59        2.519911
   60        2.521239
   61        2.522391
   62        2.525384
   63        3.566364
   64        3.569615
   65        7.576415
   66        7.580037
   67        8.015277
   68        8.020694
   69        8.021468
   70        8.022619
   71        8.479402
   72        8.482097
   73       11.238074
   74       11.537544
   75       11.674219
   76       11.677670
   77       12.271230
   78       12.284993
   79       12.857783
   80       13.002714
   81       13.055626
   82       13.062587
   83       13.196106
   84       13.232838
 
  0.6776264E-20  0.1111111E+00  0.0000000E+00  0.6172840E-02
    1      -14.389652
    2      -14.163050
    3      -14.162000
    4      -13.911371
    5       -9.904426
    6       -9.737529
    7       -9.736481
    8       -9.558867
    9       -9.357981
   10       -9.350251
   11       -9.212330
   12       -9.211473
   13       -9.203625
   14       -9.202675
   15       -9.065066
   16       -9.055753
   17       -7.714948
   18       -7.707360
   19       -7.604719
   20       -7.600732
   21       -7.595332
   22       -7.593032
   23       -7.468680
   24       -7.459910
   25       -7.205797
   26       -7.074082
   27       -7.073225
   28       -6.929974
   29       -3.456302
   30       -2.269844
   31       -2.267601
   32       -1.391679
   33       -1.370679
   34       -1.338643
   35       -1.335095
   36       -1.316801
   37       -1.315102
   38       -1.280832
   39       -1.259992
   40       -1.088222
   41       -1.039296
   42       -1.038487
   43       -0.988676
   44       -0.789674
   45        1.669386
   46        1.955817
   47        1.978493
   48        1.980742
   49        2.003546
   50        2.092929
   51        2.114544
   52        2.114931
   53        2.136691
   54        2.165318
   55        2.167814
   56        2.471902
   57        2.473058
   58        2.839967
   59        2.841232
   60        2.844681
   61        2.847106
   62        3.219181
   63        3.315163
   64        3.331118
   65        6.860965
   66        6.862999
   67        7.018906
   68        7.025099
   69        7.030156
   70        7.035190
   71        7.070381
   72        7.437599
   73        7.441142
   74        7.766106
   75        7.780164
   76        8.264597
   77       10.251884
   78       12.387953
   79       12.677970
   80       12.683675
   81       12.684247
   82       12.719583
   83       12.985509
   84       12.987756
 
  0.1111111E+00  0.1111111E+00  0.0000000E+00  0.6172840E-02
    1      -14.241629
    2      -14.016801
    3      -14.015762
    4      -13.767304
    5      -10.373775
    6      -10.370612
    7      -10.199027
    8      -10.194989
    9      -10.194956
   10      -10.192628
   11      -10.006984
   12      -10.003777
   13       -8.904999
   14       -8.802826
   15       -8.802051
   16       -8.728169
   17       -7.799401
   18       -7.762400
   19       -7.758273
   20       -7.672166
   21       -6.521844
   22       -6.518510
   23       -6.393467
   24       -6.390134
   25       -6.390111
   26       -6.386596
   27       -6.253099
   28       -6.249566
   29       -3.276748
   30       -2.096604
   31       -2.094359
   32       -2.060096
   33       -1.993803
   34       -1.992228
   35       -1.924145
   36       -1.246620
   37       -1.243632
   38       -1.194955
   39       -1.190037
   40       -1.190023
   41       -1.189342
   42       -1.137299
   43       -1.134634
   44       -0.625386
   45        1.216189
   46        1.218414
   47        1.428643
   48        1.451472
   49        1.455665
   50        1.476234
   51        1.776641
   52        1.793100
   53        1.798978
   54        1.817510
   55        2.110199
   56        2.114105
   57        2.114255
   58        2.115714
   59        2.563231
   60        3.068799
   61        3.071180
   62        3.157242
   63        3.159423
   64        3.475149
   65        6.815382
   66        6.822134
   67        6.830503
   68        7.410927
   69        7.492722
   70        7.495227
   71        7.979590
   72        7.981718
   73        7.982550
   74        7.987286
   75        8.784401
   76        8.787280
   77       10.424086
   78       12.763033
   79       12.767287
   80       13.051496
   81       13.057256
   82       13.057529
   83       13.060460
   84       13.368063
 
  0.2222222E+00  0.1111111E+00  0.0000000E+00  0.6172840E-02
    1      -13.946456
    2      -13.725130
    3      -13.724108
    4      -13.480045
    5      -11.344705
    6      -11.155020
    7      -11.154054
    8      -10.948349
    9      -10.716716
   10      -10.535286
   11      -10.534271
   12      -10.338309
   13       -8.969670
   14       -8.828898
   15       -8.828499
   16       -8.687400
   17       -7.364897
   18       -7.261394
   19       -7.257796
   20       -7.135085
   21       -5.732442
   22       -5.612875
   23       -5.611623
   24       -5.485181
   25       -5.131799
   26       -5.015640
   27       -5.014457
   28       -4.891843
   29       -2.974316
   30       -2.919490
   31       -2.895666
   32       -2.894111
   33       -2.811247
   34       -1.776354
   35       -1.752172
   36       -1.749921
   37       -1.712732
   38       -1.712252
   39       -1.646216
   40       -0.958897
   41       -0.908244
   42       -0.904615
   43       -0.852913
   44       -0.299637
   45        0.152842
   46        0.466740
   47        0.504584
   48        0.508931
   49        0.545329
   50        0.870840
   51        1.162365
   52        1.164562
   53        1.227188
   54        1.252804
   55        1.259091
   56        1.286368
   57        1.825676
   58        1.827170
   59        2.353194
   60        2.684567
   61        2.916073
   62        3.359039
   63        3.361089
   64        3.830564
   65        6.753550
   66        6.826131
   67        6.831663
   68        7.339830
   69        8.038927
   70        8.550465
   71        8.553581
   72        8.803400
   73        9.238413
   74        9.351316
   75        9.354527
   76       10.088596
   77       10.769794
   78       12.919192
   79       13.201310
   80       13.203670
   81       13.417404
   82       13.608832
   83       13.676464
   84       13.730560
 
  0.3333333E+00  0.1111111E+00  0.0000000E+00  0.6172840E-02
    1      -13.505647
    2      -13.289553
    3      -13.288551
    4      -13.050978
    5      -12.199816
    6      -11.999361
    7      -11.998406
    8      -11.779884
    9      -10.926925
   10      -10.742520
   11      -10.741467
   12      -10.542100
   13       -9.119326
   14       -8.963587
   15       -8.962893
   16       -8.798335
   17       -6.602247
   18       -6.494037
   19       -6.490589
   20       -6.375693
   21       -4.924574
   22       -4.824939
   23       -4.822947
   24       -4.719988
   25       -3.913164
   26       -3.833689
   27       -3.831974
   28       -3.743946
   29       -3.674150
   30       -3.575044
   31       -3.573662
   32       -3.470465
   33       -2.476160
   34       -2.409615
   35       -2.409140
   36       -2.387907
   37       -2.336772
   38       -1.241862
   39       -1.239519
   40       -0.834996
   41       -0.790207
   42       -0.730164
   43       -0.726710
   44       -0.668076
   45       -0.541316
   46       -0.493299
   47       -0.489487
   48       -0.440477
   49        0.181192
   50        0.240682
   51        0.242757
   52        0.597399
   53        0.633238
   54        0.639402
   55        0.655249
   56        0.677222
   57        1.546995
   58        1.641830
   59        1.643404
   60        2.662835
   61        2.802992
   62        3.448785
   63        3.450474
   64        4.199775
   65        6.622788
   66        6.947315
   67        6.951849
   68        7.445116
   69        8.543940
   70        9.005093
   71        9.007995
   72        9.517830
   73       10.372884
   74       10.855745
   75       10.858617
   76       11.287350
   77       11.477302
   78       12.767563
   79       13.211134
   80       13.397696
   81       13.400412
   82       13.515068
   83       13.524310
   84       13.557202
 
  0.4444444E+00  0.1111111E+00  0.0000000E+00  0.6172840E-02
    1      -12.923782
    2      -12.920689
    3      -12.715973
    4      -12.712663
    5      -12.711717
    6      -12.709908
    7      -12.484559
    8      -12.481399
    9      -10.997878
   10      -10.812771
   11      -10.811701
   12      -10.611145
   13       -9.175414
   14       -9.016842
   15       -9.015980
   16       -8.847302
   17       -6.077824
   18       -6.005831
   19       -6.002529
   20       -5.936805
   21       -4.436721
   22       -4.416439
   23       -4.378718
   24       -4.377831
   25       -4.375312
   26       -4.372271
   27       -4.319186
   28       -4.316981
   29       -2.876272
   30       -2.840138
   31       -2.837685
   32       -2.787304
   33       -2.206043
   34       -2.202640
   35       -2.126006
   36       -2.125667
   37       -2.123678
   38       -2.119376
   39       -2.041847
   40       -2.037928
   41       -1.690374
   42       -1.687820
   43       -0.573439
   44       -0.569852
   45       -0.569003
   46       -0.566844
   47       -0.014502
   48       -0.008189
   49        0.027921
   50        0.035940
   51        0.037668
   52        0.038175
   53        0.079613
   54        0.084189
   55        0.581112
   56        0.803311
   57        0.806164
   58        1.578274
   59        1.579886
   60        2.643568
   61        2.761182
   62        3.471733
   63        3.472991
   64        4.353506
   65        6.570341
   66        7.016450
   67        7.019749
   68        7.499640
   69        8.766206
   70        9.181683
   71        9.184840
   72        9.594523
   73       11.962039
   74       11.968678
   75       11.988051
   76       11.995126
   77       12.345282
   78       12.347513
   79       12.349134
   80       12.355078
   81       12.855440
   82       12.859387
   83       13.436614
   84       13.445463
 
 -0.4444444E+00  0.1111111E+00  0.0000000E+00  0.6172840E-02
    1      -13.506416
    2      -13.290319
    3      -13.289296
    4      -13.051742
    5      -12.198607
    6      -11.998139
    7      -11.997216
    8      -11.778679
    9      -10.928698
   10      -10.744370
   11      -10.743299
   12      -10.543917
   13       -9.116739
   14       -8.960875
   15       -8.959949
   16       -8.795168
   17       -6.593832
   18       -6.484789
   19       -6.483155
   20       -6.367564
   21       -4.936128
   22       -4.836888
   23       -4.833343
   24       -4.730639
   25       -3.925205
   26       -3.845401
   27       -3.845134
   28       -3.756622
   29       -3.676331
   30       -3.577434
   31       -3.575679
   32       -3.472538
   33       -2.461823
   34       -2.395807
   35       -2.393619
   36       -2.388525
   37       -2.321791
   38       -1.242562
   39       -1.240249
   40       -0.833929
   41       -0.790170
   42       -0.729513
   43       -0.727601
   44       -0.668503
   45       -0.539241
   46       -0.491417
   47       -0.487186
   48       -0.438394
   49        0.180495
   50        0.241683
   51        0.243828
   52        0.597654
   53        0.633802
   54        0.638426
   55        0.654034
   56        0.676694
   57        1.547970
   58        1.640150
   59        1.641777
   60        2.662873
   61        2.800402
   62        3.451580
   63        3.452465
   64        4.208471
   65        6.622006
   66        6.951233
   67        6.953965
   68        7.445861
   69        8.538368
   70        8.999867
   71        9.003808
   72        9.516570
   73       10.373814
   74       10.855194
   75       10.858225
   76       11.286312
   77       11.475581
   78       12.768419
   79       13.208286
   80       13.394406
   81       13.397754
   82       13.519499
   83       13.526887
   84       13.568655
 
 -0.3333333E+00  0.1111111E+00  0.0000000E+00  0.6172840E-02
    1      -13.946992
    2      -13.725683
    3      -13.724646
    4      -13.480584
    5      -11.343273
    6      -11.153564
    7      -11.152644
    8      -10.946890
    9      -10.720291
   10      -10.538848
   11      -10.537804
   12      -10.341989
   13       -8.964213
   14       -8.822877
   15       -8.821941
   16       -8.679925
   17       -7.358545
   18       -7.252900
   19       -7.251853
   20       -7.127424
   21       -5.744101
   22       -5.625275
   23       -5.622269
   24       -5.496524
   25       -5.134096
   26       -5.018038
   27       -5.016710
   28       -4.894193
   29       -2.990334
   30       -2.920043
   31       -2.911204
   32       -2.910507
   33       -2.827261
   34       -1.757985
   35       -1.752672
   36       -1.750452
   37       -1.694954
   38       -1.692988
   39       -1.627760
   40       -0.957099
   41       -0.906639
   42       -0.902755
   43       -0.851206
   44       -0.300149
   45        0.154032
   46        0.462783
   47        0.501703
   48        0.503031
   49        0.540307
   50        0.868509
   51        1.163394
   52        1.165736
   53        1.232751
   54        1.258454
   55        1.261687
   56        1.289690
   57        1.822395
   58        1.824043
   59        2.354090
   60        2.683471
   61        2.910695
   62        3.364219
   63        3.364905
   64        3.846559
   65        6.749697
   66        6.832444
   67        6.835483
   68        7.345095
   69        8.032249
   70        8.542068
   71        8.546762
   72        8.803712
   73        9.233843
   74        9.350404
   75        9.353817
   76       10.086764
   77       10.769026
   78       12.916764
   79       13.198860
   80       13.201609
   81       13.415559
   82       13.609532
   83       13.620493
   84       13.779516
 
 -0.2222222E+00  0.1111111E+00  0.0000000E+00  0.6172840E-02
    1      -14.241960
    2      -14.017132
    3      -14.016084
    4      -13.767641
    5      -10.377530
    6      -10.370559
    7      -10.201375
    8      -10.200404
    9      -10.194316
   10      -10.193306
   11      -10.011030
   12      -10.003830
   13       -8.896268
   14       -8.792269
   15       -8.791374
   16       -8.715272
   17       -7.797182
   18       -7.757043
   19       -7.756203
   20       -7.667204
   21       -6.530582
   22       -6.521777
   23       -6.401868
   24       -6.399047
   25       -6.392318
   26       -6.391106
   27       -6.261724
   28       -6.253101
   29       -3.277075
   30       -2.096922
   31       -2.094688
   32       -2.077977
   33       -2.011432
   34       -2.010536
   35       -1.942047
   36       -1.244652
   37       -1.224606
   38       -1.192459
   39       -1.188828
   40       -1.171598
   41       -1.169734
   42       -1.135582
   43       -1.115649
   44       -0.625698
   45        1.214627
   46        1.218164
   47        1.415987
   48        1.440398
   49        1.441639
   50        1.463320
   51        1.790785
   52        1.808194
   53        1.808747
   54        1.829188
   55        2.108404
   56        2.110130
   57        2.113010
   58        2.115549
   59        2.561024
   60        3.061923
   61        3.070016
   62        3.163855
   63        3.164574
   64        3.495142
   65        6.822673
   66        6.824012
   67        6.827312
   68        7.421708
   69        7.488258
   70        7.495199
   71        7.970548
   72        7.975769
   73        7.980869
   74        7.984991
   75        8.777528
   76        8.784868
   77       10.423601
   78       12.763354
   79       12.799364
   80       13.053575
   81       13.056114
   82       13.090335
   83       13.091196
   84       13.399570
 
 -0.1111111E+00  0.1111111E+00  0.0000000E+00  0.6172840E-02
    1      -14.389762
    2      -14.163160
    3      -14.162107
    4      -13.911479
    5       -9.911679
    6       -9.744916
    7       -9.744103
    8       -9.566706
    9       -9.350039
   10       -9.347595
   11       -9.204960
   12       -9.201349
   13       -9.201299
   14       -9.200085
   15       -9.055584
   16       -9.053242
   17       -7.710544
   18       -7.708611
   19       -7.598520
   20       -7.596966
   21       -7.596936
   22       -7.594436
   23       -7.463534
   24       -7.461462
   25       -7.213424
   26       -7.082833
   27       -7.079962
   28       -6.937722
   29       -3.456411
   30       -2.269950
   31       -2.267709
   32       -1.391963
   33       -1.389283
   34       -1.339431
   35       -1.334710
   36       -1.334691
   37       -1.334384
   38       -1.280977
   39       -1.278587
   40       -1.068385
   41       -1.019957
   42       -1.018120
   43       -0.968799
   44       -0.789779
   45        1.666614
   46        1.940138
   47        1.962361
   48        1.968676
   49        1.990425
   50        2.106749
   51        2.127024
   52        2.130673
   53        2.150728
   54        2.165480
   55        2.170386
   56        2.465867
   57        2.467694
   58        2.843071
   59        2.847429
   60        2.847663
   61        2.848270
   62        3.206763
   63        3.330623
   64        3.332399
   65        6.859639
   66        6.861680
   67        7.027250
   68        7.029766
   69        7.030229
   70        7.036121
   71        7.069197
   72        7.428186
   73        7.433857
   74        7.776177
   75        7.779441
   76        8.255249
   77       10.251717
   78       12.422491
   79       12.678030
   80       12.682341
   81       12.717001
   82       12.718332
   83       12.979219
   84       12.985413
 
  0.1355253E-19  0.2222222E+00  0.0000000E+00  0.6172840E-02
    1      -14.167883
    2      -13.943921
    3      -13.942874
    4      -13.695552
    5      -10.922839
    6      -10.738537
    7      -10.737516
    8      -10.538411
    9       -9.711939
   10       -9.706023
   11       -9.548830
   12       -9.546970
   13       -9.541445
   14       -9.540962
   15       -9.373068
   16       -9.366636
   17       -7.042101
   18       -7.031526
   19       -6.916042
   20       -6.912346
   21       -6.904169
   22       -6.902171
   23       -6.774934
   24       -6.764152
   25       -5.877328
   26       -5.752177
   27       -5.751283
   28       -5.619058
   29       -3.187373
   30       -2.010320
   31       -2.008081
   32       -2.003976
   33       -1.984291
   34       -1.939472
   35       -1.936061
   36       -1.918810
   37       -1.917165
   38       -1.869268
   39       -1.849656
   40       -0.872905
   41       -0.824757
   42       -0.823887
   43       -0.775110
   44       -0.543738
   45        0.619150
   46        1.122651
   47        1.160553
   48        1.161751
   49        1.199847
   50        1.583014
   51        1.584615
   52        1.668069
   53        1.697750
   54        1.698572
   55        1.728657
   56        1.921623
   57        1.924363
   58        2.681822
   59        2.718141
   60        2.719135
   61        2.723505
   62        2.724653
   63        3.461485
   64        3.472108
   65        7.025929
   66        7.029090
   67        7.354450
   68        7.360081
   69        7.365162
   70        7.369584
   71        8.064317
   72        8.073621
   73        8.107818
   74        8.659592
   75        8.662858
   76        9.473039
   77       10.509806
   78       12.511236
   79       12.795640
   80       12.796841
   81       13.073175
   82       13.456684
   83       13.460928
   84       13.611902
 
  0.1111111E+00  0.2222222E+00  0.0000000E+00  0.6172840E-02
    1      -13.946460
    2      -13.725139
    3      -13.724109
    4      -13.480050
    5      -11.344760
    6      -11.155121
    7      -11.154063
    8      -10.948404
    9      -10.716676
   10      -10.535218
   11      -10.534266
   12      -10.338275
   13       -8.969659
   14       -8.828889
   15       -8.828491
   16       -8.687393
   17       -7.364839
   18       -7.261268
   19       -7.257795
   20       -7.135015
   21       -5.731387
   22       -5.611683
   23       -5.610669
   24       -5.484086
   25       -5.132833
   26       -5.016634
   27       -5.015581
   28       -4.892933
   29       -2.974405
   30       -2.919475
   31       -2.895667
   32       -2.894283
   33       -2.811332
   34       -1.777850
   35       -1.752147
   36       -1.749908
   37       -1.715580
   38       -1.712270
   39       -1.647594
   40       -0.957294
   41       -0.905246
   42       -0.904608
   43       -0.851492
   44       -0.299608
   45        0.153231
   46        0.465731
   47        0.504585
   48        0.506587
   49        0.543877