  32  32   0   0
  0.8861552E+01  0.4932875E-09  0.4932875E-09  0.1346245E-08  0.5000000E-15
  1.000000000000000E-004
  CAR 
 graphite                                
     15.30233822    -16.97852800  301      4.64554108      1.00000000
    -16.979  0.0000E+00  0.0000E+00
    -16.871  0.0000E+00  0.0000E+00
    -16.763  0.0000E+00  0.0000E+00
    -16.656  0.0000E+00  0.0000E+00
    -16.548  0.0000E+00  0.0000E+00
    -16.441  0.0000E+00  0.0000E+00
    -16.333  0.0000E+00  0.0000E+00
    -16.225  0.0000E+00  0.0000E+00
    -16.118  0.0000E+00  0.0000E+00
    -16.010  0.0000E+00  0.0000E+00
    -15.902  0.0000E+00  0.0000E+00
    -15.795  0.0000E+00  0.0000E+00
    -15.687  0.0000E+00  0.0000E+00
    -15.580  0.0000E+00  0.0000E+00
    -15.472  0.0000E+00  0.0000E+00
    -15.364  0.0000E+00  0.0000E+00
    -15.257  0.0000E+00  0.0000E+00
    -15.149  0.0000E+00  0.0000E+00
    -15.042  0.0000E+00  0.0000E+00
    -14.934  0.7984E+00  0.1356E-01
    -14.826  0.2293E+01  0.1990E+00
    -14.719  0.3679E+01  0.5192E+00
    -14.611  0.4704E+01  0.1007E+01
    -14.504  0.5022E+01  0.1532E+01
    -14.396  0.4872E+01  0.2066E+01
    -14.288  0.4937E+01  0.2594E+01
    -14.181  0.4904E+01  0.3126E+01
    -14.073  0.4971E+01  0.3658E+01
    -13.966  0.4969E+01  0.4192E+01
    -13.858  0.5009E+01  0.4729E+01
    -13.750  0.5488E+01  0.5285E+01
    -13.643  0.5847E+01  0.5901E+01
    -13.535  0.7265E+01  0.6583E+01
    -13.428  0.4114E+01  0.7239E+01
    -13.320  0.2937E+01  0.7667E+01
    -13.212  0.2615E+01  0.7883E+01
    -13.105  0.4098E+01  0.8284E+01
    -12.997  0.4541E+01  0.8750E+01
    -12.890  0.5965E+01  0.9460E+01
    -12.782  0.6625E+01  0.1011E+02
    -12.674  0.4307E+01  0.1075E+02
    -12.567  0.4482E+01  0.1122E+02
    -12.459  0.4650E+01  0.1171E+02
    -12.352  0.4766E+01  0.1222E+02
    -12.244  0.5036E+01  0.1275E+02
    -12.136  0.5257E+01  0.1330E+02
    -12.029  0.5937E+01  0.1391E+02
    -11.921  0.5428E+01  0.1452E+02
    -11.814  0.5169E+01  0.1509E+02
    -11.706  0.5007E+01  0.1564E+02
    -11.598  0.4895E+01  0.1617E+02
    -11.491  0.5007E+01  0.1670E+02
    -11.383  0.5078E+01  0.1725E+02
    -11.276  0.5149E+01  0.1780E+02
    -11.168  0.5406E+01  0.1836E+02
    -11.060  0.5663E+01  0.1896E+02
    -10.953  0.5848E+01  0.1959E+02
    -10.845  0.5770E+01  0.2021E+02
    -10.738  0.5785E+01  0.2083E+02
    -10.630  0.5759E+01  0.2146E+02
    -10.522  0.4567E+01  0.2202E+02
    -10.415  0.4881E+01  0.2251E+02
    -10.307  0.5284E+01  0.2306E+02
    -10.200  0.5368E+01  0.2363E+02
    -10.092  0.5535E+01  0.2422E+02
     -9.984  0.5768E+01  0.2482E+02
     -9.877  0.6676E+01  0.2547E+02
     -9.769  0.8609E+01  0.2627E+02
     -9.662  0.8854E+01  0.2730E+02
     -9.554  0.5900E+01  0.2808E+02
     -9.446  0.6226E+01  0.2878E+02
     -9.339  0.3814E+01  0.2942E+02
     -9.231  0.3446E+01  0.2981E+02
     -9.124  0.3077E+01  0.3016E+02
     -9.016  0.2709E+01  0.3047E+02
     -8.908  0.2340E+01  0.3075E+02
     -8.801  0.2959E+01  0.3101E+02
     -8.693  0.2554E+01  0.3134E+02
     -8.586  0.1380E+01  0.3155E+02
     -8.478  0.1987E+01  0.3172E+02
     -8.370  0.3319E+01  0.3199E+02
     -8.263  0.7463E+01  0.3266E+02
     -8.155  0.4189E+01  0.3321E+02
     -8.047  0.4038E+01  0.3364E+02
     -7.940  0.4397E+01  0.3409E+02
     -7.832  0.7883E+01  0.3484E+02
     -7.725  0.6631E+01  0.3557E+02
     -7.617  0.7703E+01  0.3634E+02
     -7.509  0.8856E+01  0.3723E+02
     -7.402  0.7410E+01  0.3814E+02
     -7.294  0.6203E+01  0.3884E+02
     -7.187  0.5941E+01  0.3949E+02
     -7.079  0.5689E+01  0.4012E+02
     -6.971  0.5476E+01  0.4072E+02
     -6.864  0.5292E+01  0.4129E+02
     -6.756  0.5112E+01  0.4185E+02
     -6.649  0.4917E+01  0.4239E+02
     -6.541  0.4840E+01  0.4292E+02
     -6.433  0.4813E+01  0.4344E+02
     -6.326  0.4780E+01  0.4395E+02
     -6.218  0.4578E+01  0.4446E+02
     -6.111  0.4416E+01  0.4494E+02
     -6.003  0.3637E+01  0.4540E+02
     -5.895  0.4062E+01  0.4580E+02
     -5.788  0.4480E+01  0.4626E+02
     -5.680  0.5159E+01  0.4677E+02
     -5.573  0.5966E+01  0.4737E+02
     -5.465  0.7499E+01  0.4806E+02
     -5.357  0.1043E+02  0.4906E+02
     -5.250  0.8122E+01  0.5006E+02
     -5.142  0.5819E+01  0.5081E+02
     -5.035  0.3515E+01  0.5132E+02
     -4.927  0.2600E+01  0.5162E+02
     -4.819  0.3247E+01  0.5192E+02
     -4.712  0.4547E+01  0.5234E+02
     -4.604  0.5890E+01  0.5290E+02
     -4.497  0.7644E+01  0.5362E+02
     -4.389  0.7864E+01  0.5449E+02
     -4.281  0.6626E+01  0.5526E+02
     -4.174  0.5645E+01  0.5591E+02
     -4.066  0.7736E+01  0.5658E+02
     -3.959  0.7225E+01  0.5738E+02
     -3.851  0.6705E+01  0.5813E+02
     -3.743  0.6763E+01  0.5885E+02
     -3.636  0.6472E+01  0.5956E+02
     -3.528  0.8479E+01  0.6033E+02
     -3.421  0.1365E+02  0.6155E+02
     -3.313  0.8650E+01  0.6250E+02
     -3.205  0.7941E+01  0.6338E+02
     -3.098  0.7106E+01  0.6420E+02
     -2.990  0.6904E+01  0.6494E+02
     -2.883  0.7787E+01  0.6573E+02
     -2.775  0.8891E+01  0.6662E+02
     -2.667  0.1142E+02  0.6768E+02
     -2.560  0.1403E+02  0.6909E+02
     -2.452  0.1151E+02  0.7055E+02
     -2.345  0.1274E+02  0.7179E+02
     -2.237  0.1233E+02  0.7311E+02
     -2.129  0.1474E+02  0.7449E+02
     -2.022  0.1286E+02  0.7606E+02
     -1.914  0.1820E+02  0.7758E+02
     -1.807  0.1143E+02  0.7929E+02
     -1.699  0.1575E+02  0.8053E+02
     -1.591  0.1741E+02  0.8264E+02
     -1.484  0.1875E+02  0.8460E+02
     -1.376  0.1445E+02  0.8637E+02
     -1.269  0.1215E+02  0.8780E+02
     -1.161  0.1101E+02  0.8903E+02
     -1.053  0.8678E+01  0.9011E+02
     -0.946  0.7686E+01  0.9098E+02
     -0.838  0.1100E+02  0.9197E+02
     -0.730  0.1361E+02  0.9335E+02
     -0.623  0.1734E+02  0.9487E+02
     -0.515  0.8808E+01  0.9624E+02
     -0.408  0.1002E+02  0.9722E+02
     -0.300  0.1078E+02  0.9831E+02
     -0.192  0.1054E+02  0.9944E+02
     -0.085  0.1106E+02  0.1006E+03
      0.023  0.9554E+01  0.1017E+03
      0.130  0.9289E+01  0.1027E+03
      0.238  0.1015E+02  0.1038E+03
      0.346  0.9863E+01  0.1048E+03
      0.453  0.9337E+01  0.1059E+03
      0.561  0.9249E+01  0.1069E+03
      0.668  0.9424E+01  0.1079E+03
      0.776  0.9347E+01  0.1089E+03
      0.884  0.9266E+01  0.1099E+03
      0.991  0.9302E+01  0.1109E+03
      1.099  0.9196E+01  0.1119E+03
      1.206  0.9544E+01  0.1129E+03
      1.314  0.9406E+01  0.1139E+03
      1.422  0.9629E+01  0.1150E+03
      1.529  0.9864E+01  0.1160E+03
      1.637  0.7346E+01  0.1169E+03
      1.744  0.6466E+01  0.1176E+03
      1.852  0.6419E+01  0.1183E+03
      1.960  0.4889E+01  0.1189E+03
      2.067  0.3803E+01  0.1194E+03
      2.175  0.4335E+01  0.1198E+03
      2.282  0.7445E+01  0.1204E+03
      2.390  0.8493E+01  0.1213E+03
      2.498  0.5748E+01  0.1222E+03
      2.605  0.8888E+01  0.1228E+03
      2.713  0.7339E+01  0.1237E+03
      2.820  0.5458E+01  0.1244E+03
      2.928  0.4512E+01  0.1249E+03
      3.036  0.3829E+01  0.1254E+03
      3.143  0.3338E+01  0.1257E+03
      3.251  0.3178E+01  0.1261E+03
      3.358  0.2861E+01  0.1264E+03
      3.466  0.2485E+01  0.1267E+03
      3.574  0.2100E+01  0.1269E+03
      3.681  0.1852E+01  0.1272E+03
      3.789  0.1616E+01  0.1273E+03
      3.896  0.1377E+01  0.1275E+03
      4.004  0.1144E+01  0.1276E+03
      4.112  0.9403E+00  0.1278E+03
      4.219  0.7483E+00  0.1278E+03
      4.327  0.5409E+00  0.1279E+03
      4.434  0.3461E+00  0.1280E+03
      4.542  0.1616E+00  0.1280E+03
      4.650  0.2603E-03  0.1280E+03
      4.757  0.1160E+00  0.1280E+03
      4.865  0.2500E+00  0.1280E+03
      4.972  0.3960E+00  0.1281E+03
      5.080  0.5577E+00  0.1281E+03
      5.188  0.7376E+00  0.1282E+03
      5.295  0.9480E+00  0.1283E+03
      5.403  0.1288E+01  0.1284E+03
      5.510  0.1660E+01  0.1285E+03
      5.618  0.1997E+01  0.1287E+03
      5.726  0.2357E+01  0.1290E+03
      5.833  0.2874E+01  0.1293E+03
      5.941  0.3236E+01  0.1296E+03
      6.048  0.4227E+01  0.1300E+03
      6.156  0.6428E+01  0.1306E+03
      6.264  0.8095E+01  0.1316E+03
      6.371  0.8302E+01  0.1325E+03
      6.479  0.7590E+01  0.1334E+03
      6.587  0.8258E+01  0.1342E+03
      6.694  0.6509E+01  0.1350E+03
      6.802  0.5992E+01  0.1357E+03
      6.909  0.5888E+01  0.1363E+03
      7.017  0.5046E+01  0.1369E+03
      7.125  0.4498E+01  0.1374E+03
      7.232  0.3706E+01  0.1379E+03
      7.340  0.3527E+01  0.1383E+03
      7.447  0.3761E+01  0.1386E+03
      7.555  0.4257E+01  0.1391E+03
      7.663  0.4563E+01  0.1395E+03
      7.770  0.4790E+01  0.1401E+03
      7.878  0.4618E+01  0.1406E+03
      7.985  0.4454E+01  0.1410E+03
      8.093  0.4293E+01  0.1415E+03
      8.201  0.4118E+01  0.1420E+03
      8.308  0.3922E+01  0.1424E+03
      8.416  0.3785E+01  0.1428E+03
      8.523  0.3645E+01  0.1432E+03
      8.631  0.3554E+01  0.1436E+03
      8.739  0.3485E+01  0.1440E+03
      8.846  0.3367E+01  0.1444E+03
      8.954  0.3287E+01  0.1447E+03
      9.061  0.3507E+01  0.1451E+03
      9.169  0.3758E+01  0.1455E+03
      9.277  0.3989E+01  0.1459E+03
      9.384  0.4067E+01  0.1463E+03
      9.492  0.4028E+01  0.1468E+03
      9.599  0.3936E+01  0.1472E+03
      9.707  0.3927E+01  0.1476E+03
      9.815  0.3912E+01  0.1480E+03
      9.922  0.3923E+01  0.1484E+03
     10.030  0.3924E+01  0.1489E+03
     10.137  0.3948E+01  0.1493E+03
     10.245  0.3990E+01  0.1497E+03
     10.353  0.4036E+01  0.1502E+03
     10.460  0.4169E+01  0.1506E+03
     10.568  0.4822E+01  0.1511E+03
     10.675  0.5678E+01  0.1516E+03
     10.783  0.4841E+01  0.1522E+03
     10.891  0.4811E+01  0.1528E+03
     10.998  0.4616E+01  0.1533E+03
     11.106  0.6170E+01  0.1538E+03
     11.213  0.3669E+01  0.1542E+03
     11.321  0.3378E+01  0.1546E+03
     11.429  0.3532E+01  0.1550E+03
     11.536  0.4200E+01  0.1554E+03
     11.644  0.2915E+01  0.1558E+03
     11.751  0.2093E+01  0.1560E+03
     11.859  0.3632E+01  0.1564E+03
     11.967  0.6283E+01  0.1569E+03
     12.074  0.6825E+01  0.1576E+03
     12.182  0.8014E+01  0.1584E+03
     12.289  0.8505E+01  0.1593E+03
     12.397  0.8181E+01  0.1602E+03
     12.505  0.6379E+01  0.1610E+03
     12.612  0.3578E+01  0.1615E+03
     12.720  0.1383E+01  0.1618E+03
     12.827  0.7884E+00  0.1619E+03
     12.935  0.4026E+00  0.1620E+03
     13.043  0.1914E+00  0.1620E+03
     13.150  0.5980E-01  0.1620E+03
     13.258  0.2838E-02  0.1620E+03
     13.365  0.0000E+00  0.1620E+03
     13.473  0.0000E+00  0.1620E+03
     13.581  0.0000E+00  0.1620E+03
     13.688  0.0000E+00  0.1620E+03
     13.796  0.0000E+00  0.1620E+03
     13.904  0.0000E+00  0.1620E+03
     14.011  0.0000E+00  0.1620E+03
     14.119  0.0000E+00  0.1620E+03
     14.226  0.0000E+00  0.1620E+03
     14.334  0.0000E+00  0.1620E+03
     14.442  0.0000E+00  0.1620E+03
     14.549  0.0000E+00  0.1620E+03
     14.657  0.0000E+00  0.1620E+03
     14.764  0.0000E+00  0.1620E+03
     14.872  0.0000E+00  0.1620E+03
     14.980  0.0000E+00  0.1620E+03
     15.087  0.0000E+00  0.1620E+03
     15.195  0.0000E+00  0.1620E+03
     15.302  0.0000E+00  0.1620E+03
