 running on    6 total cores
 distrk:  each k-point on    6 cores,    1 groups
 distr:  one band on    1 cores,    6 groups
 using from now: INCAR     
 vasp.5.3.5 31Mar14 (build Nov 02 2014 15:17:37) complex                        
  
 POSCAR found :  1 types and      32 ions
 scaLAPACK will be used

 ----------------------------------------------------------------------------- 
|                                                                             |
|           W    W    AA    RRRRR   N    N  II  N    N   GGGG   !!!           |
|           W    W   A  A   R    R  NN   N  II  NN   N  G    G  !!!           |
|           W    W  A    A  R    R  N N  N  II  N N  N  G       !!!           |
|           W WW W  AAAAAA  RRRRR   N  N N  II  N  N N  G  GGG   !            |
|           WW  WW  A    A  R   R   N   NN  II  N   NN  G    G                |
|           W    W  A    A  R    R  N    N  II  N    N   GGGG   !!!           |
|                                                                             |
|      For optimal performance we recommend to set                            |
|        NCORE= 4 - approx SQRT( number of cores)                             |
|      NCORE specifies how many cores store one orbital (NPAR=cpu/NCORE).     |
|      This setting can  greatly improve the performance of VASP for DFT.     |
|      The default, NPAR=number of cores might be grossly inefficient         |
|      on modern multi-core architectures or massively parallel machines.     |
|      Do your own testing !!!!                                               |
|      Unfortunately you need to use the default for GW and RPA calculations. |
|      (for HF NCORE is supported but not extensively tested yet)             |
|                                                                             |
 ----------------------------------------------------------------------------- 


 ----------------------------------------------------------------------------- 
|                                                                             |
|  ADVICE TO THIS USER RUNNING 'VASP/VAMP'   (HEAR YOUR MASTER'S VOICE ...):  |
|                                                                             |
|      You have a (more or less) 'large supercell' and for larger cells       |
|      it might be more efficient to use real space projection operators      |
|      So try LREAL= Auto  in the INCAR   file.                               |
|      Mind: If you want to do a very accurate calculations keep the          |
|      reciprocal projection scheme          (i.e. LREAL=.FALSE.)             |
|                                                                             |
 ----------------------------------------------------------------------------- 

 LDA part: xc-table for Pade appr. of Perdew
 POSCAR, INCAR and KPOINTS ok, starting setup
 WARNING: small aliasing (wrap around) errors must be expected
 FFT: planning ...
 WAVECAR not read
 WARNING: random wavefunctions but no delay for mixing, default for NELMDL
 entering main loop
       N       E                     dE             d eps       ncg     rms          rms(c)
DAV:   1     0.591925258260E+03    0.59193E+03   -0.71708E+04 27384   0.160E+03
DAV:   2    -0.263165837840E+03   -0.85509E+03   -0.82452E+03 34104   0.312E+02
DAV:   3    -0.312704974398E+03   -0.49539E+02   -0.49064E+02 33300   0.754E+01
DAV:   4    -0.313647522868E+03   -0.94255E+00   -0.94080E+00 34800   0.112E+01
DAV:   5    -0.313674576805E+03   -0.27054E-01   -0.27043E-01 35196   0.179E+00    0.221E+01
DAV:   6    -0.299206821067E+03    0.14468E+02   -0.14924E+01 31296   0.107E+01    0.116E+01
DAV:   7    -0.294621247313E+03    0.45856E+01   -0.15675E+01 31044   0.110E+01    0.194E+00
DAV:   8    -0.294685206109E+03   -0.63959E-01   -0.40958E-01 30984   0.185E+00    0.337E-01
DAV:   9    -0.294686230682E+03   -0.10246E-02   -0.26258E-02 32508   0.525E-01    0.154E-01
DAV:  10    -0.294686598188E+03   -0.36751E-03   -0.42791E-03 32856   0.217E-01    0.103E-01
