  32  32   0   0
  0.8643287E+01  0.4932875E-09  0.4932875E-09  0.1313087E-08  0.5000000E-15
  1.000000000000000E-004
  CAR 
 graphite                                
     16.11863480    -16.78573381  301      4.85938538      1.00000000
    -16.786  0.0000E+00  0.0000E+00
    -16.676  0.0000E+00  0.0000E+00
    -16.566  0.0000E+00  0.0000E+00
    -16.457  0.0000E+00  0.0000E+00
    -16.347  0.0000E+00  0.0000E+00
    -16.237  0.0000E+00  0.0000E+00
    -16.128  0.0000E+00  0.0000E+00
    -16.018  0.0000E+00  0.0000E+00
    -15.908  0.0000E+00  0.0000E+00
    -15.799  0.0000E+00  0.0000E+00
    -15.689  0.0000E+00  0.0000E+00
    -15.579  0.0000E+00  0.0000E+00
    -15.470  0.0000E+00  0.0000E+00
    -15.360  0.0000E+00  0.0000E+00
    -15.250  0.0000E+00  0.0000E+00
    -15.141  0.0000E+00  0.0000E+00
    -15.031  0.0000E+00  0.0000E+00
    -14.921  0.0000E+00  0.0000E+00
    -14.811  0.0000E+00  0.0000E+00
    -14.702  0.8647E+00  0.2815E-01
    -14.592  0.2362E+01  0.2279E+00
    -14.482  0.3201E+01  0.5270E+00
    -14.373  0.4746E+01  0.9590E+00
    -14.263  0.4808E+01  0.1516E+01
    -14.153  0.4942E+01  0.2053E+01
    -14.044  0.4963E+01  0.2595E+01
    -13.934  0.4939E+01  0.3140E+01
    -13.824  0.4892E+01  0.3677E+01
    -13.715  0.5128E+01  0.4225E+01
    -13.605  0.6293E+01  0.4818E+01
    -13.495  0.7237E+01  0.5572E+01
    -13.386  0.7046E+01  0.6358E+01
    -13.276  0.6152E+01  0.7138E+01
    -13.166  0.2358E+01  0.7546E+01
    -13.057  0.1840E+01  0.7769E+01
    -12.947  0.2015E+01  0.7974E+01
    -12.837  0.2445E+01  0.8219E+01
    -12.728  0.3936E+01  0.8533E+01
    -12.618  0.7186E+01  0.9410E+01
    -12.508  0.7667E+01  0.1020E+02
    -12.398  0.6741E+01  0.1103E+02
    -12.289  0.4065E+01  0.1156E+02
    -12.179  0.4183E+01  0.1201E+02
    -12.069  0.4335E+01  0.1248E+02
    -11.960  0.4505E+01  0.1296E+02
    -11.850  0.4659E+01  0.1346E+02
    -11.740  0.4793E+01  0.1398E+02
    -11.631  0.5167E+01  0.1453E+02
    -11.521  0.5488E+01  0.1511E+02
    -11.411  0.6257E+01  0.1574E+02
    -11.302  0.5951E+01  0.1642E+02
    -11.192  0.5645E+01  0.1705E+02
    -11.082  0.5575E+01  0.1766E+02
    -10.973  0.5744E+01  0.1828E+02
    -10.863  0.5914E+01  0.1892E+02
    -10.753  0.5971E+01  0.1958E+02
    -10.644  0.5738E+01  0.2022E+02
    -10.534  0.5636E+01  0.2084E+02
    -10.424  0.5459E+01  0.2145E+02
    -10.315  0.4300E+01  0.2199E+02
    -10.205  0.3819E+01  0.2242E+02
    -10.095  0.4668E+01  0.2289E+02
     -9.985  0.4985E+01  0.2342E+02
     -9.876  0.5347E+01  0.2398E+02
     -9.766  0.7070E+01  0.2468E+02
     -9.656  0.1026E+02  0.2561E+02
     -9.547  0.9481E+01  0.2677E+02
     -9.437  0.7109E+01  0.2768E+02
     -9.327  0.5112E+01  0.2834E+02
     -9.218  0.4497E+01  0.2886E+02
     -9.108  0.3994E+01  0.2933E+02
     -8.998  0.7673E+01  0.2985E+02
     -8.889  0.5011E+01  0.3045E+02
     -8.779  0.2032E+01  0.3092E+02
     -8.669  0.1821E+01  0.3113E+02
     -8.560  0.1611E+01  0.3132E+02
     -8.450  0.1400E+01  0.3149E+02
     -8.340  0.1248E+01  0.3163E+02
     -8.231  0.1661E+01  0.3179E+02
     -8.121  0.2163E+01  0.3200E+02
     -8.011  0.2666E+01  0.3226E+02
     -7.902  0.4309E+01  0.3261E+02
     -7.792  0.9726E+01  0.3336E+02
     -7.682  0.5872E+01  0.3434E+02
     -7.573  0.5105E+01  0.3491E+02
     -7.463  0.6015E+01  0.3550E+02
     -7.353  0.7218E+01  0.3623E+02
     -7.243  0.8420E+01  0.3708E+02
     -7.134  0.9622E+01  0.3807E+02
     -7.024  0.7583E+01  0.3902E+02
     -6.914  0.5594E+01  0.3972E+02
     -6.805  0.5566E+01  0.4033E+02
     -6.695  0.5564E+01  0.4094E+02
     -6.585  0.5406E+01  0.4154E+02
     -6.476  0.5221E+01  0.4212E+02
     -6.366  0.5070E+01  0.4269E+02
     -6.256  0.4952E+01  0.4324E+02
     -6.147  0.4833E+01  0.4377E+02
     -6.037  0.4714E+01  0.4430E+02
     -5.927  0.4595E+01  0.4481E+02
     -5.818  0.4477E+01  0.4531E+02
     -5.708  0.4355E+01  0.4579E+02
     -5.598  0.4649E+01  0.4627E+02
     -5.489  0.5276E+01  0.4682E+02
     -5.379  0.5880E+01  0.4743E+02
     -5.269  0.6483E+01  0.4811E+02
     -5.160  0.7087E+01  0.4885E+02
     -5.050  0.7691E+01  0.4966E+02
     -4.940  0.8295E+01  0.5054E+02
     -4.830  0.8899E+01  0.5148E+02
     -4.721  0.5633E+01  0.5230E+02
     -4.611  0.5451E+01  0.5281E+02
     -4.501  0.7211E+01  0.5351E+02
     -4.392  0.5699E+01  0.5422E+02
     -4.282  0.4187E+01  0.5477E+02
     -4.172  0.2674E+01  0.5514E+02
     -4.063  0.1180E+01  0.5535E+02
     -3.953  0.1953E+01  0.5550E+02
     -3.843  0.3519E+01  0.5580E+02
     -3.734  0.5085E+01  0.5627E+02
     -3.624  0.8318E+01  0.5696E+02
     -3.514  0.1255E+02  0.5809E+02
     -3.405  0.1303E+02  0.5949E+02
     -3.295  0.1223E+02  0.6090E+02
     -3.185  0.6067E+01  0.6194E+02
     -3.076  0.5143E+01  0.6248E+02
     -2.966  0.6099E+01  0.6310E+02
     -2.856  0.7013E+01  0.6382E+02
     -2.747  0.1153E+02  0.6479E+02
     -2.637  0.1740E+02  0.6637E+02
     -2.527  0.1766E+02  0.6862E+02
     -2.417  0.7177E+01  0.6956E+02
     -2.308  0.7432E+01  0.7036E+02
     -2.198  0.7622E+01  0.7119E+02
     -2.088  0.8147E+01  0.7205E+02
     -1.979  0.1040E+02  0.7305E+02
     -1.869  0.1448E+02  0.7466E+02
     -1.759  0.1141E+02  0.7607E+02
     -1.650  0.9883E+01  0.7721E+02
     -1.540  0.3246E+02  0.7904E+02
     -1.430  0.1828E+02  0.8183E+02
     -1.321  0.1776E+02  0.8397E+02
     -1.211  0.1496E+02  0.8559E+02
     -1.101  0.1687E+02  0.8733E+02
     -0.992  0.1177E+02  0.8903E+02
     -0.882  0.7366E+01  0.9005E+02
     -0.772  0.6612E+01  0.9077E+02
     -0.663  0.7573E+01  0.9155E+02
     -0.553  0.8513E+01  0.9243E+02
     -0.443  0.9875E+01  0.9344E+02
     -0.334  0.1105E+02  0.9459E+02
     -0.224  0.1157E+02  0.9584E+02
     -0.114  0.2662E+02  0.9749E+02
     -0.005  0.1290E+02  0.9892E+02
      0.105  0.1220E+02  0.1003E+03
      0.215  0.1023E+02  0.1016E+03
      0.325  0.9028E+01  0.1026E+03
      0.434  0.9829E+01  0.1036E+03
      0.544  0.9036E+01  0.1046E+03
      0.654  0.9778E+01  0.1057E+03
      0.763  0.9850E+01  0.1068E+03
      0.873  0.9684E+01  0.1078E+03
      0.983  0.9478E+01  0.1089E+03
      1.092  0.9379E+01  0.1099E+03
      1.202  0.9444E+01  0.1109E+03
      1.312  0.9912E+01  0.1120E+03
      1.421  0.9648E+01  0.1131E+03
      1.531  0.9589E+01  0.1141E+03
      1.641  0.1015E+02  0.1152E+03
      1.750  0.9731E+01  0.1163E+03
      1.860  0.7667E+01  0.1173E+03
      1.970  0.6650E+01  0.1181E+03
      2.079  0.5297E+01  0.1187E+03
      2.189  0.3803E+01  0.1192E+03
      2.299  0.2884E+01  0.1196E+03
      2.408  0.3481E+01  0.1199E+03
      2.518  0.4168E+01  0.1203E+03
      2.628  0.6207E+01  0.1209E+03
      2.738  0.8209E+01  0.1216E+03
      2.847  0.8469E+01  0.1225E+03
      2.957  0.8346E+01  0.1235E+03
      3.067  0.6825E+01  0.1243E+03
      3.176  0.5216E+01  0.1250E+03
      3.286  0.4123E+01  0.1255E+03
      3.396  0.3441E+01  0.1259E+03
      3.505  0.3054E+01  0.1263E+03
      3.615  0.2655E+01  0.1266E+03
      3.725  0.2289E+01  0.1269E+03
      3.834  0.1988E+01  0.1271E+03
      3.944  0.1712E+01  0.1273E+03
      4.054  0.1452E+01  0.1275E+03
      4.163  0.1201E+01  0.1276E+03
      4.273  0.9744E+00  0.1277E+03
      4.383  0.7671E+00  0.1278E+03
      4.492  0.5721E+00  0.1279E+03
      4.602  0.3876E+00  0.1280E+03
      4.712  0.2125E+00  0.1280E+03
      4.821  0.4605E-01  0.1280E+03
      4.931  0.6251E-01  0.1280E+03
      5.041  0.1874E+00  0.1280E+03
      5.151  0.3221E+00  0.1280E+03
      5.260  0.4681E+00  0.1281E+03
      5.370  0.6272E+00  0.1281E+03
      5.480  0.8007E+00  0.1282E+03
      5.589  0.9970E+00  0.1283E+03
      5.699  0.1233E+01  0.1284E+03
      5.809  0.1496E+01  0.1286E+03
      5.918  0.1760E+01  0.1288E+03
      6.028  0.2762E+01  0.1290E+03
      6.138  0.3336E+01  0.1294E+03
      6.247  0.3743E+01  0.1298E+03
      6.357  0.4984E+01  0.1302E+03
      6.467  0.1001E+02  0.1310E+03
      6.576  0.1094E+02  0.1324E+03
      6.686  0.8729E+01  0.1335E+03
      6.796  0.6852E+01  0.1343E+03
      6.905  0.5951E+01  0.1350E+03
      7.015  0.5285E+01  0.1356E+03
      7.125  0.5028E+01  0.1362E+03
      7.234  0.4523E+01  0.1367E+03
      7.344  0.3941E+01  0.1372E+03
      7.454  0.3571E+01  0.1376E+03
      7.563  0.3673E+01  0.1380E+03
      7.673  0.4003E+01  0.1384E+03
      7.783  0.4424E+01  0.1389E+03
      7.893  0.4759E+01  0.1394E+03
      8.002  0.4918E+01  0.1399E+03
      8.112  0.4709E+01  0.1405E+03
      8.222  0.4521E+01  0.1410E+03
      8.331  0.4405E+01  0.1415E+03
      8.441  0.4278E+01  0.1419E+03
      8.551  0.4181E+01  0.1424E+03
      8.660  0.4103E+01  0.1429E+03
      8.770  0.4031E+01  0.1433E+03
      8.880  0.3967E+01  0.1437E+03
      8.989  0.3698E+01  0.1442E+03
      9.099  0.3449E+01  0.1446E+03
      9.209  0.3335E+01  0.1449E+03
      9.318  0.3264E+01  0.1453E+03
      9.428  0.3205E+01  0.1456E+03
      9.538  0.3404E+01  0.1460E+03
      9.647  0.3567E+01  0.1464E+03
      9.757  0.3545E+01  0.1468E+03
      9.867  0.3576E+01  0.1472E+03
      9.976  0.3632E+01  0.1476E+03
     10.086  0.3669E+01  0.1480E+03
     10.196  0.3671E+01  0.1484E+03
     10.306  0.3623E+01  0.1488E+03
     10.415  0.3589E+01  0.1492E+03
     10.525  0.4652E+01  0.1496E+03
     10.635  0.4999E+01  0.1501E+03
     10.744  0.5264E+01  0.1507E+03
     10.854  0.5288E+01  0.1513E+03
     10.964  0.5469E+01  0.1519E+03
     11.073  0.5666E+01  0.1525E+03
     11.183  0.4306E+01  0.1530E+03
     11.293  0.4076E+01  0.1536E+03
     11.402  0.3032E+01  0.1540E+03
     11.512  0.2431E+01  0.1543E+03
     11.622  0.2446E+01  0.1546E+03
     11.731  0.2485E+01  0.1549E+03
     11.841  0.2776E+01  0.1552E+03
     11.951  0.3791E+01  0.1555E+03
     12.060  0.3283E+01  0.1559E+03
     12.170  0.5205E+01  0.1564E+03
     12.280  0.6796E+01  0.1570E+03
     12.389  0.8666E+01  0.1579E+03
     12.499  0.1071E+02  0.1589E+03
     12.609  0.1352E+02  0.1602E+03
     12.719  0.1412E+02  0.1618E+03
     12.828  0.1393E+02  0.1633E+03
     12.938  0.1124E+02  0.1648E+03
     13.048  0.9277E+01  0.1658E+03
     13.157  0.9860E+01  0.1668E+03
     13.267  0.3604E+01  0.1678E+03
     13.377  0.2965E+00  0.1679E+03
     13.486  0.2153E+00  0.1680E+03
     13.596  0.1471E+00  0.1680E+03
     13.706  0.9185E-01  0.1680E+03
     13.815  0.4954E-01  0.1680E+03
     13.925  0.2019E-01  0.1680E+03
     14.035  0.3795E-02  0.1680E+03
     14.144  0.0000E+00  0.1680E+03
     14.254  0.0000E+00  0.1680E+03
     14.364  0.0000E+00  0.1680E+03
     14.473  0.0000E+00  0.1680E+03
     14.583  0.0000E+00  0.1680E+03
     14.693  0.0000E+00  0.1680E+03
     14.802  0.0000E+00  0.1680E+03
     14.912  0.0000E+00  0.1680E+03
     15.022  0.0000E+00  0.1680E+03
     15.132  0.0000E+00  0.1680E+03
     15.241  0.0000E+00  0.1680E+03
     15.351  0.0000E+00  0.1680E+03
     15.461  0.0000E+00  0.1680E+03
     15.570  0.0000E+00  0.1680E+03
     15.680  0.0000E+00  0.1680E+03
     15.790  0.0000E+00  0.1680E+03
     15.899  0.0000E+00  0.1680E+03
     16.009  0.0000E+00  0.1680E+03
     16.119  0.0000E+00  0.1680E+03
