   32   32    1    1
  0.8643287E+01  0.4932875E-09  0.4932875E-09  0.1313087E-08  0.5000000E-15
  1.000000000000000E-004
  CAR 
 graphite                                
    128     76     84
 
  0.0000000E+00  0.0000000E+00  0.0000000E+00  0.6944444E-02
    1      -14.785734
    2      -14.615672
    3      -14.615031
    4      -14.431267
    5       -9.450512
    6       -9.440393
    7       -9.437346
    8       -9.378072
    9       -9.376437
   10       -9.366179
   11       -9.364750
   12       -9.364734
   13       -9.360631
   14       -9.318780
   15       -9.305579
   16       -9.303116
   17       -8.363464
   18       -8.362002
   19       -8.361077
   20       -8.328384
   21       -8.327523
   22       -8.325326
   23       -8.324910
   24       -8.324897
   25       -8.322257
   26       -8.263421
   27       -8.262481
   28       -8.259945
   29       -3.727301
   30       -2.744646
   31       -2.742672
   32       -1.538098
   33       -1.536065
   34       -1.535737
   35       -1.520080
   36       -1.504641
   37       -1.503708
   38       -1.503699
   39       -1.499587
   40       -1.486933
   41       -1.484998
   42       -1.469718
   43       -1.466906
   44       -1.451606
   45        1.863028
   46        1.871165
   47        1.873333
   48        1.878807
   49        1.884414
   50        1.889471
   51        1.891901
   52        1.899629
   53        2.046276
   54        2.048912
   55        2.050837
   56        2.507372
   57        2.510026
   58        2.517235
   59        2.517596
   60        2.517705
   61        2.521728
   62        2.802530
   63        2.821799
   64        2.823439
   65        6.393458
   66        6.395583
   67        6.402867
   68        6.516790
   69        6.520015
   70        6.522207
   71        6.524434
   72        6.524873
   73        6.528692
   74        7.114220
   75        7.120873
   76        7.124256
   77        9.366364
   78       12.035280
   79       12.039277
   80       12.070908
   81       12.177381
   82       12.180831
   83       12.260403
   84       12.263321
 
  0.1666667E+00  0.1387779E-16  0.0000000E+00  0.1388889E-01
    1      -14.619837
    2      -14.451353
    3      -14.450722
    4      -14.268829
    5      -10.759182
    6      -10.629000
    7      -10.628446
    8      -10.490913
    9       -9.884811
   10       -9.877565
   11       -9.769994
   12       -9.769335
   13       -9.762304
   14       -9.761294
   15       -9.650183
   16       -9.642097
   17       -7.756565
   18       -7.750738
   19       -7.665860
   20       -7.663672
   21       -7.658845
   22       -7.657927
   23       -7.564967
   24       -7.558638
   25       -6.913623
   26       -6.819329
   27       -6.817913
   28       -6.718778
   29       -3.525877
   30       -2.549140
   31       -2.547171
   32       -2.031064
   33       -2.014349
   34       -1.989536
   35       -1.989326
   36       -1.973487
   37       -1.971622
   38       -1.946790
   39       -1.930056
   40       -1.373420
   41       -1.348924
   42       -1.341348
   43       -1.338316
   44       -1.305843
   45        0.941006
   46        1.209708
   47        1.229210
   48        1.233523
   49        1.252628
   50        1.523013
   51        1.538632
   52        1.543572
   53        1.560056
   54        1.670062
   55        1.672388
   56        1.811427
   57        1.815673
   58        2.399794
   59        2.402381
   60        2.408503
   61        2.409398
   62        2.458529
   63        2.920624
   64        2.935002
   65        6.548596
   66        6.552008
   67        6.799279
   68        6.802946
   69        6.804934
   70        6.809071
   71        7.196403
   72        7.393275
   73        7.399947
   74        7.622935
   75        7.627061
   76        8.296422
   77        9.564155
   78       12.129746
   79       12.338048
   80       12.341437
   81       12.347187
   82       12.348848
   83       12.568392
   84       12.773014
 
  0.3333333E+00  0.2775558E-16  0.0000000E+00  0.1388889E-01
    1      -14.123965
    2      -13.960210
    3      -13.959605
    4      -13.783273
    5      -12.172311
    6      -12.027194
    7      -12.026660
    8      -11.871974
    9      -10.309201
   10      -10.305514
   11      -10.184145
   12      -10.183560
   13      -10.180382
   14      -10.179094
   15      -10.051409
   16      -10.047521
   17       -6.582143
   18       -6.573139
   19       -6.496928
   20       -6.494692
   21       -6.487273
   22       -6.486056
   23       -6.405477
   24       -6.396618
   25       -4.794750
   26       -4.716510
   27       -4.714833
   28       -4.633771
   29       -3.190761
   30       -3.176736
   31       -3.137086
   32       -3.136709
   33       -3.123660
   34       -3.121696
   35       -3.080652
   36       -3.066504
   37       -2.925866
   38       -1.967819
   39       -1.965856
   40       -0.899092
   41       -0.868384
   42       -0.865126
   43       -0.834159
   44       -0.794398
   45       -0.614542
   46       -0.447600
   47       -0.409909
   48       -0.406664
   49       -0.368744
   50        0.247271
   51        0.249220
   52        0.722292
   53        0.745349
   54        0.749805
   55        0.773262
   56        1.271491
   57        1.497421
   58        1.500702
   59        2.211098
   60        2.213776
   61        2.216888
   62        2.217909
   63        2.988276
   64        2.995509
   65        7.018467
   66        7.021223
   67        7.376793
   68        7.379184
   69        7.381451
   70        7.385137
   71        7.852199
   72        7.855449
   73        9.327288
   74        9.763625
   75        9.767191
   76       10.159049
   77       10.339324
   78       12.304680
   79       12.528143
   80       12.582113
   81       12.583997
   82       12.760577
   83       12.764560
   84       12.946640
 
  0.5000000E+00  0.5551115E-16  0.0000000E+00  0.6944444E-02
    1      -13.305492
    2      -13.302658
    3      -13.150505
    4      -13.147946
    5      -13.147937
    6      -13.144751
    7      -12.981701
    8      -12.978796
    9      -10.458231
   10      -10.456482
   11      -10.331117
   12      -10.329762
   13      -10.329712
   14      -10.327521
   15      -10.195467
   16      -10.193668
   17       -5.663273
   18       -5.661426
   19       -5.615778
   20       -5.615774
   21       -5.614943
   22       -5.610794
   23       -5.570573
   24       -5.568144
   25       -4.070378
   26       -4.068745
   27       -4.042270
   28       -4.039598
   29       -4.038595
   30       -4.038592
   31       -4.001618
   32       -4.000389
   33       -2.570764
   34       -2.567355
   35       -2.513888
   36       -2.508521
   37       -2.508511
   38       -2.507779
   39       -2.449919
   40       -2.447119
   41       -1.943643
   42       -1.941320
   43       -1.020610
   44       -1.018269
   45       -1.018048
   46       -1.014556
   47       -0.165099
   48       -0.161308
   49       -0.136023
   50       -0.134891
   51       -0.134869
   52       -0.126753
   53       -0.105672
   54       -0.098841
   55        0.101044
   56        0.103709
   57        1.374893
   58        1.376991
   59        2.126942
   60        2.130315
   61        2.130660
   62        2.132083
   63        2.987573
   64        2.989970
   65        7.338644
   66        7.341247
   67        7.683852
   68        7.684030
   69        7.684085
   70        7.689129
   71        8.030277
   72        8.032863
   73       11.141641
   74       11.142744
   75       11.769272
   76       11.772624
   77       12.043288
   78       12.050358
   79       12.051447
   80       12.054853
   81       12.492235
   82       12.495927
   83       12.790869
   84       12.793688
 
  0.0000000E+00  0.1666667E+00  0.0000000E+00  0.1388889E-01
    1      -14.619833
    2      -14.451352
    3      -14.450715
    4      -14.268824
    5      -10.759197
    6      -10.629007
    7      -10.628482
    8      -10.490943
    9       -9.884902
   10       -9.877317
   11       -9.770213
   12       -9.769351
   13       -9.762292
   14       -9.760652
   15       -9.650231
   16       -9.641784
   17       -7.756925
   18       -7.751631
   19       -7.665879
   20       -7.665077
   21       -7.658944
   22       -7.658640
   23       -7.565266
   24       -7.559341
   25       -6.912683
   26       -6.817974
   27       -6.817438
   28       -6.717882
   29       -3.525887
   30       -2.549150
   31       -2.547185
   32       -2.029867
   33       -2.014283
   34       -1.989506
   35       -1.986822
   36       -1.973533
   37       -1.971622
   38       -1.945480
   39       -1.930080
   40       -1.374569
   41       -1.348939
   42       -1.341355
   43       -1.340872
   44       -1.307298
   45        0.940365
   46        1.212961
   47        1.233524
   48        1.233911
   49        1.254529
   50        1.521208
   51        1.538626
   52        1.538903
   53        1.556378
   54        1.669818
   55        1.671085
   56        1.811619
   57        1.816626
   58        2.400122
   59        2.402370
   60        2.408550
   61        2.411459
   62        2.457625
   63        2.920714
   64        2.936139
   65        6.546761
   66        6.551845
   67        6.798550
   68        6.801354
   69        6.804712
   70        6.807366
   71        7.198128
   72        7.392777
   73        7.398249
   74        7.625071
   75        7.628045
   76        8.297943
   77        9.564143
   78       12.129101
   79       12.337925
   80       12.341350
   81       12.347043
   82       12.347641
   83       12.567691
   84       12.775309
 
  0.1666667E+00  0.1666667E+00  0.0000000E+00  0.1388889E-01
    1      -14.288726
    2      -14.123391
    3      -14.122776
    4      -13.944602
    5      -11.382542
    6      -11.379567
    7      -11.246368
    8      -11.243735
    9      -11.243718
   10      -11.240341
   11      -11.099091
   12      -11.096043
   13       -9.024369
   14       -8.954713
   15       -8.953557
   16       -8.898041
   17       -7.957237
   18       -7.927871
   19       -7.924133
   20       -7.870071
   21       -5.802406
   22       -5.798881
   23       -5.718446
   24       -5.714605
   25       -5.714586
   26       -5.711485
   27       -5.627184
   28       -5.623714
   29       -3.363673
   30       -3.307938
   31       -3.306138
   32       -3.248313
   33       -3.124818
   34       -2.160351
   35       -2.158392
   36       -1.702487
   37       -1.699768
   38       -1.663160
   39       -1.661729
   40       -1.661721
   41       -1.657342
   42       -1.621546
   43       -1.618354
   44       -0.977733
   45        0.175365
   46        0.194501
   47        0.198897
   48        0.216103
   49        0.290288
   50        0.292089
   51        0.847769
   52        0.859734
   53        0.864641
   54        0.879473
   55        1.095105
   56        1.097149
   57        1.097299
   58        1.100664
   59        2.027277
   60        2.029749
   61        2.644629
   62        3.104735
   63        3.107048
   64        3.384494
   65        6.306207
   66        6.310861
   67        6.338747
   68        6.640165
   69        8.134638
   70        8.137159
   71        8.574875
   72        8.579021
   73        8.579628
   74        8.581650
   75        9.155334
   76        9.158164
   77        9.962518
   78       12.666356
   79       12.670029
   80       12.933437
   81       12.937859
   82       13.158183
   83       13.161733
   84       13.166088
 
  0.3333333E+00  0.1666667E+00  0.0000000E+00  0.1388889E-01
    1      -13.630597
    2      -13.471519
    3      -13.470945
    4      -13.300103
    5      -12.656048
    6      -12.506270
    7      -12.505703
    8      -12.345696
    9      -11.698596
   10      -11.558221
   11      -11.557574
   12      -11.408296
   13       -9.014410
   14       -8.908748
   15       -8.908390
   16       -8.799499
   17       -7.110633
   18       -7.040769
   19       -7.037697
   20       -6.964437
   21       -4.797125
   22       -4.743653
   23       -4.741712
   24       -4.681935
   25       -4.636381
   26       -4.574804
   27       -4.572915
   28       -4.510750
   29       -3.655494
   30       -3.590595
   31       -3.588958
   32       -3.522287
   33       -2.602452
   34       -2.561147
   35       -2.559823
   36       -2.515053
   37       -2.332061
   38       -1.559230
   39       -1.521913
   40       -1.518278
   41       -1.475748
   42       -1.391007
   43       -1.389442
   44       -1.173324
   45       -1.061404
   46       -1.026894
   47       -1.023963
   48       -0.988513
   49       -0.281383
   50       -0.279616
   51       -0.249862
   52       -0.161650
   53       -0.137199
   54       -0.132408
   55       -0.106360
   56       -0.049007
   57        0.788916
   58        0.790705
   59        0.793206
   60        1.781880
   61        2.925815
   62        3.512622
   63        3.514661
   64        4.044609
   65        5.924413
   66        6.165151
   67        6.168892
   68        6.541090
   69        8.949232
   70        9.294088
   71        9.296171
   72        9.662062
   73       10.433308
   74       10.756931
   75       10.787250
   76       10.789854
   77       11.220466
   78       11.933646
   79       12.709068
   80       12.878344
   81       12.885999
   82       13.116690
   83       13.222334
   84       13.299046
 
  0.5000000E+00  0.1666667E+00  0.0000000E+00  0.1388889E-01
    1      -13.631794
    2      -13.472724
    3      -13.472132
    4      -13.301291
    5      -12.654364
    6      -12.504580
    7      -12.504031
    8      -12.344019
    9      -11.699815
   10      -11.559449
   11      -11.558794
   12      -11.409526
   13       -9.011616
   14       -8.905650
   15       -8.905240
   16       -8.795943
   17       -7.106189
   18       -7.035259
   19       -7.033967
   20       -6.959821
   21       -4.805156
   22       -4.751328
   23       -4.750868
   24       -4.690668
   25       -4.645761
   26       -4.584481
   27       -4.581169
   28       -4.519218
   29       -3.659183
   30       -3.594684
   31       -3.592320
   32       -3.526057
   33       -2.591494
   34       -2.550614
   35       -2.547652
   36       -2.503404
   37       -2.333350
   38       -1.557153
   39       -1.519083
   40       -1.517365
   41       -1.473881
   42       -1.392203
   43       -1.390713
   44       -1.171598
   45       -1.057859
   46       -1.023761
   47       -1.019966
   48       -0.984910
   49       -0.279717
   50       -0.277894
   51       -0.251131
   52       -0.163629
   53       -0.138427
   54       -0.135804
   55       -0.109110
   56       -0.050264
   57        0.788167
   58        0.789728
   59        0.793719
   60        1.780048
   61        2.926575
   62        3.516710
   63        3.517606
   64        4.054358
   65        5.919942
   66        6.165776
   67        6.167803
   68        6.540438
   69        8.945377
   70        9.290705
   71        9.293487
   72        9.661264
   73       10.434022
   74       10.755185
   75       10.786178
   76       10.788597
   77       11.217578
   78       11.936041
   79       12.706083
   80       12.879345
   81       12.886761
   82       13.115383
   83       13.224619
   84       13.294692
 
 -0.3333333E+00  0.1666667E+00  0.0000000E+00  0.1388889E-01
    1      -14.289441
    2      -14.124109
    3      -14.123482
    4      -13.945310
    5      -11.384670
    6      -11.378876
    7      -11.247541
    8      -11.246911
    9      -11.241668
   10      -11.241152
   11      -11.101339
   12      -11.095498
   13       -9.014063
   14       -8.942678
   15       -8.942253
   16       -8.884898
   17       -7.958241
   18       -7.926417
   19       -7.925989
   20       -7.869503
   21       -5.810185
   22       -5.804677
   23       -5.725509
   24       -5.723061
   25       -5.719740
   26       -5.718110
   27       -5.634889
   28       -5.629717
   29       -3.377069
   30       -3.320722
   31       -3.320250
   32       -3.261787
   33       -3.125615
   34       -2.161133
   35       -2.159188
   36       -1.697850
   37       -1.685051
   38       -1.659358
   39       -1.656186
   40       -1.646180
   41       -1.643801
   42       -1.616814
   43       -1.604113
   44       -0.978473
   45        0.170499
   46        0.191259
   47        0.191449
   48        0.210720
   49        0.287409
   50        0.293434
   51        0.853616
   52        0.867273
   53        0.867562
   54        0.883147
   55        1.092209
   56        1.093765
   57        1.098739
   58        1.100858
   59        2.022543
   60        2.030511
   61        2.646042
   62        3.113798
   63        3.114226
   64        3.402989
   65        6.307776
   66        6.310308
   67        6.330505
   68        6.643031
   69        8.131282
   70        8.134672
   71        8.571045
   72        8.574710
   73        8.575015
   74        8.578376
   75        9.152936
   76        9.153156
   77        9.961425
   78       12.665145
   79       12.668774
   80       12.933752
   81       12.964389
   82       13.159965
   83       13.164364
   84       13.193014
 
 -0.1666667E+00  0.1666667E+00  0.0000000E+00  0.1388889E-01
    1      -14.620071
    2      -14.451591
    3      -14.450950
    4      -14.269059
    5      -10.765480
    6      -10.635386
    7      -10.634860
    8      -10.497423
    9       -9.876301
   10       -9.874217
   11       -9.761488
   12       -9.759945
   13       -9.759912
   14       -9.757233
   15       -9.640930
   16       -9.638791
   17       -7.755083
   18       -7.753217
   19       -7.664183
   20       -7.661668
   21       -7.661643
   22       -7.660507
   23       -7.563104
   24       -7.561310
   25       -6.919874
   26       -6.826003
   27       -6.823722
   28       -6.724962
   29       -3.526154
   30       -2.549416
   31       -2.547456
   32       -2.030603
   33       -2.028440
   34       -1.989345
   35       -1.988666
   36       -1.988656
   37       -1.984616
   38       -1.946513
   39       -1.943894
   40       -1.357540
   41       -1.349207
   42       -1.325136
   43       -1.322928
   44       -1.290179
   45        0.935096
   46        1.201948
   47        1.220885
   48        1.225942
   49        1.245529
   50        1.530460
   51        1.546916
   52        1.551389
   53        1.567147
   54        1.662909
   55        1.664506
   56        1.816481
   57        1.818564
   58        2.408904
   59        2.409625
   60        2.409806
   61        2.413716
   62        2.447782
   63        2.934872
   64        2.936941
   65        6.546833
   66        6.549320
   67        6.798951
   68        6.804568
   69        6.804927
   70        6.806822
   71        7.195926
   72        7.394716
   73        7.397759
   74        7.618836
   75        7.623325
   76        8.292616
   77        9.563763
   78       12.161971
   79       12.337442
   80       12.340891
   81       12.379602
   82       12.380684
   83       12.600387
   84       12.767416
 
  0.2710505E-19  0.3333333E+00  0.0000000E+00  0.1388889E-01
    1      -14.123949
    2      -13.960203
    3      -13.959577
    4      -13.783255
    5      -12.172276
    6      -12.027179
    7      -12.026602
    8      -11.871937
    9      -10.309532
   10      -10.305231
   11      -10.184935
   12      -10.183604
   13      -10.180373
   14      -10.178258
   15      -10.051685
   16      -10.047188
   17       -6.582667
   18       -6.574040
   19       -6.496949
   20       -6.496268
   21       -6.487335
   22       -6.487010
   23       -6.405943
   24       -6.397358
   25       -4.793691
   26       -4.714877
   27       -4.714393
   28       -4.632752
   29       -3.189547
   30       -3.176412
   31       -3.136736
   32       -3.134598
   33       -3.123040
   34       -3.121693
   35       -3.079333
   36       -3.066242
   37       -2.925911
   38       -1.967861
   39       -1.965919
   40       -0.900365
   41       -0.868393
   42       -0.867982
   43       -0.835809
   44       -0.794458
   45       -0.614824
   46       -0.445516
   47       -0.406669
   48       -0.406150
   49       -0.367025
   50        0.247078
   51        0.248739
   52        0.720610
   53        0.745342
   54        0.745746
   55        0.770615
   56        1.271046
   57        1.497482
   58        1.501587
   59        2.211418
   60        2.213714
   61        2.216901
   62        2.219810
   63        2.988520
   64        2.996557
   65        7.017204
   66        7.020182
   67        7.375315
   68        7.377505
   69        7.381484
   70        7.383906
   71        7.850546
   72        7.855053
   73        9.328510
   74        9.765000
   75        9.767892
   76       10.159022
   77       10.340322
   78       12.304171
   79       12.527605
   80       12.582062
   81       12.582426
   82       12.760012
   83       12.763914
   84       12.946127
 
  0.1666667E+00  0.3333333E+00  0.0000000E+00  0.1388889E-01
    1      -13.630583
    2      -13.471512
    3      -13.470921
    4      -13.300086
    5      -12.656013
    6      -12.506256
    7      -12.505641
    8      -12.345656
    9      -11.698642
   10      -11.558235
   11      -11.557654
   12      -11.408344
   13       -9.014344
   14       -8.908659
   15       -8.908335
   16       -8.799421
   17       -7.111010
   18       -7.040772
   19       -7.038578
   20       -6.964952
   21       -4.796672
   22       -4.742874
   23       -4.741708
   24       -4.681598
   25       -4.637776
   26       -4.575781
   27       -4.574791
   28       -4.512212
   29       -3.654104
   30       -3.588973
   31       -3.587820
   32       -3.520908
   33       -2.600787
   34       -2.559828
   35       -2.557814
   36       -2.513369
   37       -2.332098
   38       -1.558015
   39       -1.520053
   40       -1.518260
   41       -1.474946
   42       -1.390992
   43       -1.389491
   44       -1.173548
   45       -1.062954
   46       -1.027273
   47       -1.026884
   48       -0.990298
   49       -0.281557
   50       -0.279851
   51       -0.250037
   52       -0.162448
   53       -0.137200
   54       -0.134641
   55       -0.108001
   56       -0.048706
   57        0.789237
   58        0.790757
   59        0.793261
   60        1.782362
   61        2.926291
   62        3.513555
   63        3.514698
   64        4.044993
   65        5.923939
   66        6.165104
   67        6.167507
   68        6.540281
   69        8.947878
   70        9.293282
   71        9.294611
   72        9.661039
   73       10.434502
   74       10.757058
   75       10.787594
   76       10.791395
   77       11.221413
   78       11.933565
   79       12.709441
   80       12.878334
   81       12.885993
   82       13.116728
   83       13.222533
   84       13.299063
 
  0.3333333E+00  0.3333333E+00  0.0000000E+00  0.1388889E-01
    1      -12.820709
    2      -12.818009
    3      -12.815479
    4      -12.670810
    5      -12.667598
    6      -12.667581
    7      -12.665914
    8      -12.664703
    9      -12.662000
   10      -12.506948
   11      -12.504263
   12      -12.501660
   13       -7.801318
   14       -7.694315
   15       -7.692719
   16       -7.685495
   17       -7.683223
   18       -7.678459
   19       -7.676250
   20       -7.572358
   21       -5.642311
   22       -5.641894
   23       -5.635680
   24       -5.634658
   25       -2.887877
   26       -2.884606
   27       -2.882830
   28       -2.855783
   29       -2.851046
   30       -2.851034
   31       -2.850362
   32       -2.850175
   33       -2.845011
   34       -2.820507
   35       -2.818151
   36       -2.814436
   37       -1.523684
   38       -1.519669
   39       -1.517124
   40       -1.502694
   41       -1.499198
   42       -1.497375
   43       -1.496715
   44       -1.496697
   45       -1.491268
   46       -1.472696
   47       -1.471053
   48       -1.466529
   49       -1.363919
   50       -1.361564
   51       -1.359104
   52       -0.463784
   53       -0.460278
   54       -0.460049
   55       -0.458719
   56       -0.457556
   57       -0.454320
   58        0.626192
   59        0.628596
   60        0.631355
   61        4.151719
   62        4.836337
   63        4.845618
   64        4.859176
   65        4.859643
   66        4.884385
   67        4.885482
   68        5.682225
   69       10.963997
   70       10.966851
   71       10.971453
   72       11.230764
   73       11.234920
   74       11.235217
   75       11.236264
   76       11.236875
   77       11.239381
   78       11.514913
   79       11.520122
   80       11.522930
   81       11.752407
   82       11.754021
   83       11.758134
   84       14.118635
 
  0.5000000E+00  0.3333333E+00  0.0000000E+00  0.1388889E-01
    1      -13.632493
    2      -13.473430
    3      -13.472811
    4      -13.301985
    5      -12.657903
    6      -12.508173
    7      -12.507498
    8      -12.347540
    9      -11.694810
   10      -11.554375
   11      -11.553858
   12      -11.404519
   13       -9.004232
   14       -8.898428
   15       -8.897818
   16       -8.788738
   17       -7.114377
   18       -7.043756
   19       -7.043223
   20       -6.969389
   21       -4.803312
   22       -4.750005
   23       -4.748784
   24       -4.689092
   25       -4.644207
   26       -4.583106
   27       -4.580665
   28       -4.518989
   29       -3.665899
   30       -3.601509
   31       -3.598364
   32       -3.532165
   33       -2.596717
   34       -2.556634
   35       -2.552880
   36       -2.509294
   37       -2.334177
   38       -1.566142
   39       -1.527854
   40       -1.525430
   41       -1.482085
   42       -1.393213
   43       -1.391792
   44       -1.175578
   45       -1.047797
   46       -1.013247
   47       -1.010226
   48       -0.974842
   49       -0.283767
   50       -0.282041
   51       -0.252055
   52       -0.153862
   53       -0.128184
   54       -0.126144
   55       -0.099132
   56       -0.044982
   57        0.789187
   58        0.793558
   59        0.795451
   60        1.785937
   61        2.932048
   62        3.521349
   63        3.522780
   64        4.056505
   65        5.925219
   66        6.161808
   67        6.163418
   68        6.528545
   69        8.950303
   70        9.290700
   71        9.293250
   72        9.654162
   73       10.427566
   74       10.754205
   75       10.781362
   76       10.786253
   77       11.218775
   78       11.931465
   79       12.702041
   80       12.875189
   81       12.882774
   82       13.122146
   83       13.224024
   84       13.321297
 
 -0.3333333E+00  0.3333333E+00  0.0000000E+00  0.1388889E-01
    1      -14.124900
    2      -13.961159
    3      -13.960517
    4      -13.784198
    5      -12.176105
    6      -12.031047
    7      -12.030397
    8      -11.875773
    9      -10.301944
   10      -10.300127
   11      -10.177109
   12      -10.175645
   13      -10.175603
   14      -10.173387
   15      -10.043995
   16      -10.042129
   17       -6.581386
   18       -6.579426
   19       -6.496550
   20       -6.493754
   21       -6.493728
   22       -6.492702
   23       -6.405152
   24       -6.403281
   25       -4.803628
   26       -4.725646
   27       -4.723163
   28       -4.642342
   29       -3.188076
   30       -3.186269
   31       -3.134380
   32       -3.134309
   33       -3.134231
   34       -3.130328
   35       -3.078254
   36       -3.076063
   37       -2.926969
   38       -1.968915
   39       -1.966989
   40       -0.884331
   41       -0.853315
   42       -0.850790
   43       -0.819612
   44       -0.795550
   45       -0.618778
   46       -0.457384
   47       -0.419972
   48       -0.415758
   49       -0.377967
   50        0.242849
   51        0.244470
   52        0.732682
   53        0.756163
   54        0.759889
   55        0.783306
   56        1.266191
   57        1.503729
   58        1.505735
   59        2.219236
   60        2.220158
   61        2.220380
   62        2.224267
   63        2.997521
   64        2.999864
   65        7.019073
   66        7.021828
   67        7.374009
   68        7.379055
   69        7.379265
   70        7.380609
   71        7.845519
   72        7.848267
   73        9.321343
   74        9.757988
   75        9.761561
   76       10.157649
   77       10.336274
   78       12.319347
   79       12.547239
   80       12.611564
   81       12.612860
   82       12.761045
   83       12.765107
   84       12.968226
 
 -0.1666667E+00  0.3333333E+00  0.0000000E+00  0.1388889E-01
    1      -14.289429
    2      -14.124104
    3      -14.123462
    4      -13.945297
    5      -11.385087
    6      -11.378539
    7      -11.248343
    8      -11.247418
    9      -11.241584
   10      -11.239926
   11      -11.101692
   12      -11.095069
   13       -9.013308
   14       -8.942657
   15       -8.940730
   16       -8.884151
   17       -7.960004
   18       -7.929208
   19       -7.926406
   20       -7.871053
   21       -5.810739
   22       -5.803468
   23       -5.725523
   24       -5.724874
   25       -5.718133
   26       -5.716352
   27       -5.635389
   28       -5.628319
   29       -3.376051
   30       -3.320705
   31       -3.318103
   32       -3.260633
   33       -3.125646
   34       -2.161165
   35       -2.159230
   36       -1.699135
   37       -1.684905
   38       -1.659372
   39       -1.658992
   40       -1.645444
   41       -1.643800
   42       -1.618135
   43       -1.603817
   44       -0.978520
   45        0.172291
   46        0.191263
   47        0.195854
   48        0.213841
   49        0.287218