 vasp.5.3.5 31Mar14 (build Nov 02 2014 15:17:37) complex                        
  
 executed on        ion-Intel-MKL date 2016.10.18  06:25:30
 running on    6 total cores
 distrk:  each k-point on    6 cores,    1 groups
 distr:  one band on NCORES_PER_BAND=   1 cores,    6 groups


--------------------------------------------------------------------------------------------------------


 INCAR:
 POTCAR:   PAW_PBE C 08Apr2002                    

 ----------------------------------------------------------------------------- 
|                                                                             |
|           W    W    AA    RRRRR   N    N  II  N    N   GGGG   !!!           |
|           W    W   A  A   R    R  NN   N  II  NN   N  G    G  !!!           |
|           W    W  A    A  R    R  N N  N  II  N N  N  G       !!!           |
|           W WW W  AAAAAA  RRRRR   N  N N  II  N  N N  G  GGG   !            |
|           WW  WW  A    A  R   R   N   NN  II  N   NN  G    G                |
|           W    W  A    A  R    R  N    N  II  N    N   GGGG   !!!           |
|                                                                             |
|      For optimal performance we recommend to set                            |
|        NCORE= 4 - approx SQRT( number of cores)                             |
|      NCORE specifies how many cores store one orbital (NPAR=cpu/NCORE).     |
|      This setting can  greatly improve the performance of VASP for DFT.     |
|      The default, NPAR=number of cores might be grossly inefficient         |
|      on modern multi-core architectures or massively parallel machines.     |
|      Do your own testing !!!!                                               |
|      Unfortunately you need to use the default for GW and RPA calculations. |
|      (for HF NCORE is supported but not extensively tested yet)             |
|                                                                             |
 ----------------------------------------------------------------------------- 

 POTCAR:   PAW_PBE C 08Apr2002                    
   VRHFIN =C: s2p2                                                              
   LEXCH  = PE                                                                  
   EATOM  =   147.1560 eV,   10.8157 Ry                                         
                                                                                
   TITEL  = PAW_PBE C 08Apr2002                                                 
   LULTRA =        F    use ultrasoft PP ?                                      
   IUNSCR =        0    unscreen: 0-lin 1-nonlin 2-no                           
   RPACOR =     .000    partial core radius                                     
   POMASS =   12.011; ZVAL   =    4.000    mass and valenz                      
   RCORE  =    1.500    outmost cutoff radius                                   
   RWIGS  =    1.630; RWIGS  =     .863    wigner-seitz radius (au A)           
   ENMAX  =  400.000; ENMIN  =  300.000 eV                                      
   ICORE  =        2    local potential                                         
   LCOR   =        T    correct aug charges                                     
   LPAW   =        T    paw PP                                                  
   EAUG   =  644.873                                                            
   DEXC   =     .000                                                            
   RMAX   =    2.266    core radius for proj-oper                               
   RAUG   =    1.300    factor for augmentation sphere                          
   RDEP   =    1.501    radius for radial grids                                 
   RDEPT  =    1.300    core radius for aug-charge                              
   QCUT   =   -5.516; QGAM   =   11.032    optimization parameters              
                                                                                
   Description                                                                  
     l     E      TYP  RCUT    TYP  RCUT                                        
     0   .000     23  1.200                                                     
     0   .000     23  1.200                                                     
     1   .000     23  1.500                                                     
     1  2.500     23  1.500                                                     
     2   .000      7  1.500                                                     
  local pseudopotential read in
  atomic valenz-charges read in
  non local Contribution for L=           0  read in
    real space projection operators read in
  non local Contribution for L=           0  read in
    real space projection operators read in
  non local Contribution for L=           1  read in
    real space projection operators read in
  non local Contribution for L=           1  read in
    real space projection operators read in
    PAW grid and wavefunctions read in
 
   number of l-projection  operators is LMAX  =           4
   number of lm-projection operators is LMMAX =           8
 

 ----------------------------------------------------------------------------- 
|                                                                             |
|  ADVICE TO THIS USER RUNNING 'VASP/VAMP'   (HEAR YOUR MASTER'S VOICE ...):  |
|                                                                             |
|      You have a (more or less) 'large supercell' and for larger cells       |
|      it might be more efficient to use real space projection operators      |
|      So try LREAL= Auto  in the INCAR   file.                               |
|      Mind: If you want to do a very accurate calculations keep the          |
|      reciprocal projection scheme          (i.e. LREAL=.FALSE.)             |
|                                                                             |
 ----------------------------------------------------------------------------- 

 PAW_PBE C 08Apr2002                    :
 energy of atom  1       EATOM= -147.1560
 kinetic energy error for atom=    0.0016 (will be added to EATOM!!)
 
 
 POSCAR: C                                       
  positions in direct lattice
  No initial velocities read in
 exchange correlation table for  LEXCH =        8
   RHO(1)=    0.500       N(1)  =     2000
   RHO(2)=  100.500       N(2)  =     4000
 


--------------------------------------------------------------------------------------------------------


 ion  position               nearest neighbor table
   1  0.500  0.000  0.125-  18 1.42  19 1.42  20 1.42
   2  1.000  0.000  0.125-  20 1.42  17 1.42  19 1.42
   3  0.500  0.500  0.125-  17 1.42  20 1.42  18 1.42
   4  1.000  0.500  0.125-  19 1.42  18 1.42  17 1.43
   5  0.500  0.000  0.625-  22 1.42  23 1.42  24 1.42
   6  1.000  0.000  0.625-  21 1.42  24 1.42  23 1.42
   7  0.500  0.500  0.625-  24 1.42  21 1.42  22 1.42
   8  1.000  0.500  0.625-  23 1.42  22 1.42  21 1.42
   9  0.000  0.500  0.375-  27 1.42  26 1.42  28 1.42
  10  0.500  0.500  0.375-  28 1.42  25 1.42  27 1.42
  11  0.000  1.000  0.375-  25 1.42  28 1.42  26 1.42
  12  0.500  1.000  0.375-  26 1.42  27 1.42  25 1.42
  13  0.000  0.500  0.875-  31 1.42  30 1.42  32 1.42
  14  0.500  0.500  0.875-  32 1.42  29 1.42  31 1.42
  15  0.000  1.000  0.875-  29 1.42  32 1.42  30 1.42
  16  0.500  1.000  0.875-  30 1.42  31 1.42  29 1.42
  17  0.167  0.334  0.126-   3 1.42   2 1.42   4 1.43
  18  0.666  0.334  0.125-   1 1.42   4 1.42   3 1.42
  19  0.166  0.834  0.125-   4 1.42   1 1.42   2 1.42
  20  0.666  0.834  0.125-   3 1.42   2 1.42   1 1.42
  21  0.166  0.334  0.625-   6 1.42   7 1.42   8 1.42
  22  0.666  0.334  0.625-   5 1.42   8 1.42   7 1.42
  23  0.166  0.834  0.625-   8 1.42   5 1.42   6 1.42
  24  0.666  0.834  0.625-   7 1.42   6 1.42   5 1.42
  25  0.334  0.166  0.375-  11 1.42  10 1.42  12 1.42
  26  0.834  0.166  0.375-  12 1.42   9 1.42  11 1.42
  27  0.334  0.666  0.375-   9 1.42  12 1.42  10 1.42
  28  0.834  0.666  0.375-  10 1.42  11 1.42   9 1.42
  29  0.334  0.166  0.875-  15 1.42  14 1.42  16 1.42
  30  0.834  0.166  0.875-  16 1.42  13 1.42  15 1.42
  31  0.334  0.666  0.875-  13 1.42  16 1.42  14 1.42
  32  0.834  0.666  0.875-  14 1.42  15 1.42  13 1.42
 
  LATTYP: Found a base centered orthorhombic cell.
 ALAT       =     4.9295501972
 B/A-ratio  =     1.7336081796
 C/A-ratio  =     2.6637047837
  
  Lattice vectors:
  
 A1 = (   4.9328744980,  -0.0019192860,   0.0000000000)
 A2 = (  -2.4680993993,   4.2710349859,   0.0000000000)
 A3 = (   0.0000000000,   0.0000000000,  13.1308664417)


Analysis of symmetry for initial positions (statically):
=====================================================================
 Subroutine PRICEL returns:
 Original cell was already a primitive cell.
 

 Routine SETGRP: Setting up the symmetry group for a 
 base centered orthorhombic supercell.


 Subroutine GETGRP returns: Found  1 space group operations
 (whereof  1 operations were pure point group operations)
 out of a pool of  8 trial point group operations.


The static configuration has the point symmetry C_1 .


Analysis of symmetry for dynamics (positions and initial velocities):
=====================================================================
 Subroutine PRICEL returns:
 Original cell was already a primitive cell.
 

 Routine SETGRP: Setting up the symmetry group for a 
 base centered orthorhombic supercell.


 Subroutine GETGRP returns: Found  1 space group operations
 (whereof  1 operations were pure point group operations)
 out of a pool of  8 trial point group operations.


The dynamic configuration has the point symmetry C_1 .
 
 
 KPOINTS: B4C B11C-CBC                            

Automatic generation of k-mesh.
Space group operators:
 irot       det(A)        alpha          n_x          n_y          n_z        tau_x        tau_y        tau_z
    1     1.000000     0.000000     1.000000     0.000000     0.000000     0.000000     0.000000     0.000000
 
 Subroutine IBZKPT returns following result:
 ===========================================
 
 Found     76 irreducible k-points:
 
 Following reciprocal coordinates:
            Coordinates               Weight
  0.000000  0.000000  0.000000      1.000000
  0.166667  0.000000  0.000000      2.000000
  0.333333  0.000000  0.000000      2.000000
  0.500000  0.000000  0.000000      1.000000
  0.000000  0.166667  0.000000      2.000000
  0.166667  0.166667  0.000000      2.000000
  0.333333  0.166667  0.000000      2.000000
  0.500000  0.166667  0.000000      2.000000
 -0.333333  0.166667  0.000000      2.000000
 -0.166667  0.166667  0.000000      2.000000
  0.000000  0.333333  0.000000      2.000000
  0.166667  0.333333  0.000000      2.000000
  0.333333  0.333333  0.000000      2.000000
  0.500000  0.333333  0.000000      2.000000
 -0.333333  0.333333  0.000000      2.000000
 -0.166667  0.333333  0.000000      2.000000
  0.000000  0.500000  0.000000      1.000000
  0.166667  0.500000  0.000000      2.000000
  0.333333  0.500000  0.000000      2.000000
  0.500000  0.500000  0.000000      1.000000
  0.000000  0.000000  0.250000      2.000000
  0.166667  0.000000  0.250000      2.000000
  0.333333  0.000000  0.250000      2.000000
  0.500000  0.000000  0.250000      2.000000
 -0.333333 -0.000000  0.250000      2.000000
 -0.166667 -0.000000  0.250000      2.000000
  0.000000  0.166667  0.250000      2.000000
  0.166667  0.166667  0.250000      2.000000
  0.333333  0.166667  0.250000      2.000000
  0.500000  0.166667  0.250000      2.000000
 -0.333333  0.166667  0.250000      2.000000
 -0.166667  0.166667  0.250000      2.000000
  0.000000  0.333333  0.250000      2.000000
  0.166667  0.333333  0.250000      2.000000
  0.333333  0.333333  0.250000      2.000000
  0.500000  0.333333  0.250000      2.000000
 -0.333333  0.333333  0.250000      2.000000
 -0.166667  0.333333  0.250000      2.000000
  0.000000  0.500000  0.250000      2.000000
  0.166667  0.500000  0.250000      2.000000
  0.333333  0.500000  0.250000      2.000000
  0.500000  0.500000  0.250000      2.000000
 -0.333333  0.500000  0.250000      2.000000
 -0.166667  0.500000  0.250000      2.000000
 -0.000000 -0.333333  0.250000      2.000000
  0.166667 -0.333333  0.250000      2.000000
  0.333333 -0.333333  0.250000      2.000000
  0.500000 -0.333333  0.250000      2.000000
 -0.333333 -0.333333  0.250000      2.000000
 -0.166667 -0.333333  0.250000      2.000000
  0.000000 -0.166667  0.250000      2.000000
  0.166667 -0.166667  0.250000      2.000000
  0.333333 -0.166667  0.250000      2.000000
  0.500000 -0.166667  0.250000      2.000000
 -0.333333 -0.166667  0.250000      2.000000
 -0.166667 -0.166667  0.250000      2.000000
  0.000000  0.000000  0.500000      1.000000
  0.166667  0.000000  0.500000      2.000000
  0.333333  0.000000  0.500000      2.000000
  0.500000  0.000000  0.500000      1.000000
  0.000000  0.166667  0.500000      2.000000
  0.166667  0.166667  0.500000      2.000000
  0.333333  0.166667  0.500000      2.000000
  0.500000  0.166667  0.500000      2.000000
 -0.333333  0.166667  0.500000      2.000000
 -0.166667  0.166667  0.500000      2.000000
  0.000000  0.333333  0.500000      2.000000
  0.166667  0.333333  0.500000      2.000000
  0.333333  0.333333  0.500000      2.000000
  0.500000  0.333333  0.500000      2.000000
 -0.333333  0.333333  0.500000      2.000000
 -0.166667  0.333333  0.500000      2.000000
  0.000000  0.500000  0.500000      1.000000
  0.166667  0.500000  0.500000      2.000000
  0.333333  0.500000  0.500000      2.000000
  0.500000  0.500000  0.500000      1.000000
 
 Following cartesian coordinates:
            Coordinates               Weight
  0.000000  0.000000  0.000000      1.000000
  0.033795  0.019529  0.000000      2.000000
  0.067589  0.039058  0.000000      2.000000
  0.101384  0.058586  0.000000      1.000000
  0.000015  0.039031  0.000000      2.000000
  0.033810  0.058560  0.000000      2.000000
  0.067604  0.078089  0.000000      2.000000
  0.101399  0.097618  0.000000      2.000000
 -0.067574 -0.000026  0.000000      2.000000
 -0.033779  0.019503  0.000000      2.000000
  0.000030  0.078063  0.000000      2.000000
  0.033825  0.097591  0.000000      2.000000
  0.067619  0.117120  0.000000      2.000000
  0.101414  0.136649  0.000000      2.000000
 -0.067559  0.039005  0.000000      2.000000
 -0.033764  0.058534  0.000000      2.000000
  0.000046  0.117094  0.000000      1.000000
  0.033840  0.136623  0.000000      2.000000
  0.067635  0.156152  0.000000      2.000000
  0.101429  0.175680  0.000000      1.000000
  0.000000  0.000000  0.019039      2.000000
  0.033795  0.019529  0.019039      2.000000
  0.067589  0.039058  0.019039      2.000000
  0.101384  0.058586  0.019039      2.000000
 -0.067589 -0.039058  0.019039      2.000000
 -0.033795 -0.019529  0.019039      2.000000
  0.000015  0.039031  0.019039      2.000000
  0.033810  0.058560  0.019039      2.000000
  0.067604  0.078089  0.019039      2.000000
  0.101399  0.097618  0.019039      2.000000
 -0.067574 -0.000026  0.019039      2.000000
 -0.033779  0.019503  0.019039      2.000000
  0.000030  0.078063  0.019039      2.000000
  0.033825  0.097591  0.019039      2.000000
  0.067619  0.117120  0.019039      2.000000
  0.101414  0.136649  0.019039      2.000000
 -0.067559  0.039005  0.019039      2.000000
 -0.033764  0.058534  0.019039      2.000000
  0.000046  0.117094  0.019039      2.000000
  0.033840  0.136623  0.019039      2.000000
  0.067635  0.156152  0.019039      2.000000
  0.101429  0.175680  0.019039      2.000000
 -0.067543  0.078036  0.019039      2.000000
 -0.033749  0.097565  0.019039      2.000000
 -0.000030 -0.078063  0.019039      2.000000
  0.033764 -0.058534  0.019039      2.000000
  0.067559 -0.039005  0.019039      2.000000
  0.101353 -0.019476  0.019039      2.000000
 -0.067619 -0.117120  0.019039      2.000000
 -0.033825 -0.097591  0.019039      2.000000
 -0.000015 -0.039031  0.019039      2.000000
  0.033779 -0.019503  0.019039      2.000000
  0.067574  0.000026  0.019039      2.000000
  0.101368  0.019555  0.019039      2.000000
 -0.067604 -0.078089  0.019039      2.000000
 -0.033810 -0.058560  0.019039      2.000000
  0.000000  0.000000  0.038078      1.000000
  0.033795  0.019529  0.038078      2.000000
  0.067589  0.039058  0.038078      2.000000
  0.101384  0.058586  0.038078      1.000000
  0.000015  0.039031  0.038078      2.000000
  0.033810  0.058560  0.038078      2.000000
  0.067604  0.078089  0.038078      2.000000
  0.101399  0.097618  0.038078      2.000000
 -0.067574 -0.000026  0.038078      2.000000
 -0.033779  0.019503  0.038078      2.000000
  0.000030  0.078063  0.038078      2.000000
  0.033825  0.097591  0.038078      2.000000
  0.067619  0.117120  0.038078      2.000000
  0.101414  0.136649  0.038078      2.000000
 -0.067559  0.039005  0.038078      2.000000
 -0.033764  0.058534  0.038078      2.000000
  0.000046  0.117094  0.038078      1.000000
  0.033840  0.136623  0.038078      2.000000
  0.067635  0.156152  0.038078      2.000000
  0.101429  0.175680  0.038078      1.000000
 
 TETIRR: Found    432 inequivalent tetrahedra from      864


--------------------------------------------------------------------------------------------------------




 Dimension of arrays:
   k-points           NKPTS =     76   k-points in BZ     NKDIM =     76   number of bands    NBANDS=     84
   number of dos      NEDOS =    301   number of ions     NIONS =     32
   non local maximal  LDIM  =      4   non local SUM 2l+1 LMDIM =      8
   total plane-waves  NPLWV = 290304
   max r-space proj   IRMAX =      1   max aug-charges    IRDMAX=  12584
   dimension x,y,z NGX =    48 NGY =   48 NGZ =  126
   dimension x,y,z NGXF=    96 NGYF=   96 NGZF=  252
   support grid    NGXF=    96 NGYF=   96 NGZF=  252
   ions per type =              32
 NGX,Y,Z   is equivalent  to a cutoff of  16.18, 16.18, 15.95 a.u.
 NGXF,Y,Z  is equivalent  to a cutoff of  32.35, 32.35, 31.90 a.u.


 I would recommend the setting:
   dimension x,y,z NGX =    46 NGY =   46 NGZ =  121
 SYSTEM =  graphite                                
 POSCAR =  C                                       

 Startparameter for this run:
   NWRITE =      2    write-flag & timer
   PREC   = accura    normal or accurate (medium, high low for compatibility)
   ISTART =      0    job   : 0-new  1-cont  2-samecut
   ICHARG =      2    charge: 1-file 2-atom 10-const
   ISPIN  =      1    spin polarized calculation?
   LNONCOLLINEAR =      F non collinear calculations
   LSORBIT =      F    spin-orbit coupling
   INIWAV =      1    electr: 0-lowe 1-rand  2-diag
   LASPH  =      F    aspherical Exc in radial PAW
   METAGGA=      F    non-selfconsistent MetaGGA calc.

 Electronic Relaxation 1
   ENCUT  =  800.0 eV  58.80 Ry    7.67 a.u.  11.38 11.38 30.28*2*pi/ulx,y,z
   ENINI  =  800.0     initial cutoff
   ENAUG  =  644.9 eV  augmentation charge cutoff
   NELM   =    200;   NELMIN=  2; NELMDL=  0     # of ELM steps 
   EDIFF  = 0.1E-07   stopping-criterion for ELM
   LREAL  =      F    real-space projection
   NLSPLINE    = F    spline interpolate recip. space projectors
   LCOMPAT=      F    compatible to vasp.4.4
   GGA_COMPAT  = T    GGA compatible to vasp.4.4-vasp.4.6
   LMAXPAW     = -100 max onsite density
   LMAXMIX     =    2 max onsite mixed and CHGCAR
   VOSKOWN=      0    Vosko Wilk Nusair interpolation
   ROPT   =    0.00000
 Ionic relaxation
   EDIFFG = 0.1E-02   stopping-criterion for IOM
   NSW    =      0    number of steps for IOM
   NBLOCK =      1;   KBLOCK =      1    inner block; outer block 
   IBRION =     -1    ionic relax: 0-MD 1-quasi-New 2-CG
   NFREE  =      0    steps in history (QN), initial steepest desc. (CG)
   ISIF   =      2    stress and relaxation
   IWAVPR =     10    prediction:  0-non 1-charg 2-wave 3-comb
   ISYM   =      2    0-nonsym 1-usesym 2-fastsym
   LCORR  =      T    Harris-Foulkes like correction to forces

   POTIM  = 0.5000    time-step for ionic-motion
   TEIN   =    0.0    initial temperature
   TEBEG  =    0.0;   TEEND  =   0.0 temperature during run
   SMASS  =  -3.00    Nose mass-parameter (am)
   estimated Nose-frequenzy (Omega)   =  0.10E-29 period in steps =****** mass=  -0.556E-27a.u.
   SCALEE = 1.0000    scale energy and forces
   NPACO  =    256;   APACO  = 16.0  distance and # of slots for P.C.
   PSTRESS=    0.0 pullay stress

  Mass of Ions in am
   POMASS =  12.01
  Ionic Valenz
   ZVAL   =   4.00
  Atomic Wigner-Seitz radii
   RWIGS  =  -1.00
  virtual crystal weights 
   VCA    =   1.00
   NELECT =     128.0000    total number of electrons
   NUPDOWN=      -1.0000    fix difference up-down

 DOS related values:
   EMIN   =  10.00;   EMAX   =-10.00  energy-range for DOS
   EFERMI =   0.00
   ISMEAR =    -5;   SIGMA  =   0.20  broadening in eV -4-tet -1-fermi 0-gaus

 Electronic relaxation 2 (details)
   IALGO  =     38    algorithm
   LDIAG  =      T    sub-space diagonalisation (order eigenvalues)
   LSUBROT=      F    optimize rotation matrix (better conditioning)
   TURBO    =      0    0=normal 1=particle mesh
   IRESTART =      0    0=no restart 2=restart with 2 vectors
   NREBOOT  =      0    no. of reboots
   NMIN     =      0    reboot dimension
   EREF     =   0.00    reference energy to select bands
   IMIX   =      4    mixing-type and parameters
     AMIX     =   0.40;   BMIX     =  1.00
     AMIX_MAG =   1.60;   BMIX_MAG =  1.00
     AMIN     =   0.10
     WC   =   100.;   INIMIX=   1;  MIXPRE=   1;  MAXMIX= -45

 Intra band minimization:
   WEIMIN = 0.0000     energy-eigenvalue tresh-hold
   EBREAK =  0.30E-10  absolut break condition
   DEPER  =   0.30     relativ break condition  

   TIME   =   0.40     timestep for ELM

  volume/ion in A,a.u.               =       8.64        58.33
  Fermi-wavevector in a.u.,A,eV,Ry     =   1.266296  2.392952 21.817012  1.603505
  Thomas-Fermi vector in A             =   2.399504
 
 Write flags
   LWAVE  =      F    write WAVECAR
   LCHARG =      F    write CHGCAR
   LVTOT  =      F    write LOCPOT, total local potential
   LVHAR  =      F    write LOCPOT, Hartree potential only
   LELF   =      F    write electronic localiz. function (ELF)
   LORBIT =      0    0 simple, 1 ext, 2 COOP (PROOUT)


 Dipole corrections
   LMONO  =      F    monopole corrections only (constant potential shift)
   LDIPOL =      F    correct potential (dipole corrections)
   IDIPOL =      0    1-x, 2-y, 3-z, 4-all directions 
   EPSILON=  1.0000000 bulk dielectric constant

 Exchange correlation treatment:
   GGA     =    PE    GGA type
   LEXCH   =     8    internal setting for exchange type
   VOSKOWN=      0    Vosko Wilk Nusair interpolation
   LHFCALC =     F    Hartree Fock is set to
   LHFONE  =     F    Hartree Fock one center treatment
   AEXX    =    0.0000 exact exchange contribution

 Linear response parameters
   LEPSILON=     F    determine dielectric tensor
   LRPA    =     F    only Hartree local field effects (RPA)
   LNABLA  =     F    use nabla operator in PAW spheres
   LVEL    =     F    velocity operator in full k-point grid
   LINTERFAST=   F  fast interpolation
   KINTER  =     0    interpolate to denser k-point grid
   CSHIFT  =0.1000    complex shift for real part using Kramers Kronig
   OMEGAMAX=  -1.0    maximum frequency
   DEG_THRESHOLD= 0.2000000E-02 threshold for treating states as degnerate
   RTIME   =    0.100 relaxation time in fs

 Orbital magnetization related:
   ORBITALMAG=     F  switch on orbital magnetization
   LCHIMAG   =     F  perturbation theory with respect to B field
   DQ        =  0.001000  dq finite difference perturbation B field



--------------------------------------------------------------------------------------------------------


 Static calculation
 charge density and potential will be updated during run
 non-spin polarized calculation
 Variant of blocked Davidson
 Davidson routine will perform the subspace rotation
 perform sub-space diagonalisation
    after iterative eigenvector-optimisation
 modified Broyden-mixing scheme, WC =      100.0
 initial mixing is a Kerker type mixing with AMIX =  0.4000 and BMIX =      1.0000
 Hartree-type preconditioning will be used
 using additional bands           20
 reciprocal scheme for non local part
 calculate Harris-corrections to forces 
   (improved forces if not selfconsistent)
 use gradient corrections 
 use of overlap-Matrix (Vanderbilt PP)
 Fermi weights with tetrahedron method with Bloechl corrections


--------------------------------------------------------------------------------------------------------


  energy-cutoff  :      800.00
  volume of cell :      276.59
      direct lattice vectors                 reciprocal lattice vectors
     4.932874498 -0.001919286  0.000000000     0.202767147  0.117172881  0.000000000
    -2.468099399  4.271034986  0.000000000     0.000091118  0.234187941  0.000000000
     0.000000000  0.000000000 13.130866442     0.000000000  0.000000000  0.076156437

  length of vectors
     4.932874871  4.932874871 13.130866442     0.234187958  0.234187958  0.076156437


 
 k-points in units of 2pi/SCALE and weight: B4C B11C-CBC                            
   0.00000000  0.00000000  0.00000000       0.007
   0.03379452  0.01952881  0.00000000       0.014
   0.06758905  0.03905763  0.00000000       0.014
   0.10138357  0.05858644  0.00000000       0.007
   0.00001519  0.03903132  0.00000000       0.014
   0.03380971  0.05856014  0.00000000       0.014
   0.06760424  0.07808895  0.00000000       0.014
   0.10139876  0.09761776  0.00000000       0.014
  -0.06757386 -0.00002630  0.00000000       0.014
  -0.03377934  0.01950251  0.00000000       0.014
   0.00003037  0.07806265  0.00000000       0.014
   0.03382490  0.09759146  0.00000000       0.014
   0.06761942  0.11712027  0.00000000       0.014
   0.10141395  0.13664909  0.00000000       0.014
  -0.06755868  0.03900502  0.00000000       0.014
  -0.03376415  0.05853383  0.00000000       0.014
   0.00004556  0.11709397  0.00000000       0.007
   0.03384008  0.13662278  0.00000000       0.014
   0.06763461  0.15615160  0.00000000       0.014
   0.10142913  0.17568041  0.00000000       0.007
   0.00000000  0.00000000  0.01903911       0.014
   0.03379452  0.01952881  0.01903911       0.014
   0.06758905  0.03905763  0.01903911       0.014
   0.10138357  0.05858644  0.01903911       0.014
  -0.06758905 -0.03905763  0.01903911       0.014
  -0.03379452 -0.01952881  0.01903911       0.014
   0.00001519  0.03903132  0.01903911       0.014
   0.03380971  0.05856014  0.01903911       0.014
   0.06760424  0.07808895  0.01903911       0.014
   0.10139876  0.09761776  0.01903911       0.014
  -0.06757386 -0.00002630  0.01903911       0.014
  -0.03377934  0.01950251  0.01903911       0.014
   0.00003037  0.07806265  0.01903911       0.014
   0.03382490  0.09759146  0.01903911       0.014
   0.06761942  0.11712027  0.01903911       0.014
   0.10141395  0.13664909  0.01903911       0.014
  -0.06755868  0.03900502  0.01903911       0.014
  -0.03376415  0.05853383  0.01903911       0.014
   0.00004556  0.11709397  0.01903911       0.014
   0.03384008  0.13662278  0.01903911       0.014
   0.06763461  0.15615160  0.01903911       0.014
   0.10142913  0.17568041  0.01903911       0.014
  -0.06754349  0.07803634  0.01903911       0.014
  -0.03374897  0.09756516  0.01903911       0.014
  -0.00003037 -0.07806265  0.01903911       0.014
   0.03376415 -0.05853383  0.01903911       0.014
   0.06755868 -0.03900502  0.01903911       0.014
   0.10135320 -0.01947621  0.01903911       0.014
  -0.06761942 -0.11712027  0.01903911       0.014
  -0.03382490 -0.09759146  0.01903911       0.014
  -0.00001519 -0.03903132  0.01903911       0.014
   0.03377934 -0.01950251  0.01903911       0.014
   0.06757386  0.00002630  0.01903911       0.014
   0.10136839  0.01955512  0.01903911       0.014
  -0.06760424 -0.07808895  0.01903911       0.014
  -0.03380971 -0.05856014  0.01903911       0.014
   0.00000000  0.00000000  0.03807822       0.007
   0.03379452  0.01952881  0.03807822       0.014
   0.06758905  0.03905763  0.03807822       0.014
   0.10138357  0.05858644  0.03807822       0.007
   0.00001519  0.03903132  0.03807822       0.014
   0.03380971  0.05856014  0.03807822       0.014
   0.06760424  0.07808895  0.03807822       0.014
   0.10139876  0.09761776  0.03807822       0.014
  -0.06757386 -0.00002630  0.03807822       0.014
  -0.03377934  0.01950251  0.03807822       0.014
   0.00003037  0.07806265  0.03807822       0.014
   0.03382490  0.09759146  0.03807822       0.014
   0.06761942  0.11712027  0.03807822       0.014
   0.10141395  0.13664909  0.03807822       0.014
  -0.06755868  0.03900502  0.03807822       0.014
  -0.03376415  0.05853383  0.03807822       0.014
   0.00004556  0.11709397  0.03807822       0.007
   0.03384008  0.13662278  0.03807822       0.014
   0.06763461  0.15615160  0.03807822       0.014
   0.10142913  0.17568041  0.03807822       0.007
 
 k-points in reciprocal lattice and weights: B4C B11C-CBC                            
   0.00000000  0.00000000  0.00000000       0.007
   0.16666667  0.00000000  0.00000000       0.014
   0.33333333  0.00000000  0.00000000       0.014
   0.50000000  0.00000000  0.00000000       0.007
   0.00000000  0.16666667  0.00000000       0.014
   0.16666667  0.16666667  0.00000000       0.014
   0.33333333  0.16666667  0.00000000       0.014
   0.50000000  0.16666667  0.00000000       0.014
  -0.33333333  0.16666667  0.00000000       0.014
  -0.16666667  0.16666667  0.00000000       0.014
   0.00000000  0.33333333  0.00000000       0.014
   0.16666667  0.33333333  0.00000000       0.014
   0.33333333  0.33333333  0.00000000       0.014
   0.50000000  0.33333333  0.00000000       0.014
  -0.33333333  0.33333333  0.00000000       0.014
  -0.16666667  0.33333333  0.00000000       0.014
   0.00000000  0.50000000  0.00000000       0.007
   0.16666667  0.50000000  0.00000000       0.014
   0.33333333  0.50000000  0.00000000       0.014
   0.50000000  0.50000000  0.00000000       0.007
   0.00000000  0.00000000  0.25000000       0.014
   0.16666667  0.00000000  0.25000000       0.014
   0.33333333  0.00000000  0.25000000       0.014
   0.50000000  0.00000000  0.25000000       0.014
  -0.33333333 -0.00000000  0.25000000       0.014
  -0.16666667 -0.00000000  0.25000000       0.014
   0.00000000  0.16666667  0.25000000       0.014
   0.16666667  0.16666667  0.25000000       0.014
   0.33333333  0.16666667  0.25000000       0.014
   0.50000000  0.16666667  0.25000000       0.014
  -0.33333333  0.16666667  0.25000000       0.014
  -0.16666667  0.16666667  0.25000000       0.014
   0.00000000  0.33333333  0.25000000       0.014
   0.16666667  0.33333333  0.25000000       0.014
   0.33333333  0.33333333  0.25000000       0.014
   0.50000000  0.33333333  0.25000000       0.014
  -0.33333333  0.33333333  0.25000000       0.014
  -0.16666667  0.33333333  0.25000000       0.014
   0.00000000  0.50000000  0.25000000       0.014
   0.16666667  0.50000000  0.25000000       0.014
   0.33333333  0.50000000  0.25000000       0.014
   0.50000000  0.50000000  0.25000000       0.014
  -0.33333333  0.50000000  0.25000000       0.014
  -0.16666667  0.50000000  0.25000000       0.014
  -0.00000000 -0.33333333  0.25000000       0.014
   0.16666667 -0.33333333  0.25000000       0.014
   0.33333333 -0.33333333  0.25000000       0.014
   0.50000000 -0.33333333  0.25000000       0.014
  -0.33333333 -0.33333333  0.25000000       0.014
  -0.16666667 -0.33333333  0.25000000       0.014
   0.00000000 -0.16666667  0.25000000       0.014
   0.16666667 -0.16666667  0.25000000       0.014
   0.33333333 -0.16666667  0.25000000       0.014
   0.50000000 -0.16666667  0.25000000       0.014
  -0.33333333 -0.16666667  0.25000000       0.014
  -0.16666667 -0.16666667  0.25000000       0.014
   0.00000000  0.00000000  0.50000000       0.007
   0.16666667  0.00000000  0.50000000       0.014
   0.33333333  0.00000000  0.50000000       0.014
   0.50000000  0.00000000  0.50000000       0.007
   0.00000000  0.16666667  0.50000000       0.014
   0.16666667  0.16666667  0.50000000       0.014
   0.33333333  0.16666667  0.50000000       0.014
   0.50000000  0.16666667  0.50000000       0.014
  -0.33333333  0.16666667  0.50000000       0.014
  -0.16666667  0.16666667  0.50000000       0.014
   0.00000000  0.33333333  0.50000000       0.014
   0.16666667  0.33333333  0.50000000       0.014
   0.33333333  0.33333333  0.50000000       0.014
   0.50000000  0.33333333  0.50000000       0.014
  -0.33333333  0.33333333  0.50000000       0.014
  -0.16666667  0.33333333  0.50000000       0.014
   0.00000000  0.50000000  0.50000000       0.007
   0.16666667  0.50000000  0.50000000       0.014
   0.33333333  0.50000000  0.50000000       0.014
   0.50000000  0.50000000  0.50000000       0.007
 
 position of ions in fractional coordinates (direct lattice) 
   0.49967330  0.00032672  0.12500000
   0.99967330  0.00032672  0.12500000
   0.49967330  0.50032672  0.12500000
   0.99967330  0.50032672  0.12500000
   0.49967330  0.00032672  0.62500000
   0.99967330  0.00032672  0.62500000
   0.49967330  0.50032672  0.62500000
   0.99967330  0.50032672  0.62500000
   0.00032672  0.49967330  0.37500000
   0.50032672  0.49967330  0.37500000
   0.00032672  0.99967330  0.37500000
   0.50032672  0.99967330  0.37500000
   0.00032672  0.49967330  0.87500000
   0.50032672  0.49967330  0.87500000
   0.00032672  0.99967330  0.87500000
   0.50032672  0.99967330  0.87500000
   0.16700538  0.33370753  0.12571292
   0.66629246  0.33370753  0.12500000
   0.16629246  0.83370753  0.12500000
   0.66629246  0.83370753  0.12500000
   0.16629246  0.33370753  0.62500000
   0.66629246  0.33370753  0.62500000
   0.16629246  0.83370753  0.62500000
   0.66629246  0.83370753  0.62500000
   0.33370753  0.16629246  0.37500000
   0.83370753  0.16629246  0.37500000
   0.33370753  0.66629246  0.37500000
   0.83370753  0.66629246  0.37500000
   0.33370753  0.16629246  0.87500000
   0.83370753  0.16629246  0.87500000
   0.33370753  0.66629246  0.87500000
   0.83370753  0.66629246  0.87500000
 
 position of ions in cartesian coordinates  (Angst):
   2.46401933  0.00043641  1.64135831
   4.93045658 -0.00052323  1.64135831
   1.22996963  2.13595390  1.64135831
   3.69640688  2.13499426  1.64135831
   2.46401933  0.00043641  8.20679153
   4.93045658 -0.00052323  8.20679153
   1.22996963  2.13595390  8.20679153
   3.69640688  2.13499426  8.20679153
  -1.23163172  2.13412154  4.92407492
   1.23480553  2.13316189  4.92407492
  -2.46568142  4.26963903  4.92407492
   0.00075583  4.26867939  4.92407492
  -1.23163172  2.13412154 11.48950814
   1.23480553  2.13316189 11.48950814
  -2.46568142  4.26963903 11.48950814
   0.00075583  4.26867939 11.48950814
   0.00019323  1.42495600  1.65071953
   2.46311374  1.42399773  1.64135831
  -1.23737320  3.56047486  1.64135831
   1.22906405  3.55951522  1.64135831
  -0.00332350  1.42495737  8.20679153
   2.46311374  1.42399773  8.20679153
  -1.23737320  3.56047486  8.20679153
   1.22906405  3.55951522  8.20679153
   1.23571103  0.70960044  4.92407492
   3.70214828  0.70864080  4.92407492
   0.00166133  2.84511794  4.92407492
   2.46809858  2.84415829  4.92407492
   1.23571103  0.70960044 11.48950814
   3.70214828  0.70864080 11.48950814
   0.00166133  2.84511794 11.48950814
   2.46809858  2.84415829 11.48950814
 


--------------------------------------------------------------------------------------------------------


 k-point  1 :   0.0000 0.0000 0.0000  plane waves:   14253
 k-point  2 :   0.1667 0.0000 0.0000  plane waves:   14254
 k-point  3 :   0.3333 0.0000 0.0000  plane waves:   14218
 k-point  4 :   0.5000 0.0000 0.0000  plane waves:   14224
 k-point  5 :   0.0000 0.1667 0.0000  plane waves:   14254
 k-point  6 :   0.1667 0.1667 0.0000  plane waves:   14229
 k-point  7 :   0.3333 0.1667 0.0000  plane waves:   14169
 k-point  8 :   0.5000 0.1667 0.0000  plane waves:   14169
 k-point  9 :  -0.3333 0.1667 0.0000  plane waves:   14229
 k-point 10 :  -0.1667 0.1667 0.0000  plane waves:   14258
 k-point 11 :   0.0000 0.3333 0.0000  plane waves:   14218
 k-point 12 :   0.1667 0.3333 0.0000  plane waves:   14169
 k-point 13 :   0.3333 0.3333 0.0000  plane waves:   14198
 k-point 14 :   0.5000 0.3333 0.0000  plane waves:   14163
 k-point 15 :  -0.3333 0.3333 0.0000  plane waves:   14216
 k-point 16 :  -0.1667 0.3333 0.0000  plane waves:   14229
 k-point 17 :   0.0000 0.5000 0.0000  plane waves:   14224
 k-point 18 :   0.1667 0.5000 0.0000  plane waves:   14169
 k-point 19 :   0.3333 0.5000 0.0000  plane waves:   14163
 k-point 20 :   0.5000 0.5000 0.0000  plane waves:   14244
 k-point 21 :   0.0000 0.0000 0.2500  plane waves:   14215
 k-point 22 :   0.1667 0.0000 0.2500  plane waves:   14248
 k-point 23 :   0.3333 0.0000 0.2500  plane waves:   14202
 k-point 24 :   0.5000 0.0000 0.2500  plane waves:   14208
 k-point 25 :  -0.3333-0.0000 0.2500  plane waves:   14202
 k-point 26 :  -0.1667-0.0000 0.2500  plane waves:   14248
 k-point 27 :   0.0000 0.1667 0.2500  plane waves:   14248
 k-point 28 :   0.1667 0.1667 0.2500  plane waves:   14211
 k-point 29 :   0.3333 0.1667 0.2500  plane waves:   14201
 k-point 30 :   0.5000 0.1667 0.2500  plane waves:   14198
 k-point 31 :  -0.3333 0.1667 0.2500  plane waves:   14213
 k-point 32 :  -0.1667 0.1667 0.2500  plane waves:   14249
 k-point 33 :   0.0000 0.3333 0.2500  plane waves:   14202
 k-point 34 :   0.1667 0.3333 0.2500  plane waves:   14201
 k-point 35 :   0.3333 0.3333 0.2500  plane waves:   14194
 k-point 36 :   0.5000 0.3333 0.2500  plane waves:   14197
 k-point 37 :  -0.3333 0.3333 0.2500  plane waves:   14208
 k-point 38 :  -0.1667 0.3333 0.2500  plane waves:   14213
 k-point 39 :   0.0000 0.5000 0.2500  plane waves:   14208
 k-point 40 :   0.1667 0.5000 0.2500  plane waves:   14198
 k-point 41 :   0.3333 0.5000 0.2500  plane waves:   14197
 k-point 42 :   0.5000 0.5000 0.2500  plane waves:   14212
 k-point 43 :  -0.3333 0.5000 0.2500  plane waves:   14197
 k-point 44 :  -0.1667 0.5000 0.2500  plane waves:   14198
 k-point 45 :  -0.0000-0.3333 0.2500  plane waves:   14202
 k-point 46 :   0.1667-0.3333 0.2500  plane waves:   14213
 k-point 47 :   0.3333-0.3333 0.2500  plane waves:   14208
 k-point 48 :   0.5000-0.3333 0.2500  plane waves:   14197
 k-point 49 :  -0.3333-0.3333 0.2500  plane waves:   14194
 k-point 50 :  -0.1667-0.3333 0.2500  plane waves:   14201
 k-point 51 :   0.0000-0.1667 0.2500  plane waves:   14248
 k-point 52 :   0.1667-0.1667 0.2500  plane waves:   14249
 k-point 53 :   0.3333-0.1667 0.2500  plane waves:   14213
 k-point 54 :   0.5000-0.1667 0.2500  plane waves:   14198
 k-point 55 :  -0.3333-0.1667 0.2500  plane waves:   14201
 k-point 56 :  -0.1667-0.1667 0.2500  plane waves:   14211
 k-point 57 :   0.0000 0.0000 0.5000  plane waves:   14220
 k-point 58 :   0.1667 0.0000 0.5000  plane waves:   14240
 k-point 59 :   0.3333 0.0000 0.5000  plane waves:   14210
 k-point 60 :   0.5000 0.0000 0.5000  plane waves:   14192
 k-point 61 :   0.0000 0.1667 0.5000  plane waves:   14240
 k-point 62 :   0.1667 0.1667 0.5000  plane waves:   14216
 k-point 63 :   0.3333 0.1667 0.5000  plane waves:   14210
 k-point 64 :   0.5000 0.1667 0.5000  plane waves:   14212
 k-point 65 :  -0.3333 0.1667 0.5000  plane waves:   14216
 k-point 66 :  -0.1667 0.1667 0.5000  plane waves:   14242
 k-point 67 :   0.0000 0.3333 0.5000  plane waves:   14210
 k-point 68 :   0.1667 0.3333 0.5000  plane waves:   14210
 k-point 69 :   0.3333 0.3333 0.5000  plane waves:   14224
 k-point 70 :   0.5000 0.3333 0.5000  plane waves:   14214
 k-point 71 :  -0.3333 0.3333 0.5000  plane waves:   14196
 k-point 72 :  -0.1667 0.3333 0.5000  plane waves:   14216
 k-point 73 :   0.0000 0.5000 0.5000  plane waves:   14192
 k-point 74 :   0.1667 0.5000 0.5000  plane waves:   14212
 k-point 75 :   0.3333 0.5000 0.5000  plane waves:   14214
 k-point 76 :   0.5000 0.5000 0.5000  plane waves:   14200

 maximum and minimum number of plane-waves per node :     14258    14163

 maximum number of plane-waves:     14258
 maximum index in each direction: 
   IXMAX=   11   IYMAX=   11   IZMAX=   30
   IXMIN=  -11   IYMIN=  -11   IZMIN=  -30

 NGX is ok and might be reduce to  46
 NGY is ok and might be reduce to  46
 NGZ is ok and might be reduce to 122

 serial   3D FFT for wavefunctions
 parallel 3D FFT for charge:
    minimum data exchange during FFTs selected (reduces bandwidth)


 total amount of memory used by VASP on root node   398531. kBytes
========================================================================

   base      :      30000. kBytes
   nonl-proj :      76672. kBytes
   fftplans  :      14247. kBytes
   grid      :      30326. kBytes
   one-center:         98. kBytes
   wavefun   :     247188. kBytes
 
     INWAV:  cpu time    0.00: real time    0.00
 Broyden mixing: mesh for mixing (old mesh)
   NGX = 23   NGY = 23   NGZ = 61
  (NGX  = 96   NGY  = 96   NGZ  =252)
  gives a total of  32269 points

 initial charge density was supplied:
 charge density of overlapping atoms calculated
 number of electron     128.0000000 magnetization 
 keeping initial charge density in first step


--------------------------------------------------------------------------------------------------------


 Maximum index for augmentation-charges         2022 (set IRDMAX)


--------------------------------------------------------------------------------------------------------


 First call to EWALD:  gamma=   0.272
 Maximum number of real-space cells 4x 4x 2
 Maximum number of reciprocal cells 2x 2x 5

 FEWALD executed in parallel
    FEWALD:  cpu time    0.04: real time    0.08


----------------------------------------- Iteration    1(   1)  ---------------------------------------


    POTLOK:  cpu time    1.19: real time    2.37
    SETDIJ:  cpu time    0.03: real time    0.06
     EDDAV:  cpu time  361.26: real time  722.90
 BZINTS: Fermi energy: 17.468766;128.000000 electrons
         Band energy: 192.681367;  BLOECHL correction: -0.136125
       DOS:  cpu time    0.11: real time    0.22
    --------------------------------------------
      LOOP:  cpu time  362.59: real time  725.57

 eigenvalue-minimisations  : 12768
 total energy-change (2. order) : 0.6978049E+03  (-0.8456616E+04)
 number of electron     128.0000000 magnetization 
 augmentation part      128.0000000 magnetization 

 Free energy of the ion-electron system (eV)
  ---------------------------------------------------
  alpha Z        PSCENC =       301.66361325
  Ewald energy   TEWEN  =     -3791.66605109
  -Hartree energ DENC   =     -1120.42033428
  -exchange      EXHF   =         0.00000000
  -V(xc)+E(xc)   XCENC  =       443.42010293
  PAW double counting   =      1210.60617908    -1247.42152856
  entropy T*S    EENTRO =         0.00000000
  eigenvalues    EBANDS =       192.68136661
  atomic energy  EATOM  =      4708.94155045
  ---------------------------------------------------
  free energy    TOTEN  =       697.80489839 eV

  energy without entropy =      697.80489839  energy(sigma->0) =      697.80489839


--------------------------------------------------------------------------------------------------------




----------------------------------------- Iteration    1(   2)  ---------------------------------------


     EDDAV:  cpu time  406.07: real time  811.18
 BZINTS: Fermi energy:  4.195264;128.000000 electrons
         Band energy:-760.473778;  BLOECHL correction: -0.005489
       DOS:  cpu time    0.08: real time    0.17
    --------------------------------------------
      LOOP:  cpu time  406.17: real time  811.39

 eigenvalue-minimisations  : 15864
 total energy-change (2. order) :-0.9531551E+03  (-0.9170389E+03)
 number of electron     128.0000000 magnetization 
 augmentation part      128.0000000 magnetization 

 Free energy of the ion-electron system (eV)
  ---------------------------------------------------
  alpha Z        PSCENC =       301.66361325
  Ewald energy   TEWEN  =     -3791.66605109
  -Hartree energ DENC   =     -1120.42033428
  -exchange      EXHF   =         0.00000000
  -V(xc)+E(xc)   XCENC  =       443.42010293
  PAW double counting   =      1210.60617908    -1247.42152856
  entropy T*S    EENTRO =         0.00000000
  eigenvalues    EBANDS =      -760.47377765
  atomic energy  EATOM  =      4708.94155045
  ---------------------------------------------------
  free energy    TOTEN  =      -255.35024587 eV

  energy without entropy =     -255.35024587  energy(sigma->0) =     -255.35024587


--------------------------------------------------------------------------------------------------------




----------------------------------------- Iteration    1(   3)  ---------------------------------------


     EDDAV:  cpu time  391.65: real time  783.72
 BZINTS: Fermi energy:  3.430685;128.000000 electrons
         Band energy:-817.446944;  BLOECHL correction: -0.000083
       DOS:  cpu time    0.06: real time    0.12
    --------------------------------------------
      LOOP:  cpu time  391.72: real time  783.86

 eigenvalue-minimisations  : 15516
 total energy-change (2. order) :-0.5697317E+02  (-0.5636391E+02)
 number of electron     128.0000000 magnetization 
 augmentation part      128.0000000 magnetization 

 Free energy of the ion-electron system (eV)
  ---------------------------------------------------
  alpha Z        PSCENC =       301.66361325
  Ewald energy   TEWEN  =     -3791.66605109
  -Hartree energ DENC   =     -1120.42033428
  -exchange      EXHF   =         0.00000000
  -V(xc)+E(xc)   XCENC  =       443.42010293
  PAW double counting   =      1210.60617908    -1247.42152856
  entropy T*S    EENTRO =         0.00000000
  eigenvalues    EBANDS =      -817.44694417
  atomic energy  EATOM  =      4708.94155045
  ---------------------------------------------------
  free energy    TOTEN  =      -312.32341239 eV

  energy without entropy =     -312.32341239  energy(sigma->0) =     -312.32341239


--------------------------------------------------------------------------------------------------------




----------------------------------------- Iteration    1(   4)  ---------------------------------------


     EDDAV:  cpu time  400.58: real time  801.56
 BZINTS: Fermi energy:  3.420874;128.000000 electrons
         Band energy:-818.564860;  BLOECHL correction:  0.000000
       DOS:  cpu time    0.04: real time    0.09
    --------------------------------------------
      LOOP:  cpu time  400.64: real time  801.68

 eigenvalue-minimisations  : 15876
 total energy-change (2. order) :-0.1117916E+01  (-0.1115682E+01)
 number of electron     128.0000000 magnetization 
 augmentation part      128.0000000 magnetization 

 Free energy of the ion-electron system (eV)
  ---------------------------------------------------
  alpha Z        PSCENC =       301.66361325
  Ewald energy   TEWEN  =     -3791.66605109
  -Hartree energ DENC   =     -1120.42033428
  -exchange      EXHF   =         0.00000000
  -V(xc)+E(xc)   XCENC  =       443.42010293
  PAW double counting   =      1210.60617908    -1247.42152856
  entropy T*S    EENTRO =         0.00000000
  eigenvalues    EBANDS =      -818.56486024
  atomic energy  EATOM  =      4708.94155045
  ---------------------------------------------------
  free energy    TOTEN  =      -313.44132846 eV

  energy without entropy =     -313.44132846  energy(sigma->0) =     -313.44132846


--------------------------------------------------------------------------------------------------------




----------------------------------------- Iteration    1(   5)  ---------------------------------------


     EDDAV:  cpu time  408.11: real time  816.68
 BZINTS: Fermi energy:  3.421305;128.000000 electrons
         Band energy:-818.597306;  BLOECHL correction:  0.000000
       DOS:  cpu time    0.04: real time    0.07
    CHARGE:  cpu time    6.77: real time   13.56
    MIXING:  cpu time    0.02: real time    0.04
    --------------------------------------------
      LOOP:  cpu time  414.96: real time  830.38

 eigenvalue-minimisations  : 16200
 total energy-change (2. order) :-0.3244593E-01  (-0.3243321E-01)
 number of electron     127.9999992 magnetization 
 augmentation part        3.3901954 magnetization 

 Broyden mixing:
  rms(total) = 0.22080E+01    rms(broyden)= 0.22080E+01
  rms(prec ) = 0.26224E+01
  weight for this iteration     100.00

 Free energy of the ion-electron system (eV)
  ---------------------------------------------------
  alpha Z        PSCENC =       301.66361325
  Ewald energy   TEWEN  =     -3791.66605109
  -Hartree energ DENC   =     -1120.42033428
  -exchange      EXHF   =         0.00000000
  -V(xc)+E(xc)   XCENC  =       443.42010293
  PAW double counting   =      1210.60617908    -1247.42152856
  entropy T*S    EENTRO =         0.00000000
  eigenvalues    EBANDS =      -818.59730617
  atomic energy  EATOM  =      4708.94155045
  ---------------------------------------------------
  free energy    TOTEN  =      -313.47377439 eV

  energy without entropy =     -313.47377439  energy(sigma->0) =     -313.47377439


--------------------------------------------------------------------------------------------------------




----------------------------------------- Iteration    1(   6)  ---------------------------------------


    POTLOK:  cpu time    1.08: real time    2.16
    SETDIJ:  cpu time    0.07: real time    0.13
     EDDAV:  cpu time  379.50: real time  759.37
 BZINTS: Fermi energy:  4.156400;128.000000 electrons
         Band energy:-681.407384;  BLOECHL correction:  0.000000
       DOS:  cpu time    0.04: real time    0.09
    CHARGE:  cpu time    7.39: real time   14.79
    MIXING:  cpu time    0.03: real time    0.07
    --------------------------------------------
      LOOP:  cpu time  388.11: real time  776.62

 eigenvalue-minimisations  : 14592
 total energy-change (2. order) : 0.1432580E+02  (-0.1477726E+01)
 number of electron     127.9999993 magnetization 
 augmentation part        3.2351741 magnetization 

 Broyden mixing:
  rms(total) = 0.11581E+01    rms(broyden)= 0.11581E+01
  rms(prec ) = 0.13652E+01
  weight for this iteration     100.00

 eigenvalues of (default mixing * dielectric matrix)
  average eigenvalue GAMMA=   2.0348
  2.0348

 Free energy of the ion-electron system (eV)
  ---------------------------------------------------
  alpha Z        PSCENC =       301.66361325
  Ewald energy   TEWEN  =     -3791.66605109
  -Hartree energ DENC   =     -1248.73492761
  -exchange      EXHF   =         0.00000000
  -V(xc)+E(xc)   XCENC  =       451.74822283
  PAW double counting   =      1641.54180832    -1681.23480998
  entropy T*S    EENTRO =         0.00000000
  eigenvalues    EBANDS =      -681.40738401
  atomic energy  EATOM  =      4708.94155045
  ---------------------------------------------------
  free energy    TOTEN  =      -299.14797784 eV

  energy without entropy =     -299.14797784  energy(sigma->0) =     -299.14797784


--------------------------------------------------------------------------------------------------------




----------------------------------------- Iteration    1(   7)  ---------------------------------------


    POTLOK:  cpu time    1.14: real time    2.27
    SETDIJ:  cpu time    0.03: real time    0.07
     EDDAV:  cpu time  380.12: real time  760.62
 BZINTS: Fermi energy:  4.869903;128.000000 electrons
         Band energy:-541.877941;  BLOECHL correction:  0.000000
       DOS:  cpu time    0.03: real time    0.06
    CHARGE:  cpu time    7.12: real time   14.25
    MIXING:  cpu time    0.10: real time    0.21
    --------------------------------------------
      LOOP:  cpu time  388.54: real time  777.49

 eigenvalue-minimisations  : 14520
 total energy-change (2. order) : 0.4517532E+01  (-0.1544484E+01)
 number of electron     127.9999993 magnetization 
 augmentation part        3.0708342 magnetization 

 Broyden mixing:
  rms(total) = 0.19424E+00    rms(broyden)= 0.19423E+00
  rms(prec ) = 0.21207E+00
  weight for this iteration     100.00

 eigenvalues of (default mixing * dielectric matrix)
  average eigenvalue GAMMA=   2.0761
  2.0761  2.0761

 Free energy of the ion-electron system (eV)
  ---------------------------------------------------
  alpha Z        PSCENC =       301.66361325
  Ewald energy   TEWEN  =     -3791.66605109
  -Hartree energ DENC   =     -1390.87031330
  -exchange      EXHF   =         0.00000000
  -V(xc)+E(xc)   XCENC  =       461.20637588
  PAW double counting   =      2179.68405773    -2221.71173794
  entropy T*S    EENTRO =         0.00000000
  eigenvalues    EBANDS =      -541.87794053
  atomic energy  EATOM  =      4708.94155045
  ---------------------------------------------------
  free energy    TOTEN  =      -294.63044556 eV

  energy without entropy =     -294.63044556  energy(sigma->0) =     -294.63044556


--------------------------------------------------------------------------------------------------------




----------------------------------------- Iteration    1(   8)  ---------------------------------------


    POTLOK:  cpu time    1.13: real time    2.26
    SETDIJ:  cpu time    0.10: real time    0.21
     EDDAV:  cpu time  384.73: real time  769.86
 BZINTS: Fermi energy:  4.842813;128.000000 electrons
         Band energy:-544.313996;  BLOECHL correction:  0.000000
       DOS:  cpu time    0.04: real time    0.07
    CHARGE:  cpu time    6.36: real time   12.72
    MIXING:  cpu time    0.13: real time    0.25
    --------------------------------------------
      LOOP:  cpu time  392.50: real time  785.40

 eigenvalue-minimisations  : 14916
 total energy-change (2. order) :-0.6366569E-01  (-0.6454852E-01)
 number of electron     127.9999993 magnetization 
 augmentation part        3.0645306 magnetization 

 Broyden mixing:
  rms(total) = 0.76831E-01    rms(broyden)= 0.76829E-01
  rms(prec ) = 0.99764E-01
  weight for this iteration     100.00

 eigenvalues of (default mixing * dielectric matrix)
  average eigenvalue GAMMA=   1.6561
  2.3647  2.0320  0.5717

 Free energy of the ion-electron system (eV)
  ---------------------------------------------------
  alpha Z        PSCENC =       301.66361325
  Ewald energy   TEWEN  =     -3791.66605109
  -Hartree energ DENC   =     -1389.01951041
  -exchange      EXHF   =         0.00000000
  -V(xc)+E(xc)   XCENC  =       461.10900473
  PAW double counting   =      2206.43313952    -2247.84186164
  entropy T*S    EENTRO =         0.00000000
  eigenvalues    EBANDS =      -544.31399606
  atomic energy  EATOM  =      4708.94155045
  ---------------------------------------------------
  free energy    TOTEN  =      -294.69411125 eV

  energy without entropy =     -294.69411125  energy(sigma->0) =     -294.69411125


--------------------------------------------------------------------------------------------------------




----------------------------------------- Iteration    1(   9)  ---------------------------------------


    POTLOK:  cpu time    1.06: real time    2.11
    SETDIJ:  cpu time    0.03: real time    0.06
     EDDAV:  cpu time  379.78: real time  759.97
 BZINTS: Fermi energy:  4.850125;128.000000 electrons
         Band energy:-543.753480;  BLOECHL correction:  0.000000
       DOS:  cpu time    0.04: real time    0.07
    CHARGE:  cpu time    6.19: real time   12.40
    MIXING:  cpu time    0.03: real time    0.05
    --------------------------------------------
      LOOP:  cpu time  387.15: real time  774.70

 eigenvalue-minimisations  : 14916
 total energy-change (2. order) : 0.4016383E-02  (-0.4682009E-02)
 number of electron     127.9999993 magnetization 
 augmentation part        3.0624160 magnetization 

 Broyden mixing:
  rms(total) = 0.38170E-01    rms(broyden)= 0.38170E-01
  rms(prec ) = 0.59500E-01
  weight for this iteration     100.00

 eigenvalues of (default mixing * dielectric matrix)
  average eigenvalue GAMMA=   1.4950
  2.4197  2.0103  0.7750  0.7750

 Free energy of the ion-electron system (eV)
  ---------------------------------------------------
  alpha Z        PSCENC =       301.66361325
  Ewald energy   TEWEN  =     -3791.66605109
  -Hartree energ DENC   =     -1389.82484086
  -exchange      EXHF   =         0.00000000
  -V(xc)+E(xc)   XCENC  =       461.17951044
  PAW double counting   =      2219.14247223    -2260.37286920
  entropy T*S    EENTRO =         0.00000000
  eigenvalues    EBANDS =      -543.75348009
  atomic energy  EATOM  =      4708.94155045
  ---------------------------------------------------
  free energy    TOTEN  =      -294.69009487 eV

  energy without entropy =     -294.69009487  energy(sigma->0) =     -294.69009487


--------------------------------------------------------------------------------------------------------




----------------------------------------- Iteration    1(  10)  ---------------------------------------


    POTLOK:  cpu time    1.09: real time    2.18
    SETDIJ:  cpu time    0.08: real time    0.15
     EDDAV:  cpu time  456.18: real time  912.83
 BZINTS: Fermi energy:  4.855253;128.000000 electrons
         Band energy:-543.013787;  BLOECHL correction:  0.000000
       DOS:  cpu time    0.05: real time    0.09
    CHARGE:  cpu time    6.42: real time   12.84
    MIXING:  cpu time    0.03: real time    0.06
    --------------------------------------------
      LOOP:  cpu time  463.85: real time  928.17

 eigenvalue-minimisations  : 19260
 total energy-change (2. order) : 0.2633065E-02  (-0.6282964E-02)
 number of electron     127.9999993 magnetization 
 augmentation part        3.0619972 magnetization 

 Broyden mixing:
  rms(total) = 0.16179E-01    rms(broyden)= 0.16178E-01
  rms(prec ) = 0.25357E-01
  weight for this iteration     100.00

 eigenvalues of (default mixing * dielectric matrix)
  average eigenvalue GAMMA=   1.3607
  2.4835  1.9790  0.9158  0.7125  0.7125

 Free energy of the ion-electron system (eV)
  ---------------------------------------------------
  alpha Z        PSCENC =       301.66361325
  Ewald energy   TEWEN  =     -3791.66605109
  -Hartree energ DENC   =     -1390.62549135
  -exchange      EXHF   =         0.00000000
  -V(xc)+E(xc)   XCENC  =       461.23840329
  PAW double counting   =      2221.65982591    -2262.88552547
  entropy T*S    EENTRO =         0.00000000
  eigenvalues    EBANDS =      -543.01378680
  atomic energy  EATOM  =      4708.94155045
  ---------------------------------------------------
  free energy    TOTEN  =      -294.68746180 eV

  energy without entropy =     -294.68746180  energy(sigma->0) =     -294.68746180


--------------------------------------------------------------------------------------------------------




----------------------------------------- Iteration    1(  11)  ---------------------------------------


    POTLOK:  cpu time    1.10: real time    2.19
    SETDIJ:  cpu time    0.06: real time    0.12
     EDDAV:  cpu time  377.13: real time  754.65
 BZINTS: Fermi energy:  4.854439;128.000000 electrons
         Band energy:-542.687671;  BLOECHL correction: -0.000000
       DOS:  cpu time    0.03: real time    0.06
    CHARGE:  cpu time    6.59: real time   13.19
    MIXING:  cpu time    0.06: real time    0.12
    --------------------------------------------
      LOOP:  cpu time  384.98: real time  770.35

 eigenvalue-minimisations  : 14580
 total energy-change (2. order) : 0.1641502E-03  (-0.7650479E-03)
 number of electron     127.9999993 magnetization 
 augmentation part        3.0613165 magnetization 

 Broyden mixing:
  rms(total) = 0.11758E-01    rms(broyden)= 0.11758E-01
  rms(prec ) = 0.18201E-01
  weight for this iteration     100.00

 eigenvalues of (default mixing * dielectric matrix)
  average eigenvalue GAMMA=   1.2604
  2.5404  1.9468  1.3080  0.7524  0.7524  0.2624

 Free energy of the ion-electron system (eV)
  ---------------------------------------------------
  alpha Z        PSCENC =       301.66361325
  Ewald energy   TEWEN  =     -3791.66605109
  -Hartree energ DENC   =     -1390.97771806
  -exchange      EXHF   =         0.00000000
  -V(xc)+E(xc)   XCENC  =       461.26382672
  PAW double counting   =      2222.69574202    -2263.92058964
  entropy T*S    EENTRO =         0.00000000
  eigenvalues    EBANDS =      -542.68767130
  atomic energy  EATOM  =      4708.94155045
  ---------------------------------------------------
  free energy    TOTEN  =      -294.68729765 eV

  energy without entropy =     -294.68729765  energy(sigma->0) =     -294.68729765


--------------------------------------------------------------------------------------------------------




----------------------------------------- Iteration    1(  12)  ---------------------------------------


    POTLOK:  cpu time    1.19: real time    2.37
    SETDIJ:  cpu time    0.07: real time    0.15
     EDDAV:  cpu time  395.07: real time  790.52
 BZINTS: Fermi energy:  4.855536;128.000000 electrons
         Band energy:-542.188967;  BLOECHL correction:  0.000000
       DOS:  cpu time    0.05: real time    0.11
    CHARGE:  cpu time    6.34: real time   12.68
    MIXING:  cpu time    0.16: real time    0.33
    --------------------------------------------
      LOOP:  cpu time  402.89: real time  806.18

 eigenvalue-minimisations  : 15672
 total energy-change (2. order) :-0.4260947E-03  (-0.3715189E-03)
 number of electron     127.9999993 magnetization 
 augmentation part        3.0607780 magnetization 

 Broyden mixing:
  rms(total) = 0.99789E-02    rms(broyden)= 0.99787E-02
  rms(prec ) = 0.16748E-01
  weight for this iteration     100.00

 eigenvalues of (default mixing * dielectric matrix)
  average eigenvalue GAMMA=   1.3545
  2.4156  2.4156  1.8300  1.1843  0.6922  0.6922  0.2514

 Free energy of the ion-electron system (eV)
  ---------------------------------------------------
  alpha Z        PSCENC =       301.66361325
  Ewald energy   TEWEN  =     -3791.66605109
  -Hartree energ DENC   =     -1391.51636785
  -exchange      EXHF   =         0.00000000
  -V(xc)+E(xc)   XCENC  =       461.30301875
  PAW double counting   =      2223.96308877    -2265.18760926
  entropy T*S    EENTRO =         0.00000000
  eigenvalues    EBANDS =      -542.18896676
  atomic energy  EATOM  =      4708.94155045
  ---------------------------------------------------
  free energy    TOTEN  =      -294.68772375 eV

  energy without entropy =     -294.68772375  energy(sigma->0) =     -294.68772375


--------------------------------------------------------------------------------------------------------




----------------------------------------- Iteration    1(  13)  ---------------------------------------


    POTLOK:  cpu time    1.19: real time    2.36
    SETDIJ:  cpu time    0.06: real time    0.12
     EDDAV:  cpu time  294.33: real time  586.31
 BZINTS: Fermi energy:  4.861023;128.000000 electrons
         Band energy:-542.042389;  BLOECHL correction:  0.000000
       DOS:  cpu time    0.03: real time    0.06
    CHARGE:  cpu time    6.30: real time   12.60
    MIXING:  cpu time    0.02: real time    0.03
    --------------------------------------------
      LOOP:  cpu time  301.93: real time  601.54

 eigenvalue-minimisations  : 16392
 total energy-change (2. order) :-0.4594345E-03  (-0.9150376E-03)
 number of electron     127.9999993 magnetization 
 augmentation part        3.0607644 magnetization 

 Broyden mixing:
  rms(total) = 0.15082E-01    rms(broyden)= 0.15082E-01
  rms(prec ) = 0.29701E-01
  weight for this iteration     100.00

 eigenvalues of (default mixing * dielectric matrix)
  average eigenvalue GAMMA=   1.2704
  2.8304  2.4547  1.9559  0.9480  0.7243  0.7243  0.3268  0.1988

 Free energy of the ion-electron system (eV)
  ---------------------------------------------------
  alpha Z        PSCENC =       301.66361325
  Ewald energy   TEWEN  =     -3791.66605109
  -Hartree energ DENC   =     -1391.67840252
  -exchange      EXHF   =         0.00000000
  -V(xc)+E(xc)   XCENC  =       461.31640063
  PAW double counting   =      2223.08095237    -2264.30385690
  entropy T*S    EENTRO =         0.00000000
  eigenvalues    EBANDS =      -542.04238937
  atomic energy  EATOM  =      4708.94155045
  ---------------------------------------------------
  free energy    TOTEN  =      -294.68818318 eV

  energy without entropy =     -294.68818318  energy(sigma->0) =     -294.68818318


--------------------------------------------------------------------------------------------------------




----------------------------------------- Iteration    1(  14)  ---------------------------------------


    POTLOK:  cpu time    1.04: real time    2.07
    SETDIJ:  cpu time    0.04: real time    0.07
     EDDAV:  cpu time  252.60: real time  505.47
 BZINTS: Fermi energy:  4.859962;128.000000 electrons
         Band energy:-541.813407;  BLOECHL correction:  0.000000
       DOS:  cpu time    0.03: real time    0.07
    CHARGE:  cpu time    6.44: real time   12.87
    MIXING:  cpu time    0.17: real time    0.35
    --------------------------------------------
      LOOP:  cpu time  260.32: real time  520.91

 eigenvalue-minimisations  : 16068
 total energy-change (2. order) :-0.3116057E-03  (-0.3500421E-03)
 number of electron     127.9999993 magnetization 
 augmentation part        3.0605873 magnetization 

 Broyden mixing:
  rms(total) = 0.11558E-01    rms(broyden)= 0.11558E-01
  rms(prec ) = 0.20648E-01
  weight for this iteration     100.00

 eigenvalues of (default mixing * dielectric matrix)
  average eigenvalue GAMMA=   1.1627
  2.8897  2.4331  1.9591  0.9175  0.7440  0.7440  0.2688  0.2688  0.2392

 Free energy of the ion-electron system (eV)
  ---------------------------------------------------
  alpha Z        PSCENC =       301.66361325
  Ewald energy   TEWEN  =     -3791.66605109
  -Hartree energ DENC   =     -1391.92616866
  -exchange      EXHF   =         0.00000000
  -V(xc)+E(xc)   XCENC  =       461.33481997
  PAW double counting   =      2223.37251152    -2264.59536292
  entropy T*S    EENTRO =         0.00000000
  eigenvalues    EBANDS =      -541.81340730
  atomic energy  EATOM  =      4708.94155045
  ---------------------------------------------------
  free energy    TOTEN  =      -294.68849479 eV

  energy without entropy =     -294.68849479  energy(sigma->0) =     -294.68849479


--------------------------------------------------------------------------------------------------------




----------------------------------------- Iteration    1(  15)  ---------------------------------------


    POTLOK:  cpu time    0.91: real time    1.82
    SETDIJ:  cpu time    0.03: real time    0.05
     EDDAV:  cpu time  237.08: real time  474.39
 BZINTS: Fermi energy:  4.860390;128.000000 electrons
         Band energy:-541.779410;  BLOECHL correction:  0.000000
       DOS:  cpu time    0.03: real time    0.06
    CHARGE:  cpu time    6.43: real time   12.87
    MIXING:  cpu time    0.07: real time    0.13
    --------------------------------------------
      LOOP:  cpu time  244.55: real time  489.34

 eigenvalue-minimisations  : 14592
 total energy-change (2. order) : 0.1075180E-03  (-0.2924943E-04)
 number of electron     127.9999993 magnetization 
 augmentation part        3.0605739 magnetization 

 Broyden mixing:
  rms(total) = 0.10887E-01    rms(broyden)= 0.10887E-01
  rms(prec ) = 0.18861E-01
  weight for this iteration     100.00

 eigenvalues of (default mixing * dielectric matrix)
  average eigenvalue GAMMA=   1.1469
  2.9272  2.4572  1.9358  0.9215  0.8654  0.8654  0.5171  0.5171  0.2563  0.2061

 Free energy of the ion-electron system (eV)
  ---------------------------------------------------
  alpha Z        PSCENC =       301.66361325
  Ewald energy   TEWEN  =     -3791.66605109
  -Hartree energ DENC   =     -1391.96327066
  -exchange      EXHF   =         0.00000000
  -V(xc)+E(xc)   XCENC  =       461.33755245
  PAW double counting   =      2223.44375590    -2264.66612792
  entropy T*S    EENTRO =         0.00000000
  eigenvalues    EBANDS =      -541.77940964
  atomic energy  EATOM  =      4708.94155045
  ---------------------------------------------------
  free energy    TOTEN  =      -294.68838727 eV

  energy without entropy =     -294.68838727  energy(sigma->0) =     -294.68838727


--------------------------------------------------------------------------------------------------------




----------------------------------------- Iteration    1(  16)  ---------------------------------------


    POTLOK:  cpu time    1.27: real time    2.53
    SETDIJ:  cpu time    0.04: real time    0.08
     EDDAV:  cpu time  319.47: real time  639.28
 BZINTS: Fermi energy:  4.860878;128.000000 electrons
         Band energy:-541.806821;  BLOECHL correction:  0.000000
       DOS:  cpu time    0.03: real time    0.05
    CHARGE:  cpu time    6.33: real time   12.67
    MIXING:  cpu time    0.07: real time    0.14
    --------------------------------------------
      LOOP:  cpu time  327.21: real time  654.77

 eigenvalue-minimisations  : 21984
 total energy-change (2. order) : 0.4427727E-03  (-0.5341222E-04)
 number of electron     127.9999993 magnetization 
 augmentation part        3.0606086 magnetization 

 Broyden mixing:
  rms(total) = 0.77679E-02    rms(broyden)= 0.77678E-02
  rms(prec ) = 0.13567E-01
  weight for this iteration     100.00

 eigenvalues of (default mixing * dielectric matrix)
  average eigenvalue GAMMA=   1.1495
  2.9166  2.4899  1.9263  0.9771  1.0349  1.0349  0.6743  0.6743  0.4478  0.2629
  0.2054

 Free energy of the ion-electron system (eV)
  ---------------------------------------------------
  alpha Z        PSCENC =       301.66361325
  Ewald energy   TEWEN  =     -3791.66605109
  -Hartree energ DENC   =     -1391.93532154
  -exchange      EXHF   =         0.00000000
  -V(xc)+E(xc)   XCENC  =       461.33560599
  PAW double counting   =      2223.26125089    -2264.48177158
  entropy T*S    EENTRO =         0.00000000
  eigenvalues    EBANDS =      -541.80682087
  atomic energy  EATOM  =      4708.94155045
  ---------------------------------------------------
  free energy    TOTEN  =      -294.68794450 eV

  energy without entropy =     -294.68794450  energy(sigma->0) =     -294.68794450


--------------------------------------------------------------------------------------------------------




----------------------------------------- Iteration    1(  17)  ---------------------------------------


    POTLOK:  cpu time    0.91: real time    1.81
    SETDIJ:  cpu time    0.07: real time    0.14
     EDDAV:  cpu time  303.15: real time  606.58
 BZINTS: Fermi energy:  4.861206;128.000000 electrons
         Band energy:-541.808911;  BLOECHL correction: -0.000000
       DOS:  cpu time    0.04: real time    0.07
    CHARGE:  cpu time    6.39: real time   12.79
    MIXING:  cpu time    0.09: real time    0.17
    --------------------------------------------
      LOOP:  cpu time  310.64: real time  621.59

 eigenvalue-minimisations  : 20544
 total energy-change (2. order) : 0.9154562E-04  (-0.2516936E-03)
 number of electron     127.9999993 magnetization 
 augmentation part        3.0606066 magnetization 

 Broyden mixing:
  rms(total) = 0.58993E-02    rms(broyden)= 0.58990E-02
  rms(prec ) = 0.10381E-01
  weight for this iteration     100.00

 eigenvalues of (default mixing * dielectric matrix)
  average eigenvalue GAMMA=   1.0758
  2.8862  2.4843  1.9089  1.0885  0.8458  0.8458  0.8213  0.6203  0.6203  0.3142
  0.2686  0.2058

 Free energy of the ion-electron system (eV)
  ---------------------------------------------------
  alpha Z        PSCENC =       301.66361325
  Ewald energy   TEWEN  =     -3791.66605109
  -Hartree energ DENC   =     -1391.93315173
  -exchange      EXHF   =         0.00000000
  -V(xc)+E(xc)   XCENC  =       461.33528728
  PAW double counting   =      2223.21375101    -2264.43394062
  entropy T*S    EENTRO =         0.00000000
  eigenvalues    EBANDS =      -541.80891149
  atomic energy  EATOM  =      4708.94155045
  ---------------------------------------------------
  free energy    TOTEN  =      -294.68785295 eV

  energy without entropy =     -294.68785295  energy(sigma->0) =     -294.68785295


--------------------------------------------------------------------------------------------------------




----------------------------------------- Iteration    1(  18)  ---------------------------------------


    POTLOK:  cpu time    0.92: real time    1.84
    SETDIJ:  cpu time    0.02: real time    0.05
     EDDAV:  cpu time  239.91: real time  480.05
 BZINTS: Fermi energy:  4.859587;128.000000 electrons
         Band energy:-541.811029;  BLOECHL correction: -0.000000
       DOS:  cpu time    0.03: real time    0.06
    CHARGE:  cpu time    6.14: real time   12.30
    MIXING:  cpu time    0.04: real time    0.07
    --------------------------------------------
      LOOP:  cpu time  247.06: real time  494.38

 eigenvalue-minimisations  : 14484
 total energy-change (2. order) : 0.6451796E-04  (-0.2933183E-04)
 number of electron     127.9999993 magnetization 
 augmentation part        3.0606382 magnetization 

 Broyden mixing:
  rms(total) = 0.16018E-02    rms(broyden)= 0.16017E-02
  rms(prec ) = 0.20505E-02
  weight for this iteration     100.00

 eigenvalues of (default mixing * dielectric matrix)
  average eigenvalue GAMMA=   1.0142
  2.8861  2.4821  1.9095  1.1044  0.8661  0.8661  0.8253  0.6115  0.6115  0.3649
  0.2662  0.2056  0.1847

 Free energy of the ion-electron system (eV)
  ---------------------------------------------------
  alpha Z        PSCENC =       301.66361325
  Ewald energy   TEWEN  =     -3791.66605109
  -Hartree energ DENC   =     -1391.93082069
  -exchange      EXHF   =         0.00000000
  -V(xc)+E(xc)   XCENC  =       461.33506121
  PAW double counting   =      2223.21046653    -2264.43057900
  entropy T*S    EENTRO =         0.00000000
  eigenvalues    EBANDS =      -541.81102910
  atomic energy  EATOM  =      4708.94155045
  ---------------------------------------------------
  free energy    TOTEN  =      -294.68778843 eV

  energy without entropy =     -294.68778843  energy(sigma->0) =     -294.68778843


--------------------------------------------------------------------------------------------------------




----------------------------------------- Iteration    1(  19)  ---------------------------------------


    POTLOK:  cpu time    0.96: real time    1.92
    SETDIJ:  cpu time    0.02: real time    0.04
     EDDAV:  cpu time  245.71: real time  491.68
 BZINTS: Fermi energy:  4.859572;128.000000 electrons
         Band energy:-541.808325;  BLOECHL correction:  0.000000
       DOS:  cpu time    0.04: real time    0.07
    CHARGE:  cpu time    6.37: real time   12.75
    MIXING:  cpu time    0.03: real time    0.08
    --------------------------------------------
      LOOP:  cpu time  253.13: real time  506.55

 eigenvalue-minimisations  : 15024
 total energy-change (2. order) :-0.3501531E-05  (-0.2995288E-05)
 number of electron     127.9999993 magnetization 
 augmentation part        3.0606440 magnetization 

 Broyden mixing:
  rms(total) = 0.29749E-02    rms(broyden)= 0.29749E-02
  rms(prec ) = 0.45866E-02
  weight for this iteration     100.00

 eigenvalues of (default mixing * dielectric matrix)
  average eigenvalue GAMMA=   1.0244
  2.8790  2.4771  1.9075  1.2691  1.0481  1.0481  0.8726  0.6370  0.6370  0.4130
  0.3421  0.3421  0.2637  0.2055

 Free energy of the ion-electron system (eV)
  ---------------------------------------------------
  alpha Z        PSCENC =       301.66361325
  Ewald energy   TEWEN  =     -3791.66605109
  -Hartree energ DENC   =     -1391.93365074
  -exchange      EXHF   =         0.00000000
  -V(xc)+E(xc)   XCENC  =       461.33522845
  PAW double counting   =      2223.21260280    -2264.43276011
  entropy T*S    EENTRO =         0.00000000
  eigenvalues    EBANDS =      -541.80832494
  atomic energy  EATOM  =      4708.94155045
  ---------------------------------------------------
  free energy    TOTEN  =      -294.68779193 eV

  energy without entropy =     -294.68779193  energy(sigma->0) =     -294.68779193


--------------------------------------------------------------------------------------------------------




----------------------------------------- Iteration    1(  20)  ---------------------------------------


    POTLOK:  cpu time    1.08: real time    2.14
    SETDIJ:  cpu time    0.03: real time    0.06
     EDDAV:  cpu time  259.01: real time  518.29
 BZINTS: Fermi energy:  4.859599;128.000000 electrons
         Band energy:-541.802952;  BLOECHL correction:  0.000000
       DOS:  cpu time    0.04: real time    0.07
    CHARGE:  cpu time    6.59: real time   13.19
    MIXING:  cpu time    0.07: real time    0.13
    --------------------------------------------
      LOOP:  cpu time  266.83: real time  533.91

 eigenvalue-minimisations  : 16404
 total energy-change (2. order) :-0.2475426E-05  (-0.1867283E-05)
 number of electron     127.9999993 magnetization 
 augmentation part        3.0606392 magnetization 

 Broyden mixing:
  rms(total) = 0.31876E-02    rms(broyden)= 0.31876E-02
  rms(prec ) = 0.56402E-02
  weight for this iteration     100.00

 eigenvalues of (default mixing * dielectric matrix)
  average eigenvalue GAMMA=   1.0495
  2.8885  2.4581  1.8822  1.8822  1.1096  1.1096  0.9020  0.6161  0.6161  0.5315
  0.4604  0.4604  0.3561  0.2647  0.2056

 Free energy of the ion-electron system (eV)
  ---------------------------------------------------
  alpha Z        PSCENC =       301.66361325
  Ewald energy   TEWEN  =     -3791.66605109
  -Hartree energ DENC   =     -1391.93926492
  -exchange      EXHF   =         0.00000000
  -V(xc)+E(xc)   XCENC  =       461.33553468
  PAW double counting   =      2223.20896208    -2264.42918664
  entropy T*S    EENTRO =         0.00000000
  eigenvalues    EBANDS =      -541.80295222
  atomic energy  EATOM  =      4708.94155045
  ---------------------------------------------------
  free energy    TOTEN  =      -294.68779441 eV

  energy without entropy =     -294.68779441  energy(sigma->0) =     -294.68779441


--------------------------------------------------------------------------------------------------------




----------------------------------------- Iteration    1(  21)  ---------------------------------------


    POTLOK:  cpu time    0.91: real time    1.83
    SETDIJ:  cpu time    0.03: real time    0.05
     EDDAV:  cpu time  300.79: real time  601.90
 BZINTS: Fermi energy:  4.859688;128.000000 electrons
         Band energy:-541.797821;  BLOECHL correction:  0.000000
       DOS:  cpu time    0.03: real time    0.07
    CHARGE:  cpu time    7.06: real time   14.13
    MIXING:  cpu time    0.04: real time    0.07
    --------------------------------------------
      LOOP:  cpu time  308.87: real time  618.08

 eigenvalue-minimisations  : 19548
 total energy-change (2. order) :-0.6254154E-05  (-0.3249029E-04)
 number of electron     127.9999993 magnetization 
 augmentation part        3.0606379 magnetization 

 Broyden mixing:
  rms(total) = 0.41110E-02    rms(broyden)= 0.41109E-02
  rms(prec ) = 0.65823E-02
  weight for this iteration     100.00

 eigenvalues of (default mixing * dielectric matrix)
  average eigenvalue GAMMA=   1.0188
  2.9125  2.4961  1.9757  1.9757  1.0330  1.0330  0.8383  0.8383  0.6362  0.6362
  0.3692  0.3692  0.3977  0.3200  0.2646  0.2056

 Free energy of the ion-electron system (eV)
  ---------------------------------------------------
  alpha Z        PSCENC =       301.66361325
  Ewald energy   TEWEN  =     -3791.66605109
  -Hartree energ DENC   =     -1391.94469710
  -exchange      EXHF   =         0.00000000
  -V(xc)+E(xc)   XCENC  =       461.33581597
[...]
     79      12.6246      0.00000
     80      12.6273      0.00000
     81      12.7710      0.00000
     82      12.7734      0.00000
     83      13.1204      0.00000
     84      13.1218      0.00000

 k-point    75 :       0.3333    0.5000    0.5000
  band No.  band energies     occupation 
      1     -13.5871      2.00000
      2     -13.5867      2.00000
      3     -13.3536      2.00000
      4     -13.3532      2.00000
      5     -12.6151      2.00000
      6     -12.6148      2.00000
      7     -12.3959      2.00000
      8     -12.3955      2.00000
      9     -11.6546      2.00000
     10     -11.6543      2.00000
     11     -11.4495      2.00000
     12     -11.4492      2.00000
     13      -8.9736      2.00000
     14      -8.9730      2.00000
     15      -8.8213      2.00000
     16      -8.8205      2.00000
     17      -7.0963      2.00000
     18      -7.0937      2.00000
     19      -6.9934      2.00000
     20      -6.9910      2.00000
     21      -4.7887      2.00000
     22      -4.7864      2.00000
     23      -4.7078      2.00000
     24      -4.7053      2.00000
     25      -4.6260      2.00000
     26      -4.6247      2.00000
     27      -4.5376      2.00000
     28      -4.5362      2.00000
     29      -3.6482      2.00000
     30      -3.6461      2.00000
     31      -3.5537      2.00000
     32      -3.5515      2.00000
     33      -2.5865      2.00000
     34      -2.5846      2.00000
     35      -2.5248      2.00000
     36      -2.5229      2.00000
     37      -2.0745      2.00000
     38      -2.0733      2.00000
     39      -1.5550      2.00000
     40      -1.5511      2.00000
     41      -1.4953      2.00000
     42      -1.4908      2.00000
     43      -1.0382      2.00000
     44      -1.0356      2.00000
     45      -0.9867      2.00000
     46      -0.9842      2.00000
     47      -0.9274      2.00000
     48      -0.9265      2.00000
     49      -0.6179      2.00000
     50      -0.6166      2.00000
     51      -0.1499      2.00000
     52      -0.1450      2.00000
     53      -0.1103      2.00000
     54      -0.1064      2.00000
     55       0.1887      2.00000
     56       0.1899      2.00000
     57       0.4485      2.00000
     58       0.4498      2.00000
     59       1.4732      2.00000
     60       1.4745      2.00000
     61       3.1048      2.00000
     62       3.1070      2.00000
     63       3.9133      2.00000
     64       3.9158      2.00000
     65       5.9761      0.00000
     66       5.9798      0.00000
     67       6.4043      0.00000
     68       6.4072      0.00000
     69       9.0467      0.00000
     70       9.0487      0.00000
     71       9.5452      0.00000
     72       9.5471      0.00000
     73      10.5147      0.00000
     74      10.5176      0.00000
     75      11.0832      0.00000
     76      11.0847      0.00000
     77      11.4946      0.00000
     78      11.4979      0.00000
     79      12.6221      0.00000
     80      12.6250      0.00000
     81      12.7678      0.00000
     82      12.7707      0.00000
     83      13.1192      0.00000
     84      13.1209      0.00000

 k-point    76 :       0.5000    0.5000    0.5000
  band No.  band energies     occupation 
      1     -13.2642      2.00000
      2     -13.2615      2.00000
      3     -13.2615      2.00000
      4     -13.2585      2.00000
      5     -13.0355      2.00000
      6     -13.0328      2.00000
      7     -13.0328      2.00000
      8     -13.0297      2.00000
      9     -10.4158      2.00000
     10     -10.4141      2.00000
     11     -10.4141      2.00000
     12     -10.4123      2.00000
     13     -10.2301      2.00000
     14     -10.2284      2.00000
     15     -10.2284      2.00000
     16     -10.2265      2.00000
     17      -5.6579      2.00000
     18      -5.6534      2.00000
     19      -5.6532      2.00000
     20      -5.6532      2.00000
     21      -5.5932      2.00000
     22      -5.5893      2.00000
     23      -5.5890      2.00000
     24      -5.5890      2.00000
     25      -4.0617      2.00000
     26      -4.0617      2.00000
     27      -4.0602      2.00000
     28      -4.0579      2.00000
     29      -4.0142      2.00000
     30      -4.0142      2.00000
     31      -4.0127      2.00000
     32      -4.0094      2.00000
     33      -2.5635      2.00000
     34      -2.5632      2.00000
     35      -2.5632      2.00000
     36      -2.5576      2.00000
     37      -2.4783      2.00000
     38      -2.4780      2.00000
     39      -2.4780      2.00000
     40      -2.4715      2.00000
     41      -1.6906      2.00000
     42      -1.6880      2.00000
     43      -1.6878      2.00000
     44      -1.6855      2.00000
     45      -0.2605      2.00000
     46      -0.2574      2.00000
     47      -0.2572      2.00000
     48      -0.2547      2.00000
     49      -0.1490      2.00000
     50      -0.1394      2.00000
     51      -0.1393      2.00000
     52      -0.1378      2.00000
     53      -0.1042      2.00000
     54      -0.0975      2.00000
     55      -0.0975      2.00000
     56      -0.0958      2.00000
     57       1.5930      2.00000
     58       1.5940      2.00000
     59       1.5941      2.00000
     60       1.5973      2.00000
     61       2.7281      2.00000
     62       2.7291      2.00000
     63       2.7293      2.00000
     64       2.7332      2.00000
     65       7.4393      0.00000
     66       7.4445      0.00000
     67       7.4445      0.00000
     68       7.4448      0.00000
     69       7.9150      0.00000
     70       7.9197      0.00000
     71       7.9197      0.00000
     72       7.9204      0.00000
     73      11.6608      0.00000
     74      11.6723      0.00000
     75      11.6735      0.00000
     76      11.6851      0.00000
     77      12.0302      0.00000
     78      12.0395      0.00000
     79      12.0423      0.00000
     80      12.0521      0.00000
     81      12.3453      0.00000
     82      12.3467      0.00000
     83      12.3478      0.00000
     84      12.3538      0.00000


--------------------------------------------------------------------------------------------------------


 soft charge-density along one line, spin component           1
         0         1         2         3         4         5         6         7         8         9
 total charge-density along one line
 
 pseudopotential strength for first ion, spin component:           1
  9.760   0.005  -0.000  -0.000   0.000   0.000   0.000  -0.000
  0.005  -0.002   0.000  -0.000  -0.000   0.000   0.000  -0.000
 -0.000   0.000  -3.935  -0.000   0.000  -0.015   0.000  -0.000
 -0.000  -0.000  -0.000  -3.928   0.000   0.000  -0.012  -0.000
  0.000  -0.000   0.000   0.000  -3.935  -0.000  -0.000  -0.015
  0.000   0.000  -0.015   0.000  -0.000  -0.763  -0.000   0.000
  0.000   0.000   0.000  -0.012  -0.000  -0.000  -0.763   0.000
 -0.000  -0.000  -0.000  -0.000  -0.015   0.000   0.000  -0.763
 total augmentation occupancy for first ion, spin component:           1
  1.469  -1.121   0.000  -0.000  -0.000   0.000   0.000  -0.000
 -1.121   1.058  -0.000  -0.000   0.000  -0.000  -0.000   0.000
  0.000  -0.000   1.222  -0.000   0.000   0.228  -0.000  -0.000
 -0.000  -0.000  -0.000   0.926   0.000  -0.000   0.105   0.000
 -0.000   0.000   0.000   0.000   1.222  -0.000   0.000   0.228
  0.000  -0.000   0.228  -0.000  -0.000   0.048   0.000  -0.000
  0.000  -0.000  -0.000   0.105   0.000   0.000   0.013   0.000
 -0.000   0.000  -0.000   0.000   0.228  -0.000   0.000   0.048


------------------------ aborting loop because EDIFF is reached ----------------------------------------


    CHARGE:  cpu time    6.17: real time   12.33
    FORLOC:  cpu time    0.08: real time    0.17
    FORNL :  cpu time   34.26: real time   68.54
    STRESS:  cpu time   64.41: real time  128.89
    FORHAR:  cpu time    0.32: real time    0.63
    MIXING:  cpu time    0.12: real time    0.24
    OFIELD:  cpu time    0.00: real time    0.00

 ---------------------------------------------------------------------------------------------

         DFTD3 V3.0 Rev 1        
 IVDW         = 12
 DF pbe       
 parameters
 VDW_S6       =    1.0000
 VDW_S8       =    0.7875
 VDW_A1       =    0.4289
 VDW_A2       =    4.4407
 k1-k3        =   16.0000    1.3333   -4.0000
 VDW_RADIUS   =   50.2022 A
 VDW_CNRADIUS =   21.1671 A
 Edisp (eV)   -5.13345

 E6    (eV) :    -3.6745
 E8    (eV) :    -1.4590
 % E8        : 28.42
    FORVDW:  cpu time    0.24: real time    0.49

  FORCE on cell =-STRESS in cart. coord.  units (eV):
  Direction    XX          YY          ZZ          XY          YZ          ZX
  --------------------------------------------------------------------------------------
  Alpha Z   301.66361   301.66361   301.66361
  Ewald     512.24195   511.76029 -4815.68550     0.35304     0.00063    -0.00936
  Hartree  1211.68751  1211.69064 -1031.42565     0.11080     0.00030    -0.00230
  E(xc)    -467.83382  -467.84069  -484.66516    -0.00294     0.00005    -0.00012
  Local   -3356.19913 -3355.81966  3946.43595    -0.40542    -0.00010     0.00787
  n-local  -111.66059  -111.77320  -102.59227    -0.09227     0.00076    -0.00170
  augment   -12.36702   -12.36611   -11.33683    -0.00043    -0.00001     0.00006
  Kinetic  1922.50332  1923.26720  2204.96818     0.53320    -0.01016     0.02380
  Fock        0.00000     0.00000     0.00000     0.00000     0.00000     0.00000
  vdW        -0.72771    -0.71747    -6.06572     0.00850    -0.00000    -0.00002
  -------------------------------------------------------------------------------------
  Total      -0.69188    -0.13539     1.29661     0.50449    -0.00853     0.01823
  in kB      -4.00783    -0.78427     7.51086     2.92234    -0.04940     0.10559
  external pressure =        0.91 kB  Pullay stress =        0.00 kB


 VOLUME and BASIS-vectors are now :
 -----------------------------------------------------------------------------
  energy-cutoff  :      800.00
  volume of cell :      276.59
      direct lattice vectors                 reciprocal lattice vectors
     4.932874498 -0.001919286  0.000000000     0.202767147  0.117172881  0.000000000
    -2.468099399  4.271034986  0.000000000     0.000091118  0.234187941  0.000000000
     0.000000000  0.000000000 13.130866442     0.000000000  0.000000000  0.076156437

  length of vectors
     4.932874871  4.932874871 13.130866442     0.234187958  0.234187958  0.076156437


 FORCES acting on ions
    electron-ion (+dipol)            ewald-force                    non-local-force                 convergence-correction
 -----------------------------------------------------------------------------------------------
   -.196E+00 0.664E-01 0.320E+00   0.185E+00 -.620E-01 -.318E+00   -.508E-02 0.286E-02 0.596E-02   0.465E-05 -.543E-05 -.225E-03
   0.122E+00 0.595E-01 0.842E+00   -.130E+00 -.543E-01 -.873E+00   0.205E-01 0.257E-02 0.732E-01   0.485E-05 -.556E-05 -.225E-03
   -.449E+00 -.264E+00 0.846E+00   0.494E+00 0.299E+00 -.878E+00   0.131E-01 -.143E-02 0.734E-01   0.484E-05 -.538E-05 -.225E-03
   -.459E+00 0.400E+00 0.838E+00   0.505E+00 -.427E+00 -.868E+00   0.121E-01 0.762E-02 0.729E-01   0.459E-05 -.528E-05 -.225E-03
   -.114E+00 0.664E-01 -.984E-01   0.107E+00 -.619E-01 0.976E-01   -.483E-02 0.290E-02 -.449E-02   0.314E-04 -.465E-05 0.106E-03
   -.114E+00 0.664E-01 -.989E-01   0.107E+00 -.619E-01 0.981E-01   -.482E-02 0.290E-02 -.442E-02   0.313E-04 -.466E-05 0.106E-03
   -.114E+00 0.664E-01 -.989E-01   0.107E+00 -.618E-01 0.981E-01   -.482E-02 0.290E-02 -.442E-02   0.314E-04 -.464E-05 0.106E-03
   -.114E+00 0.664E-01 -.989E-01   0.107E+00 -.619E-01 0.981E-01   -.482E-02 0.291E-02 -.441E-02   0.313E-04 -.471E-05 0.106E-03
   0.137E+00 -.775E-01 -.953E-01   -.130E+00 0.723E-01 0.960E-01   0.503E-02 -.309E-02 0.519E-02   0.102E-04 -.774E-05 -.284E-03
   0.917E-01 -.827E-01 -.112E+00   -.839E-01 0.777E-01 0.113E+00   0.504E-02 -.310E-02 0.496E-02   0.990E-05 -.779E-05 -.285E-03
   0.119E+00 -.407E-01 -.103E+00   -.111E+00 0.355E-01 0.104E+00   0.505E-02 -.312E-02 0.507E-02   0.101E-04 -.753E-05 -.284E-03
   0.111E+00 -.671E-01 -.759E-01   -.103E+00 0.619E-01 0.770E-01   0.498E-02 -.312E-02 0.408E-02   0.995E-05 -.768E-05 -.284E-03
   0.919E-01 -.501E-01 -.112E+00   -.843E-01 0.462E-01 0.113E+00   0.501E-02 -.269E-02 0.491E-02   0.948E-05 -.365E-05 0.404E-03
   0.137E+00 -.554E-01 -.958E-01   -.129E+00 0.516E-01 0.959E-01   0.499E-02 -.271E-02 0.508E-02   0.960E-05 -.359E-05 0.404E-03
   0.119E+00 -.916E-01 -.104E+00   -.112E+00 0.878E-01 0.104E+00   0.502E-02 -.268E-02 0.498E-02   0.950E-05 -.364E-05 0.404E-03
   0.111E+00 -.656E-01 -.769E-01   -.103E+00 0.618E-01 0.774E-01   0.491E-02 -.268E-02 0.400E-02   0.963E-05 -.356E-05 0.404E-03
   0.884E+00 -.625E-01 -.164E+01   -.994E+00 0.584E-01 0.169E+01   -.925E-01 -.255E-02 -.181E+00   -.332E-05 0.519E-05 -.213E-03
   -.886E-01 -.647E-01 0.381E+00   0.116E+00 0.614E-01 -.365E+00   0.237E-01 -.246E-02 -.227E-01   -.681E-05 0.529E-05 -.224E-03
   0.896E-01 0.382E-01 0.381E+00   -.872E-01 -.558E-01 -.365E+00   0.127E-01 -.874E-02 -.227E-01   -.474E-05 0.648E-05 -.224E-03
   0.901E-01 -.168E+00 0.382E+00   -.875E-01 0.179E+00 -.365E+00   0.126E-01 0.405E-02 -.228E-01   -.460E-05 0.395E-05 -.225E-03
   0.112E+00 -.651E-01 -.993E-01   -.107E+00 0.615E-01 0.987E-01   0.401E-02 -.245E-02 0.141E-02   -.318E-04 0.497E-05 0.107E-03
   0.112E+00 -.651E-01 -.983E-01   -.106E+00 0.615E-01 0.977E-01   0.401E-02 -.245E-02 0.114E-02   -.316E-04 0.503E-05 0.107E-03
   0.112E+00 -.650E-01 -.983E-01   -.107E+00 0.615E-01 0.977E-01   0.401E-02 -.245E-02 0.114E-02   -.317E-04 0.495E-05 0.107E-03
   0.112E+00 -.652E-01 -.983E-01   -.107E+00 0.616E-01 0.978E-01   0.401E-02 -.245E-02 0.114E-02   -.317E-04 0.506E-05 0.107E-03
   -.137E+00 0.818E-01 -.112E+00   0.130E+00 -.774E-01 0.113E+00   -.416E-02 0.258E-02 -.115E-02   -.106E-04 0.766E-05 -.286E-03
   -.902E-01 0.764E-01 -.953E-01   0.841E-01 -.720E-01 0.960E-01   -.454E-02 0.251E-02 -.735E-03   -.104E-04 0.776E-05 -.286E-03
   -.109E+00 0.389E-01 -.104E+00   0.102E+00 -.351E-01 0.105E+00   -.429E-02 0.288E-02 -.983E-03   -.106E-04 0.759E-05 -.286E-03
   -.117E+00 0.657E-01 -.764E-01   0.111E+00 -.615E-01 0.771E-01   -.447E-02 0.265E-02 -.112E-02   -.104E-04 0.770E-05 -.286E-03
   -.899E-01 0.538E-01 -.957E-01   0.845E-01 -.512E-01 0.957E-01   -.426E-02 0.236E-02 -.728E-03   -.841E-05 0.357E-05 0.403E-03
   -.136E+00 0.484E-01 -.113E+00   0.129E+00 -.458E-01 0.113E+00   -.388E-02 0.229E-02 -.128E-02   -.855E-05 0.317E-05 0.402E-03
   -.108E+00 0.908E-01 -.104E+00   0.102E+00 -.875E-01 0.105E+00   -.401E-02 0.200E-02 -.105E-02   -.812E-05 0.346E-05 0.402E-03
   -.116E+00 0.644E-01 -.773E-01   0.110E+00 -.616E-01 0.773E-01   -.420E-02 0.222E-02 -.120E-02   -.878E-05 0.339E-05 0.403E-03
 -----------------------------------------------------------------------------------------------
   -.349E-04 -.189E-04 0.637E-02   -.133E-13 0.491E-14 0.356E-13   0.508E-04 0.207E-04 -.638E-02   0.648E-06 -.268E-06 0.129E-04
 
 
 POSITION                                       TOTAL-FORCE (eV/Angst)
 -----------------------------------------------------------------------------------
      2.46402      0.00044      1.64136        -0.016044      0.007238      0.007437
      4.93046     -0.00052      1.64136         0.011867      0.007750      0.041929
      1.22997      2.13595      1.64136         0.058551      0.034151      0.041495
      3.69641      2.13499      1.64136         0.057966     -0.019325      0.042278
      2.46402      0.00044      8.20679        -0.012026      0.007455     -0.005140
      4.93046     -0.00052      8.20679        -0.012025      0.007456     -0.005117
      1.22997      2.13595      8.20679        -0.012025      0.007455     -0.005120
      3.69641      2.13499      8.20679        -0.012024      0.007454     -0.005110
     -1.23163      2.13412      4.92407         0.012752     -0.008308      0.005629
      1.23481      2.13316      4.92407         0.012938     -0.008224      0.005864
     -2.46568      4.26964      4.92407         0.012778     -0.008363      0.005742
      0.00076      4.26868      4.92407         0.012929     -0.008293      0.004852
     -1.23163      2.13412     11.48951         0.012690     -0.006668      0.005872
      1.23481      2.13316     11.48951         0.012523     -0.006483      0.005578
     -2.46568      4.26964     11.48951         0.012452     -0.006495      0.005711
      0.00076      4.26868     11.48951         0.012696     -0.006559      0.004838
      0.00019      1.42496      1.65072        -0.203908     -0.006759     -0.135645
      2.46311      1.42400      1.64136         0.052212     -0.005760     -0.006644
     -1.23737      3.56047      1.64136         0.015434     -0.027014     -0.006709
      1.22906      3.55952      1.64136         0.015542      0.015514     -0.006680
     -0.00332      1.42496      8.20679         0.009561     -0.006059      0.000902
      2.46311      1.42400      8.20679         0.009552     -0.006058      0.000674
     -1.23737      3.56047      8.20679         0.009556     -0.006057      0.000674
      1.22906      3.55952      8.20679         0.009556     -0.006062      0.000676
      1.23571      0.70960      4.92407        -0.011121      0.007022     -0.000418
      3.70215      0.70864      4.92407        -0.010752      0.006993     -0.000342
      0.00166      2.84512      4.92407        -0.010906      0.006701     -0.000414
      2.46810      2.84416      4.92407        -0.010959      0.006888     -0.000804
      1.23571      0.70960     11.48951        -0.009743      0.005011     -0.000283
      3.70215      0.70864     11.48951        -0.010118      0.004973     -0.000485
      0.00166      2.84512     11.48951        -0.009893      0.005311     -0.000423
      2.46810      2.84416     11.48951        -0.010010      0.005118     -0.000820
 -----------------------------------------------------------------------------------
    total drift:                                0.000017      0.000002     -0.000005


--------------------------------------------------------------------------------------------------------



  FREE ENERGIE OF THE ION-ELECTRON SYSTEM (eV)
  ---------------------------------------------------
  free  energy   TOTEN  =      -299.82123208 eV

  energy  without entropy=     -299.82123208  energy(sigma->0) =     -299.82123208
 


--------------------------------------------------------------------------------------------------------


    POTLOK:  cpu time    1.18: real time    2.37


--------------------------------------------------------------------------------------------------------


     LOOP+:  cpu time12181.45: real time24370.98
    4ORBIT:  cpu time    0.00: real time    0.00
 BZINTS: Fermi energy:  4.859385;128.000000 electrons
         Band energy:-541.790252;  BLOECHL correction:  0.000000

 total amount of memory used by VASP on root node   398531. kBytes
========================================================================

   base      :      30000. kBytes
   nonl-proj :      76672. kBytes
   fftplans  :      14247. kBytes
   grid      :      30326. kBytes
   one-center:         98. kBytes
   wavefun   :     247188. kBytes
 
  
  
 General timing and accounting informations for this job:
 ========================================================
  
                  Total CPU time used (sec):    12302.537
                            User time (sec):     6215.637
                          System time (sec):     6086.900
                         Elapsed time (sec):    24613.372
  
                   Maximum memory used (kb):      490084.
                   Average memory used (kb):           0.
  
                          Minor page faults:     62674818
                          Major page faults:            0
                 Voluntary context switches:         1221
