<?xml version="1.0" encoding="ISO-8859-1"?>
<modeling>
 <generator>
  <i name="program" type="string">vasp </i>
  <i name="version" type="string">5.3.5  </i>
  <i name="subversion" type="string">31Mar14 (build Nov 02 2014 15:17:37) complex                          parallel </i>
  <i name="platform" type="string">ion-Intel-MKL </i>
  <i name="date" type="string">2016 10 18 </i>
  <i name="time" type="string">06:25:30 </i>
 </generator>
 <incar>
  <i type="string" name="SYSTEM">graphite</i>
  <i type="string" name="PREC">accurate</i>
  <i type="int" name="NELM">   200</i>
  <i type="int" name="IBRION">    -1</i>
  <i name="EDIFF">      0.00000001</i>
  <i name="EDIFFG">      0.00100000</i>
  <i type="int" name="NSW">     0</i>
  <i type="int" name="ISIF">     2</i>
  <i name="ENCUT">    800.00000000</i>
  <i type="int" name="ISMEAR">    -5</i>
  <i type="logical" name="LWAVE"> F  </i>
  <i type="logical" name="LCHARG"> F  </i>
  <i type="int" name="NELM">   200</i>
  <i type="string" name="GGA">PE</i>
 </incar>
 <kpoints>
  <generation param="Gamma">
   <v type="int" name="divisions">       6        6        4 </v>
   <v name="usershift">      0.00000000       0.00000000       0.00000000 </v>
   <v name="genvec1">      0.16666667       0.00000000       0.00000000 </v>
   <v name="genvec2">      0.00000000       0.16666667       0.00000000 </v>
   <v name="genvec3">      0.00000000       0.00000000       0.25000000 </v>
   <v name="shift">      0.00000000       0.00000000       0.00000000 </v>
  </generation>
  <varray name="kpointlist" >
   <v>       0.00000000       0.00000000       0.00000000 </v>
   <v>       0.16666667       0.00000000       0.00000000 </v>
   <v>       0.33333333       0.00000000       0.00000000 </v>
   <v>       0.50000000       0.00000000       0.00000000 </v>
   <v>       0.00000000       0.16666667       0.00000000 </v>
   <v>       0.16666667       0.16666667       0.00000000 </v>
   <v>       0.33333333       0.16666667       0.00000000 </v>
   <v>       0.50000000       0.16666667       0.00000000 </v>
   <v>      -0.33333333       0.16666667       0.00000000 </v>
   <v>      -0.16666667       0.16666667       0.00000000 </v>
   <v>       0.00000000       0.33333333       0.00000000 </v>
   <v>       0.16666667       0.33333333       0.00000000 </v>
   <v>       0.33333333       0.33333333       0.00000000 </v>
   <v>       0.50000000       0.33333333       0.00000000 </v>
   <v>      -0.33333333       0.33333333       0.00000000 </v>
   <v>      -0.16666667       0.33333333       0.00000000 </v>
   <v>       0.00000000       0.50000000       0.00000000 </v>
   <v>       0.16666667       0.50000000       0.00000000 </v>
   <v>       0.33333333       0.50000000       0.00000000 </v>
   <v>       0.50000000       0.50000000       0.00000000 </v>
   <v>       0.00000000       0.00000000       0.25000000 </v>
   <v>       0.16666667       0.00000000       0.25000000 </v>
   <v>       0.33333333       0.00000000       0.25000000 </v>
   <v>       0.50000000       0.00000000       0.25000000 </v>
   <v>      -0.33333333      -0.00000000       0.25000000 </v>
   <v>      -0.16666667      -0.00000000       0.25000000 </v>
   <v>       0.00000000       0.16666667       0.25000000 </v>
   <v>       0.16666667       0.16666667       0.25000000 </v>
   <v>       0.33333333       0.16666667       0.25000000 </v>
   <v>       0.50000000       0.16666667       0.25000000 </v>
   <v>      -0.33333333       0.16666667       0.25000000 </v>
   <v>      -0.16666667       0.16666667       0.25000000 </v>
   <v>       0.00000000       0.33333333       0.25000000 </v>
   <v>       0.16666667       0.33333333       0.25000000 </v>
   <v>       0.33333333       0.33333333       0.25000000 </v>
   <v>       0.50000000       0.33333333       0.25000000 </v>
   <v>      -0.33333333       0.33333333       0.25000000 </v>
   <v>      -0.16666667       0.33333333       0.25000000 </v>
   <v>       0.00000000       0.50000000       0.25000000 </v>
   <v>       0.16666667       0.50000000       0.25000000 </v>
   <v>       0.33333333       0.50000000       0.25000000 </v>
   <v>       0.50000000       0.50000000       0.25000000 </v>
   <v>      -0.33333333       0.50000000       0.25000000 </v>
   <v>      -0.16666667       0.50000000       0.25000000 </v>
   <v>      -0.00000000      -0.33333333       0.25000000 </v>
   <v>       0.16666667      -0.33333333       0.25000000 </v>
   <v>       0.33333333      -0.33333333       0.25000000 </v>
   <v>       0.50000000      -0.33333333       0.25000000 </v>
   <v>      -0.33333333      -0.33333333       0.25000000 </v>
   <v>      -0.16666667      -0.33333333       0.25000000 </v>
   <v>       0.00000000      -0.16666667       0.25000000 </v>
   <v>       0.16666667      -0.16666667       0.25000000 </v>
   <v>       0.33333333      -0.16666667       0.25000000 </v>
   <v>       0.50000000      -0.16666667       0.25000000 </v>
   <v>      -0.33333333      -0.16666667       0.25000000 </v>
   <v>      -0.16666667      -0.16666667       0.25000000 </v>
   <v>       0.00000000       0.00000000       0.50000000 </v>
   <v>       0.16666667       0.00000000       0.50000000 </v>
   <v>       0.33333333       0.00000000       0.50000000 </v>
   <v>       0.50000000       0.00000000       0.50000000 </v>
   <v>       0.00000000       0.16666667       0.50000000 </v>
   <v>       0.16666667       0.16666667       0.50000000 </v>
   <v>       0.33333333       0.16666667       0.50000000 </v>
   <v>       0.50000000       0.16666667       0.50000000 </v>
   <v>      -0.33333333       0.16666667       0.50000000 </v>
   <v>      -0.16666667       0.16666667       0.50000000 </v>
   <v>       0.00000000       0.33333333       0.50000000 </v>
   <v>       0.16666667       0.33333333       0.50000000 </v>
   <v>       0.33333333       0.33333333       0.50000000 </v>
   <v>       0.50000000       0.33333333       0.50000000 </v>
   <v>      -0.33333333       0.33333333       0.50000000 </v>
   <v>      -0.16666667       0.33333333       0.50000000 </v>
   <v>       0.00000000       0.50000000       0.50000000 </v>
   <v>       0.16666667       0.50000000       0.50000000 </v>
   <v>       0.33333333       0.50000000       0.50000000 </v>
   <v>       0.50000000       0.50000000       0.50000000 </v>
  </varray>
  <varray name="weights" >
   <v>       0.00694444 </v>
   <v>       0.01388889 </v>
   <v>       0.01388889 </v>
   <v>       0.00694444 </v>
   <v>       0.01388889 </v>
   <v>       0.01388889 </v>
   <v>       0.01388889 </v>
   <v>       0.01388889 </v>
   <v>       0.01388889 </v>
   <v>       0.01388889 </v>
   <v>       0.01388889 </v>
   <v>       0.01388889 </v>
   <v>       0.01388889 </v>
   <v>       0.01388889 </v>
   <v>       0.01388889 </v>
   <v>       0.01388889 </v>
   <v>       0.00694444 </v>
   <v>       0.01388889 </v>
   <v>       0.01388889 </v>
   <v>       0.00694444 </v>
   <v>       0.01388889 </v>
   <v>       0.01388889 </v>
   <v>       0.01388889 </v>
   <v>       0.01388889 </v>
   <v>       0.01388889 </v>
   <v>       0.01388889 </v>
   <v>       0.01388889 </v>
   <v>       0.01388889 </v>
   <v>       0.01388889 </v>
   <v>       0.01388889 </v>
   <v>       0.01388889 </v>
   <v>       0.01388889 </v>
   <v>       0.01388889 </v>
   <v>       0.01388889 </v>
   <v>       0.01388889 </v>
   <v>       0.01388889 </v>
   <v>       0.01388889 </v>
   <v>       0.01388889 </v>
   <v>       0.01388889 </v>
   <v>       0.01388889 </v>
   <v>       0.01388889 </v>
   <v>       0.01388889 </v>
   <v>       0.01388889 </v>
   <v>       0.01388889 </v>
   <v>       0.01388889 </v>
   <v>       0.01388889 </v>
   <v>       0.01388889 </v>
   <v>       0.01388889 </v>
   <v>       0.01388889 </v>
   <v>       0.01388889 </v>
   <v>       0.01388889 </v>
   <v>       0.01388889 </v>
   <v>       0.01388889 </v>
   <v>       0.01388889 </v>
   <v>       0.01388889 </v>
   <v>       0.01388889 </v>
   <v>       0.00694444 </v>
   <v>       0.01388889 </v>
   <v>       0.01388889 </v>
   <v>       0.00694444 </v>
   <v>       0.01388889 </v>
   <v>       0.01388889 </v>
   <v>       0.01388889 </v>
   <v>       0.01388889 </v>
   <v>       0.01388889 </v>
   <v>       0.01388889 </v>
   <v>       0.01388889 </v>
   <v>       0.01388889 </v>
   <v>       0.01388889 </v>
   <v>       0.01388889 </v>
   <v>       0.01388889 </v>
   <v>       0.01388889 </v>
   <v>       0.00694444 </v>
   <v>       0.01388889 </v>
   <v>       0.01388889 </v>
   <v>       0.00694444 </v>
  </varray>
  <varray name="tetrahedronlist"  type="int" >
   <v type="int" >        2        2        5        6       27 </v>
   <v type="int" >        2        1        2        5       27 </v>
   <v type="int" >        2        1        2       21       27 </v>
   <v type="int" >        2        2        6       27       28 </v>
   <v type="int" >        2        2       22       27       28 </v>
   <v type="int" >        2        2       21       22       27 </v>
   <v type="int" >        2        3        6        7       28 </v>
   <v type="int" >        2        2        3        6       28 </v>
   <v type="int" >        2        2        3       22       28 </v>
   <v type="int" >        2        3        7       28       29 </v>
   <v type="int" >        2        3       23       28       29 </v>
   <v type="int" >        2        3       22       23       28 </v>
   <v type="int" >        2        4        7        8       29 </v>
   <v type="int" >        2        3        4        7       29 </v>
   <v type="int" >        2        3        4       23       29 </v>
   <v type="int" >        2        4        8       29       30 </v>
   <v type="int" >        2        4       24       29       30 </v>
   <v type="int" >        2        4       23       24       29 </v>
   <v type="int" >        2        3        8        9       30 </v>
   <v type="int" >        2        3        4        8       30 </v>
   <v type="int" >        2        3        4       24       30 </v>
   <v type="int" >        2        3        9       30       31 </v>
   <v type="int" >        2        3       25       30       31 </v>
   <v type="int" >        2        3       24       25       30 </v>
   <v type="int" >        2        2        9       10       31 </v>
   <v type="int" >        2        2        3        9       31 </v>
   <v type="int" >        2        2        3       25       31 </v>
   <v type="int" >        2        2       10       31       32 </v>
   <v type="int" >        2        2       26       31       32 </v>
   <v type="int" >        2        2       25       26       31 </v>
   <v type="int" >        2        1        5       10       32 </v>
   <v type="int" >        2        1        2       10       32 </v>
   <v type="int" >        2        1        2       26       32 </v>
   <v type="int" >        2        1        5       27       32 </v>
   <v type="int" >        2        1       21       27       32 </v>
   <v type="int" >        2        1       21       26       32 </v>
   <v type="int" >        2        6       11       12       33 </v>
   <v type="int" >        2        5        6       11       33 </v>
   <v type="int" >        2        5        6       27       33 </v>
   <v type="int" >        2        6       12       33       34 </v>
   <v type="int" >        2        6       28       33       34 </v>
   <v type="int" >        2        6       27       28       33 </v>
   <v type="int" >        2        7       12       13       34 </v>
   <v type="int" >        2        6        7       12       34 </v>
   <v type="int" >        2        6        7       28       34 </v>
   <v type="int" >        2        7       13       34       35 </v>
   <v type="int" >        2        7       29       34       35 </v>
   <v type="int" >        2        7       28       29       34 </v>
   <v type="int" >        2        8       13       14       35 </v>
   <v type="int" >        2        7        8       13       35 </v>
   <v type="int" >        2        7        8       29       35 </v>
   <v type="int" >        2        8       14       35       36 </v>
   <v type="int" >        2        8       30       35       36 </v>
   <v type="int" >        2        8       29       30       35 </v>
   <v type="int" >        2        9       14       15       36 </v>
   <v type="int" >        2        8        9       14       36 </v>
   <v type="int" >        2        8        9       30       36 </v>
   <v type="int" >        2        9       15       36       37 </v>
   <v type="int" >        2        9       31       36       37 </v>
   <v type="int" >        2        9       30       31       36 </v>
   <v type="int" >        2       10       15       16       37 </v>
   <v type="int" >        2        9       10       15       37 </v>
   <v type="int" >        2        9       10       31       37 </v>
   <v type="int" >        2       10       16       37       38 </v>
   <v type="int" >        2       10       32       37       38 </v>
   <v type="int" >        2       10       31       32       37 </v>
   <v type="int" >        2        5       11       16       38 </v>
   <v type="int" >        2        5       10       16       38 </v>
   <v type="int" >        2        5       10       32       38 </v>
   <v type="int" >        2        5       11       33       38 </v>
   <v type="int" >        2        5       27       33       38 </v>
   <v type="int" >        2        5       27       32       38 </v>
   <v type="int" >        2       12       17       18       39 </v>
   <v type="int" >        2       11       12       17       39 </v>
   <v type="int" >        2       11       12       33       39 </v>
   <v type="int" >        2       12       18       39       40 </v>
   <v type="int" >        2       12       34       39       40 </v>
   <v type="int" >        2       12       33       34       39 </v>
   <v type="int" >        2       13       18       19       40 </v>
   <v type="int" >        2       12       13       18       40 </v>
   <v type="int" >        2       12       13       34       40 </v>
   <v type="int" >        2       13       19       40       41 </v>
   <v type="int" >        2       13       35       40       41 </v>
   <v type="int" >        2       13       34       35       40 </v>
   <v type="int" >        2       14       19       20       41 </v>
   <v type="int" >        2       13       14       19       41 </v>
   <v type="int" >        2       13       14       35       41 </v>
   <v type="int" >        2       14       20       41       42 </v>
   <v type="int" >        2       14       36       41       42 </v>
   <v type="int" >        2       14       35       36       41 </v>
   <v type="int" >        2       15       19       20       42 </v>
   <v type="int" >        2       14       15       20       42 </v>
   <v type="int" >        2       14       15       36       42 </v>
   <v type="int" >        2       15       19       42       43 </v>
   <v type="int" >        2       15       37       42       43 </v>
   <v type="int" >        2       15       36       37       42 </v>
   <v type="int" >        2       16       18       19       43 </v>
   <v type="int" >        2       15       16       19       43 </v>
   <v type="int" >        2       15       16       37       43 </v>
   <v type="int" >        2       16       18       43       44 </v>
   <v type="int" >        2       16       38       43       44 </v>
   <v type="int" >        2       16       37       38       43 </v>
   <v type="int" >        2       11       17       18       44 </v>
   <v type="int" >        2       11       16       18       44 </v>
   <v type="int" >        2       11       16       38       44 </v>
   <v type="int" >        2       11       17       39       44 </v>
   <v type="int" >        2       11       33       39       44 </v>
   <v type="int" >        2       11       33       38       44 </v>
   <v type="int" >        2       11       16       18       45 </v>
   <v type="int" >        2       11       17       18       45 </v>
   <v type="int" >        2       17       18       39       45 </v>
   <v type="int" >        2       16       18       45       46 </v>
   <v type="int" >        2       18       40       45       46 </v>
   <v type="int" >        2       18       39       40       45 </v>
   <v type="int" >        2       15       16       19       46 </v>
   <v type="int" >        2       16       18       19       46 </v>
   <v type="int" >        2       18       19       40       46 </v>
   <v type="int" >        2       15       19       46       47 </v>
   <v type="int" >        2       19       41       46       47 </v>
   <v type="int" >        2       19       40       41       46 </v>
   <v type="int" >        2       14       15       20       47 </v>
   <v type="int" >        2       15       19       20       47 </v>
   <v type="int" >        2       19       20       41       47 </v>
   <v type="int" >        2       14       20       47       48 </v>
   <v type="int" >        2       20       42       47       48 </v>
   <v type="int" >        2       20       41       42       47 </v>
   <v type="int" >        2       13       14       19       48 </v>
   <v type="int" >        2       14       19       20       48 </v>
   <v type="int" >        2       19       20       42       48 </v>
   <v type="int" >        2       13       19       48       49 </v>
   <v type="int" >        2       19       43       48       49 </v>
   <v type="int" >        2       19       42       43       48 </v>
   <v type="int" >        2       12       13       18       49 </v>
   <v type="int" >        2       13       18       19       49 </v>
   <v type="int" >        2       18       19       43       49 </v>
   <v type="int" >        2       12       18       49       50 </v>
   <v type="int" >        2       18       44       49       50 </v>
   <v type="int" >        2       18       43       44       49 </v>
   <v type="int" >        2       11       12       17       50 </v>
   <v type="int" >        2       12       17       18       50 </v>
   <v type="int" >        2       17       18       44       50 </v>
   <v type="int" >        2       11       17       45       50 </v>
   <v type="int" >        2       17       39       45       50 </v>
   <v type="int" >        2       17       39       44       50 </v>
   <v type="int" >        2        5       10       16       51 </v>
   <v type="int" >        2        5       11       16       51 </v>
   <v type="int" >        2       11       16       45       51 </v>
   <v type="int" >        2       10       16       51       52 </v>
   <v type="int" >        2       16       46       51       52 </v>
   <v type="int" >        2       16       45       46       51 </v>
   <v type="int" >        2        9       10       15       52 </v>
   <v type="int" >        2       10       15       16       52 </v>
   <v type="int" >        2       15       16       46       52 </v>
   <v type="int" >        2        9       15       52       53 </v>
   <v type="int" >        2       15       47       52       53 </v>
   <v type="int" >        2       15       46       47       52 </v>
   <v type="int" >        2        8        9       14       53 </v>
   <v type="int" >        2        9       14       15       53 </v>
   <v type="int" >        2       14       15       47       53 </v>
   <v type="int" >        2        8       14       53       54 </v>
   <v type="int" >        2       14       48       53       54 </v>
   <v type="int" >        2       14       47       48       53 </v>
   <v type="int" >        2        7        8       13       54 </v>
   <v type="int" >        2        8       13       14       54 </v>
   <v type="int" >        2       13       14       48       54 </v>
   <v type="int" >        2        7       13       54       55 </v>
   <v type="int" >        2       13       49       54       55 </v>
   <v type="int" >        2       13       48       49       54 </v>
   <v type="int" >        2        6        7       12       55 </v>
   <v type="int" >        2        7       12       13       55 </v>
   <v type="int" >        2       12       13       49       55 </v>
   <v type="int" >        2        6       12       55       56 </v>
   <v type="int" >        2       12       50       55       56 </v>
   <v type="int" >        2       12       49       50       55 </v>
   <v type="int" >        2        5        6       11       56 </v>
   <v type="int" >        2        6       11       12       56 </v>
   <v type="int" >        2       11       12       50       56 </v>
   <v type="int" >        2        5       11       51       56 </v>
   <v type="int" >        2       11       45       51       56 </v>
   <v type="int" >        2       11       45       50       56 </v>
   <v type="int" >        2        1        2       10       21 </v>
   <v type="int" >        2        1        5       10       21 </v>
   <v type="int" >        2        5       10       21       51 </v>
   <v type="int" >        2        2       10       21       22 </v>
   <v type="int" >        2       10       21       22       52 </v>
   <v type="int" >        2       10       21       51       52 </v>
   <v type="int" >        2        2        3        9       22 </v>
   <v type="int" >        2        2        9       10       22 </v>
   <v type="int" >        2        9       10       22       52 </v>
   <v type="int" >        2        3        9       22       23 </v>
   <v type="int" >        2        9       22       23       53 </v>
   <v type="int" >        2        9       22       52       53 </v>
   <v type="int" >        2        3        4        8       23 </v>
   <v type="int" >        2        3        8        9       23 </v>
   <v type="int" >        2        8        9       23       53 </v>
   <v type="int" >        2        4        8       23       24 </v>
   <v type="int" >        2        8       23       24       54 </v>
   <v type="int" >        2        8       23       53       54 </v>
   <v type="int" >        2        3        4        7       24 </v>
   <v type="int" >        2        4        7        8       24 </v>
   <v type="int" >        2        7        8       24       54 </v>
   <v type="int" >        2        3        7       24       25 </v>
   <v type="int" >        2        7       24       25       55 </v>
   <v type="int" >        2        7       24       54       55 </v>
   <v type="int" >        2        2        3        6       25 </v>
   <v type="int" >        2        3        6        7       25 </v>
   <v type="int" >        2        6        7       25       55 </v>
   <v type="int" >        2        2        6       25       26 </v>
   <v type="int" >        2        6       25       26       56 </v>
   <v type="int" >        2        6       25       55       56 </v>
   <v type="int" >        2        1        2        5       26 </v>
   <v type="int" >        2        2        5        6       26 </v>
   <v type="int" >        2        5        6       26       56 </v>
   <v type="int" >        2        1        5       21       26 </v>
   <v type="int" >        2        5       21       26       51 </v>
   <v type="int" >        2        5       26       51       56 </v>
   <v type="int" >        2       22       27       28       61 </v>
   <v type="int" >        2       21       22       27       61 </v>
   <v type="int" >        2       21       22       57       61 </v>
   <v type="int" >        2       22       28       61       62 </v>
   <v type="int" >        2       22       58       61       62 </v>
   <v type="int" >        2       22       57       58       61 </v>
   <v type="int" >        2       23       28       29       62 </v>
   <v type="int" >        2       22       23       28       62 </v>
   <v type="int" >        2       22       23       58       62 </v>
   <v type="int" >        2       23       29       62       63 </v>
   <v type="int" >        2       23       59       62       63 </v>
   <v type="int" >        2       23       58       59       62 </v>
   <v type="int" >        2       24       29       30       63 </v>
   <v type="int" >        2       23       24       29       63 </v>
   <v type="int" >        2       23       24       59       63 </v>
   <v type="int" >        2       24       30       63       64 </v>
   <v type="int" >        2       24       60       63       64 </v>
   <v type="int" >        2       24       59       60       63 </v>
   <v type="int" >        2       25       30       31       64 </v>
   <v type="int" >        2       24       25       30       64 </v>
   <v type="int" >        2       24       25       60       64 </v>
   <v type="int" >        2       25       31       64       65 </v>
   <v type="int" >        2       25       59       64       65 </v>
   <v type="int" >        2       25       59       60       64 </v>
   <v type="int" >        2       26       31       32       65 </v>
   <v type="int" >        2       25       26       31       65 </v>
   <v type="int" >        2       25       26       59       65 </v>
   <v type="int" >        2       26       32       65       66 </v>
   <v type="int" >        2       26       58       65       66 </v>
   <v type="int" >        2       26       58       59       65 </v>
   <v type="int" >        2       21       27       32       66 </v>
   <v type="int" >        2       21       26       32       66 </v>
   <v type="int" >        2       21       26       58       66 </v>
   <v type="int" >        2       21       27       61       66 </v>
   <v type="int" >        2       21       57       61       66 </v>
   <v type="int" >        2       21       57       58       66 </v>
   <v type="int" >        2       28       33       34       67 </v>
   <v type="int" >        2       27       28       33       67 </v>
   <v type="int" >        2       27       28       61       67 </v>
   <v type="int" >        2       28       34       67       68 </v>
   <v type="int" >        2       28       62       67       68 </v>
   <v type="int" >        2       28       61       62       67 </v>
   <v type="int" >        2       29       34       35       68 </v>
   <v type="int" >        2       28       29       34       68 </v>
   <v type="int" >        2       28       29       62       68 </v>
   <v type="int" >        2       29       35       68       69 </v>
   <v type="int" >        2       29       63       68       69 </v>
   <v type="int" >        2       29       62       63       68 </v>
   <v type="int" >        2       30       35       36       69 </v>
   <v type="int" >        2       29       30       35       69 </v>
   <v type="int" >        2       29       30       63       69 </v>
   <v type="int" >        2       30       36       69       70 </v>
   <v type="int" >        2       30       64       69       70 </v>
   <v type="int" >        2       30       63       64       69 </v>
   <v type="int" >        2       31       36       37       70 </v>
   <v type="int" >        2       30       31       36       70 </v>
   <v type="int" >        2       30       31       64       70 </v>
   <v type="int" >        2       31       37       70       71 </v>
   <v type="int" >        2       31       65       70       71 </v>
   <v type="int" >        2       31       64       65       70 </v>
   <v type="int" >        2       32       37       38       71 </v>
   <v type="int" >        2       31       32       37       71 </v>
   <v type="int" >        2       31       32       65       71 </v>
   <v type="int" >        2       32       38       71       72 </v>
   <v type="int" >        2       32       66       71       72 </v>
   <v type="int" >        2       32       65       66       71 </v>
   <v type="int" >        2       27       33       38       72 </v>
   <v type="int" >        2       27       32       38       72 </v>
   <v type="int" >        2       27       32       66       72 </v>
   <v type="int" >        2       27       33       67       72 </v>
   <v type="int" >        2       27       61       67       72 </v>
   <v type="int" >        2       27       61       66       72 </v>
   <v type="int" >        2       34       39       40       73 </v>
   <v type="int" >        2       33       34       39       73 </v>
   <v type="int" >        2       33       34       67       73 </v>
   <v type="int" >        2       34       40       73       74 </v>
   <v type="int" >        2       34       68       73       74 </v>
   <v type="int" >        2       34       67       68       73 </v>
   <v type="int" >        2       35       40       41       74 </v>
   <v type="int" >        2       34       35       40       74 </v>
   <v type="int" >        2       34       35       68       74 </v>
   <v type="int" >        2       35       41       74       75 </v>
   <v type="int" >        2       35       69       74       75 </v>
   <v type="int" >        2       35       68       69       74 </v>
   <v type="int" >        2       36       41       42       75 </v>
   <v type="int" >        2       35       36       41       75 </v>
   <v type="int" >        2       35       36       69       75 </v>
   <v type="int" >        2       36       42       75       76 </v>
   <v type="int" >        2       36       70       75       76 </v>
   <v type="int" >        2       36       69       70       75 </v>
   <v type="int" >        2       37       42       43       76 </v>
   <v type="int" >        2       36       37       42       76 </v>
   <v type="int" >        2       36       37       70       76 </v>
   <v type="int" >        2       37       43       75       76 </v>
   <v type="int" >        2       37       71       75       76 </v>
   <v type="int" >        2       37       70       71       76 </v>
   <v type="int" >        2       38       43       44       75 </v>
   <v type="int" >        2       37       38       43       75 </v>
   <v type="int" >        2       37       38       71       75 </v>
   <v type="int" >        2       38       44       74       75 </v>
   <v type="int" >        2       38       72       74       75 </v>
   <v type="int" >        2       38       71       72       75 </v>
   <v type="int" >        2       33       39       44       74 </v>
   <v type="int" >        2       33       38       44       74 </v>
   <v type="int" >        2       33       38       72       74 </v>
   <v type="int" >        2       33       39       73       74 </v>
   <v type="int" >        2       33       67       73       74 </v>
   <v type="int" >        2       33       67       72       74 </v>
   <v type="int" >        2       40       45       46       67 </v>
   <v type="int" >        2       39       40       45       67 </v>
   <v type="int" >        2       39       40       67       73 </v>
   <v type="int" >        2       40       46       67       72 </v>
   <v type="int" >        2       40       67       72       74 </v>
   <v type="int" >        2       40       67       73       74 </v>
   <v type="int" >        2       41       46       47       72 </v>
   <v type="int" >        2       40       41       46       72 </v>
   <v type="int" >        2       40       41       72       74 </v>
   <v type="int" >        2       41       47       71       72 </v>
   <v type="int" >        2       41       71       72       75 </v>
   <v type="int" >        2       41       72       74       75 </v>
   <v type="int" >        2       42       47       48       71 </v>
   <v type="int" >        2       41       42       47       71 </v>
   <v type="int" >        2       41       42       71       75 </v>
   <v type="int" >        2       42       48       70       71 </v>
   <v type="int" >        2       42       70       71       76 </v>
   <v type="int" >        2       42       71       75       76 </v>
   <v type="int" >        2       43       48       49       70 </v>
   <v type="int" >        2       42       43       48       70 </v>
   <v type="int" >        2       42       43       70       76 </v>
   <v type="int" >        2       43       49       69       70 </v>
   <v type="int" >        2       43       69       70       75 </v>
   <v type="int" >        2       43       70       75       76 </v>
   <v type="int" >        2       44       49       50       69 </v>
   <v type="int" >        2       43       44       49       69 </v>
   <v type="int" >        2       43       44       69       75 </v>
   <v type="int" >        2       44       50       68       69 </v>
   <v type="int" >        2       44       68       69       74 </v>
   <v type="int" >        2       44       69       74       75 </v>
   <v type="int" >        2       39       45       50       68 </v>
   <v type="int" >        2       39       44       50       68 </v>
   <v type="int" >        2       39       44       68       74 </v>
   <v type="int" >        2       39       45       67       68 </v>
   <v type="int" >        2       39       67       68       73 </v>
   <v type="int" >        2       39       68       73       74 </v>
   <v type="int" >        2       46       51       52       61 </v>
   <v type="int" >        2       45       46       51       61 </v>
   <v type="int" >        2       45       46       61       67 </v>
   <v type="int" >        2       46       52       61       66 </v>
   <v type="int" >        2       46       61       66       72 </v>
   <v type="int" >        2       46       61       67       72 </v>
   <v type="int" >        2       47       52       53       66 </v>
   <v type="int" >        2       46       47       52       66 </v>
   <v type="int" >        2       46       47       66       72 </v>
   <v type="int" >        2       47       53       65       66 </v>
   <v type="int" >        2       47       65       66       71 </v>
   <v type="int" >        2       47       66       71       72 </v>
   <v type="int" >        2       48       53       54       65 </v>
   <v type="int" >        2       47       48       53       65 </v>
   <v type="int" >        2       47       48       65       71 </v>
   <v type="int" >        2       48       54       64       65 </v>
   <v type="int" >        2       48       64       65       70 </v>
   <v type="int" >        2       48       65       70       71 </v>
   <v type="int" >        2       49       54       55       64 </v>
   <v type="int" >        2       48       49       54       64 </v>
   <v type="int" >        2       48       49       64       70 </v>
   <v type="int" >        2       49       55       63       64 </v>
   <v type="int" >        2       49       63       64       69 </v>
   <v type="int" >        2       49       64       69       70 </v>
   <v type="int" >        2       50       55       56       63 </v>
   <v type="int" >        2       49       50       55       63 </v>
   <v type="int" >        2       49       50       63       69 </v>
   <v type="int" >        2       50       56       62       63 </v>
   <v type="int" >        2       50       62       63       68 </v>
   <v type="int" >        2       50       63       68       69 </v>
   <v type="int" >        2       45       51       56       62 </v>
   <v type="int" >        2       45       50       56       62 </v>
   <v type="int" >        2       45       50       62       68 </v>
   <v type="int" >        2       45       51       61       62 </v>
   <v type="int" >        2       45       61       62       67 </v>
   <v type="int" >        2       45       62       67       68 </v>
   <v type="int" >        2       21       22       52       57 </v>
   <v type="int" >        2       21       51       52       57 </v>
   <v type="int" >        2       51       52       57       61 </v>
   <v type="int" >        2       22       52       57       58 </v>
   <v type="int" >        2       52       57       58       66 </v>
   <v type="int" >        2       52       57       61       66 </v>
   <v type="int" >        2       22       23       53       58 </v>
   <v type="int" >        2       22       52       53       58 </v>
   <v type="int" >        2       52       53       58       66 </v>
   <v type="int" >        2       23       53       58       59 </v>
   <v type="int" >        2       53       58       59       65 </v>
   <v type="int" >        2       53       58       65       66 </v>
   <v type="int" >        2       23       24       54       59 </v>
   <v type="int" >        2       23       53       54       59 </v>
   <v type="int" >        2       53       54       59       65 </v>
   <v type="int" >        2       24       54       59       60 </v>
   <v type="int" >        2       54       59       60       64 </v>
   <v type="int" >        2       54       59       64       65 </v>
   <v type="int" >        2       24       25       55       60 </v>
   <v type="int" >        2       24       54       55       60 </v>
   <v type="int" >        2       54       55       60       64 </v>
   <v type="int" >        2       25       55       59       60 </v>
   <v type="int" >        2       55       59       60       63 </v>
   <v type="int" >        2       55       60       63       64 </v>
   <v type="int" >        2       25       26       56       59 </v>
   <v type="int" >        2       25       55       56       59 </v>
   <v type="int" >        2       55       56       59       63 </v>
   <v type="int" >        2       26       56       58       59 </v>
   <v type="int" >        2       56       58       59       62 </v>
   <v type="int" >        2       56       59       62       63 </v>
   <v type="int" >        2       21       26       51       58 </v>
   <v type="int" >        2       26       51       56       58 </v>
   <v type="int" >        2       51       56       58       62 </v>
   <v type="int" >        2       21       51       57       58 </v>
   <v type="int" >        2       51       57       58       61 </v>
   <v type="int" >        2       51       58       61       62 </v>
  </varray>
  <i name="volumeweight">      0.00115741 </i>
 </kpoints>
 <parameters>
  <separator name="general" >
   <i type="string" name="SYSTEM">graphite</i>
   <i type="logical" name="LCOMPAT"> F  </i>
  </separator>
  <separator name="electronic" >
   <i type="string" name="PREC">accura</i>
   <i name="ENMAX">    800.00000000</i>
   <i name="ENAUG">    644.87300000</i>
   <i name="EDIFF">      0.00000001</i>
   <i type="int" name="IALGO">    38</i>
   <i type="int" name="IWAVPR">    10</i>
   <i type="int" name="NBANDS">    84</i>
   <i name="NELECT">    128.00000000</i>
   <i type="int" name="TURBO">     0</i>
   <i type="int" name="IRESTART">     0</i>
   <i type="int" name="NREBOOT">     0</i>
   <i type="int" name="NMIN">     0</i>
   <i name="EREF">      0.00000000</i>
   <separator name="electronic smearing" >
    <i type="int" name="ISMEAR">    -5</i>
    <i name="SIGMA">      0.20000000</i>
    <i name="KSPACING">      0.50000000</i>
    <i type="logical" name="KGAMMA"> T  </i>
   </separator>
   <separator name="electronic projectors" >
    <i type="logical" name="LREAL"> F  </i>
    <v name="ROPT">      0.00000000</v>
    <i type="int" name="LMAXPAW">  -100</i>
    <i type="int" name="LMAXMIX">     2</i>
    <i type="logical" name="NLSPLINE"> F  </i>
   </separator>
   <separator name="electronic startup" >
    <i type="int" name="ISTART">     0</i>
    <i type="int" name="ICHARG">     2</i>
    <i type="int" name="INIWAV">     1</i>
   </separator>
   <separator name="electronic spin" >
    <i type="int" name="ISPIN">     1</i>
    <i type="logical" name="LNONCOLLINEAR"> F  </i>
    <v name="MAGMOM">      1.00000000      1.00000000      1.00000000      1.00000000      1.00000000      1.00000000      1.00000000      1.00000000      1.00000000      1.00000000      1.00000000      1.00000000      1.00000000      1.00000000      1.00000000      1.00000000      1.00000000      1.00000000      1.00000000      1.00000000
      1.00000000      1.00000000      1.00000000      1.00000000      1.00000000      1.00000000      1.00000000      1.00000000      1.00000000      1.00000000      1.00000000      1.00000000</v>
    <i name="NUPDOWN">     -1.00000000</i>
    <i type="logical" name="LSORBIT"> F  </i>
    <v name="SAXIS">      0.00000000      0.00000000      1.00000000</v>
    <i type="logical" name="LSPIRAL"> F  </i>
    <v name="QSPIRAL">      0.00000000      0.00000000      0.00000000</v>
    <i type="logical" name="LZEROZ"> F  </i>
   </separator>
   <separator name="electronic exchange-correlation" >
    <i type="logical" name="LASPH"> F  </i>
    <i type="logical" name="LMETAGGA"> F  </i>
   </separator>
   <separator name="electronic convergence" >
    <i type="int" name="NELM">   200</i>
    <i type="int" name="NELMDL">     0</i>
    <i type="int" name="NELMIN">     2</i>
    <i name="ENINI">    800.00000000</i>
    <separator name="electronic convergence detail" >
     <i type="logical" name="LDIAG"> T  </i>
     <i type="logical" name="LSUBROT"> F  </i>
     <i name="WEIMIN">      0.00000000</i>
     <i name="EBREAK">      0.00000000</i>
     <i name="DEPER">      0.30000000</i>
     <i type="int" name="NRMM">     4</i>
     <i name="TIME">      0.40000000</i>
    </separator>
   </separator>
   <separator name="electronic mixer" >
    <i name="AMIX">      0.40000000</i>
    <i name="BMIX">      1.00000000</i>
    <i name="AMIN">      0.10000000</i>
    <i name="AMIX_MAG">      1.60000000</i>
    <i name="BMIX_MAG">      1.00000000</i>
    <separator name="electronic mixer details" >
     <i type="int" name="IMIX">     4</i>
     <i type="int" name="MAXMIX">   -45</i>
     <i name="WC">    100.00000000</i>
     <i type="int" name="INIMIX">     1</i>
     <i type="int" name="MIXPRE">     1</i>
     <i type="int" name="MREMOVE">     5</i>
    </separator>
   </separator>
   <separator name="electronic dipolcorrection" >
    <i type="logical" name="LDIPOL"> F  </i>
    <i type="logical" name="LMONO"> F  </i>
    <i type="int" name="IDIPOL">     0</i>
    <i name="EPSILON">      1.00000000</i>
    <v name="DIPOL">   -100.00000000   -100.00000000   -100.00000000</v>
    <i name="EFIELD">      0.00000000</i>
   </separator>
  </separator>
  <separator name="grids" >
   <i type="int" name="NGX">    48</i>
   <i type="int" name="NGY">    48</i>
   <i type="int" name="NGZ">   126</i>
   <i type="int" name="NGXF">    96</i>
   <i type="int" name="NGYF">    96</i>
   <i type="int" name="NGZF">   252</i>
   <i type="logical" name="ADDGRID"> F  </i>
  </separator>
  <separator name="ionic" >
   <i type="int" name="NSW">     0</i>
   <i type="int" name="IBRION">    -1</i>
   <i type="int" name="ISIF">     2</i>
   <i name="PSTRESS">      0.00000000</i>
   <i name="EDIFFG">      0.00100000</i>
   <i type="int" name="NFREE">     0</i>
   <i name="POTIM">      0.50000000</i>
   <i name="SMASS">     -3.00000000</i>
   <i name="SCALEE">      1.00000000</i>
  </separator>
  <separator name="ionic md" >
   <i name="TEBEG">      0.00010000</i>
   <i name="TEEND">      0.00010000</i>
   <i type="int" name="NBLOCK">     1</i>
   <i type="int" name="KBLOCK">     1</i>
   <i type="int" name="NPACO">   256</i>
   <i name="APACO">     16.00000000</i>
  </separator>
  <separator name="symmetry" >
   <i type="int" name="ISYM">     2</i>
   <i name="SYMPREC">      0.00001000</i>
  </separator>
  <separator name="dos" >
   <i type="logical" name="LORBIT"> F  </i>
   <v name="RWIGS">     -1.00000000</v>
   <i type="int" name="NEDOS">   301</i>
   <i name="EMIN">     10.00000000</i>
   <i name="EMAX">    -10.00000000</i>
   <i name="EFERMI">      0.00000000</i>
  </separator>
  <separator name="writing" >
   <i type="int" name="NWRITE">     2</i>
   <i type="logical" name="LWAVE"> F  </i>
   <i type="logical" name="LCHARG"> F  </i>
   <i type="logical" name="LPARD"> F  </i>
   <i type="logical" name="LVTOT"> F  </i>
   <i type="logical" name="LVHAR"> F  </i>
   <i type="logical" name="LELF"> F  </i>
   <i type="logical" name="LOPTICS"> F  </i>
   <v name="STM">      0.00000000      0.00000000      0.00000000      0.00000000      0.00000000      0.00000000      0.00000000</v>
  </separator>
  <separator name="performance" >
   <i type="int" name="NPAR">     6</i>
   <i type="int" name="NSIM">     4</i>
   <i type="int" name="NBLK">    -1</i>
   <i type="logical" name="LPLANE"> T  </i>
   <i type="logical" name="LSCALAPACK"> T  </i>
   <i type="logical" name="LSCAAWARE"> F  </i>
   <i type="logical" name="LSCALU"> F  </i>
   <i type="logical" name="LASYNC"> F  </i>
   <i type="logical" name="LORBITALREAL"> F  </i>
  </separator>
  <separator name="miscellaneous" >
   <i type="int" name="IDIOT">     3</i>
   <i type="logical" name="LMUSIC"> F  </i>
   <v name="POMASS">     12.01100000</v>
   <v name="DARWINR">      0.00000000</v>
   <v name="DARWINV">      1.00000000</v>
   <i type="logical" name="LCORR"> T  </i>
  </separator>
  <i type="logical" name="GGA_COMPAT"> T  </i>
  <i type="logical" name="LBERRY"> F  </i>
  <i type="int" name="ICORELEVEL">     0</i>
  <i type="logical" name="LDAU"> F  </i>
  <i type="int" name="I_CONSTRAINED_M">     0</i>
  <separator name="electronic exchange-correlation" >
   <i type="string" name="GGA">PE</i>
   <i type="int" name="VOSKOWN">     0</i>
   <i type="logical" name="LHFCALC"> F  </i>
   <i type="string" name="PRECFOCK"></i>
   <i type="logical" name="LSYMGRAD"> F  </i>
   <i type="logical" name="LHFONE"> F  </i>
   <i type="logical" name="LRHFCALC"> F  </i>
   <i type="logical" name="LTHOMAS"> F  </i>
   <i type="logical" name="LMODELHF"> F  </i>
   <i name="ENCUT4O">     -1.00000000</i>
   <i type="int" name="EXXOEP">     0</i>
   <i type="int" name="FOURORBIT">     0</i>
   <i name="AEXX">      0.00000000</i>
   <i name="HFALPHA">      0.00000000</i>
   <i name="MCALPHA">      0.00000000</i>
   <i name="ALDAX">      1.00000000</i>
   <i name="AGGAX">      1.00000000</i>
   <i name="ALDAC">      1.00000000</i>
   <i name="AGGAC">      1.00000000</i>
   <i type="int" name="NKREDX">     1</i>
   <i type="int" name="NKREDY">     1</i>
   <i type="int" name="NKREDZ">     1</i>
   <i type="logical" name="SHIFTRED"> F  </i>
   <i type="logical" name="ODDONLY"> F  </i>
   <i type="logical" name="EVENONLY"> F  </i>
   <i type="int" name="LMAXFOCK">     0</i>
   <i type="int" name="NMAXFOCKAE">     0</i>
   <i type="logical" name="LFOCKAEDFT"> F  </i>
   <i name="HFSCREEN">      0.00000000</i>
   <i name="HFSCREENC">      0.00000000</i>
   <i type="int" name="NBANDSGWLOW">     0</i>
  </separator>
  <separator name="vdW DFT" >
   <i type="logical" name="LUSE_VDW"> F  </i>
   <i name="Zab_VDW">     -0.84910000</i>
   <i name="PARAM1">      0.12340000</i>
   <i name="PARAM2">      1.00000000</i>
   <i name="PARAM3">      0.00000000</i>
  </separator>
  <separator name="model GW" >
   <i type="int" name="MODEL_GW">     0</i>
   <i name="MODEL_EPS0">      5.18597232</i>
   <i name="MODEL_ALPHA">      1.00000000</i>
  </separator>
  <separator name="linear response parameters" >
   <i type="logical" name="LEPSILON"> F  </i>
   <i type="logical" name="LRPA"> F  </i>
   <i type="logical" name="LNABLA"> F  </i>
   <i type="logical" name="LVEL"> F  </i>
   <i type="int" name="KINTER">     0</i>
   <i name="CSHIFT">      0.10000000</i>
   <i name="OMEGAMAX">     -1.00000000</i>
   <i name="DEG_THRESHOLD">      0.00200000</i>
  </separator>
  <separator name="orbital magnetization" >
   <i type="logical" name="NUCIND"> F  </i>
   <v name="MAGPOS">      0.00000000      0.00000000      0.00000000</v>
   <i type="logical" name="LNICSALL"> T  </i>
   <i type="logical" name="ORBITALMAG"> F  </i>
   <i type="logical" name="LMAGBLOCH"> F  </i>
   <i type="logical" name="LCHIMAG"> F  </i>
   <i type="logical" name="LGAUGE"> T  </i>
   <i type="int" name="MAGATOM">     0</i>
   <v name="MAGDIPOL">      0.00000000      0.00000000      0.00000000</v>
   <v name="AVECCONST">      0.00000000      0.00000000      0.00000000</v>
  </separator>
  <separator name="response functions" >
   <i type="logical" name="LADDER"> F  </i>
   <i type="logical" name="LFXC"> F  </i>
   <i type="logical" name="LHARTREE"> T  </i>
   <i type="int" name="IBSE">     0</i>
   <i type="logical" name="LTCTE"> F  </i>
   <i type="logical" name="LTETE"> F  </i>
   <i type="logical" name="LTRIPLET"> F  </i>
   <i type="logical" name="LFXCEPS"> F  </i>
   <i type="logical" name="LFXHEG"> F  </i>
   <i type="logical" name="L2ORDER"> F  </i>
   <i type="logical" name="LUSEW"> F  </i>
   <i name="ENCUTGW">     -2.00000000</i>
   <i name="ENCUTGWSOFT">     -2.00000000</i>
   <i name="ENCUTLF">     -1.00000000</i>
   <i type="int" name="LMAXMP2">    -1</i>
   <i name="SCISSOR">      0.00000000</i>
   <i type="int" name="NOMEGA">     0</i>
   <i type="int" name="NOMEGAR">     0</i>
   <i type="int" name="NBANDSGW">    -1</i>
   <i type="int" name="NBANDSO">    -1</i>
   <i type="int" name="NBANDSV">    -1</i>
   <i type="int" name="NELM">   200</i>
   <i type="int" name="DIM">     3</i>
   <i type="int" name="ANTIRES">     0</i>
   <i name="OMEGAMAX">    -30.00000000</i>
   <i name="OMEGAMIN">    -30.00000000</i>
   <i name="OMEGATL">   -200.00000000</i>
   <i type="int" name="OMEGAGRID">     0</i>
   <i name="CSHIFT">     -0.10000000</i>
   <i type="logical" name="SELFENERGY"> F  </i>
   <i type="logical" name="LSPECTRAL"> F  </i>
   <i type="logical" name="ODDONLYGW"> F  </i>
   <i type="logical" name="EVENONLYGW"> F  </i>
   <i type="int" name="NKREDLFX">     1</i>
   <i type="int" name="NKREDLFY">     1</i>
   <i type="int" name="NKREDLFZ">     1</i>
   <i type="int" name="MAXMEM">  1800</i>
   <i type="int" name="TELESCOPE">     0</i>
   <i type="int" name="TAUPAR">     1</i>
  </separator>
  <separator name="External order field" >
   <i name="OFIELD_KAPPA">      0.00000000</i>
   <v name="OFIELD_K">      0.00000000      0.00000000      0.00000000</v>
   <i name="OFIELD_Q6_NEAR">      0.00000000</i>
   <i name="OFIELD_Q6_FAR">      0.00000000</i>
   <i name="OFIELD_A">      0.00000000</i>
  </separator>
 </parameters>
 <atominfo>
  <atoms>      32 </atoms>
  <types>       1 </types>
  <array name="atoms" >
   <dimension dim="1">ion</dimension>
   <field type="string">element</field>
   <field type="int">atomtype</field>
   <set>
    <rc><c>C </c><c>   1</c></rc>
    <rc><c>C </c><c>   1</c></rc>
    <rc><c>C </c><c>   1</c></rc>
    <rc><c>C </c><c>   1</c></rc>
    <rc><c>C </c><c>   1</c></rc>
    <rc><c>C </c><c>   1</c></rc>
    <rc><c>C </c><c>   1</c></rc>
    <rc><c>C </c><c>   1</c></rc>
    <rc><c>C </c><c>   1</c></rc>
    <rc><c>C </c><c>   1</c></rc>
    <rc><c>C </c><c>   1</c></rc>
    <rc><c>C </c><c>   1</c></rc>
    <rc><c>C </c><c>   1</c></rc>
    <rc><c>C </c><c>   1</c></rc>
    <rc><c>C </c><c>   1</c></rc>
    <rc><c>C </c><c>   1</c></rc>
    <rc><c>C </c><c>   1</c></rc>
    <rc><c>C </c><c>   1</c></rc>
    <rc><c>C </c><c>   1</c></rc>
    <rc><c>C </c><c>   1</c></rc>
    <rc><c>C </c><c>   1</c></rc>
    <rc><c>C </c><c>   1</c></rc>
    <rc><c>C </c><c>   1</c></rc>
    <rc><c>C </c><c>   1</c></rc>
    <rc><c>C </c><c>   1</c></rc>
    <rc><c>C </c><c>   1</c></rc>
    <rc><c>C </c><c>   1</c></rc>
    <rc><c>C </c><c>   1</c></rc>
    <rc><c>C </c><c>   1</c></rc>
    <rc><c>C </c><c>   1</c></rc>
    <rc><c>C </c><c>   1</c></rc>
    <rc><c>C </c><c>   1</c></rc>
   </set>
  </array>
  <array name="atomtypes" >
   <dimension dim="1">type</dimension>
   <field type="int">atomspertype</field>
   <field type="string">element</field>
   <field>mass</field>
   <field>valence</field>
   <field type="string">pseudopotential</field>
   <set>
    <rc><c>  32</c><c>C </c><c>     12.01100000</c><c>      4.00000000</c><c> PAW_PBE C 08Apr2002                    </c></rc>
   </set>
  </array>
 </atominfo>
 <structure name="initialpos" >
  <crystal>
   <varray name="basis" >
    <v>       4.93287450      -0.00191929       0.00000000 </v>
    <v>      -2.46809940       4.27103499       0.00000000 </v>
    <v>       0.00000000       0.00000000      13.13086644 </v>
   </varray>
   <i name="volume">    276.58519049 </i>
   <varray name="rec_basis" >
    <v>       0.20276715       0.11717288       0.00000000 </v>
    <v>       0.00009112       0.23418794       0.00000000 </v>
    <v>       0.00000000       0.00000000       0.07615644 </v>
   </varray>
  </crystal>
  <varray name="positions" >
   <v>       0.49967330       0.00032672       0.12500000 </v>
   <v>       0.99967330       0.00032672       0.12500000 </v>
   <v>       0.49967330       0.50032672       0.12500000 </v>
   <v>       0.99967330       0.50032672       0.12500000 </v>
   <v>       0.49967330       0.00032672       0.62500000 </v>
   <v>       0.99967330       0.00032672       0.62500000 </v>
   <v>       0.49967330       0.50032672       0.62500000 </v>
   <v>       0.99967330       0.50032672       0.62500000 </v>
   <v>       0.00032672       0.49967330       0.37500000 </v>
   <v>       0.50032672       0.49967330       0.37500000 </v>
   <v>       0.00032672       0.99967330       0.37500000 </v>
   <v>       0.50032672       0.99967330       0.37500000 </v>
   <v>       0.00032672       0.49967330       0.87500000 </v>
   <v>       0.50032672       0.49967330       0.87500000 </v>
   <v>       0.00032672       0.99967330       0.87500000 </v>
   <v>       0.50032672       0.99967330       0.87500000 </v>
   <v>       0.16700538       0.33370753       0.12571292 </v>
   <v>       0.66629246       0.33370753       0.12500000 </v>
   <v>       0.16629246       0.83370753       0.12500000 </v>
   <v>       0.66629246       0.83370753       0.12500000 </v>
   <v>       0.16629246       0.33370753       0.62500000 </v>
   <v>       0.66629246       0.33370753       0.62500000 </v>
   <v>       0.16629246       0.83370753       0.62500000 </v>
   <v>       0.66629246       0.83370753       0.62500000 </v>
   <v>       0.33370753       0.16629246       0.37500000 </v>
   <v>       0.83370753       0.16629246       0.37500000 </v>
   <v>       0.33370753       0.66629246       0.37500000 </v>
   <v>       0.83370753       0.66629246       0.37500000 </v>
   <v>       0.33370753       0.16629246       0.87500000 </v>
   <v>       0.83370753       0.16629246       0.87500000 </v>
   <v>       0.33370753       0.66629246       0.87500000 </v>
   <v>       0.83370753       0.66629246       0.87500000 </v>
  </varray>
 </structure>
 <calculation>
  <scstep>
   <time name="dav">  361.26  722.90</time>
   <time name="total">  362.59  725.57</time>
   <energy>
    <i name="alphaZ">    301.66361325 </i>
    <i name="ewald">  -3791.66605109 </i>
    <i name="hartreedc">  -1120.42033428 </i>
    <i name="XCdc">    443.42010293 </i>
    <i name="pawpsdc">   1210.60617908 </i>
    <i name="pawaedc">  -1247.42152856 </i>
    <i name="eentropy">      0.00000000 </i>
    <i name="bandstr">    192.68136661 </i>
    <i name="atom">   4708.94155045 </i>
    <i name="e_fr_energy">    697.80489839 </i>
    <i name="e_wo_entrp">    697.80489839 </i>
    <i name="e_0_energy">    697.80489839 </i>
   </energy>
  </scstep>
  <scstep>
   <time name="dav">  406.07  811.18</time>
   <time name="total">  406.17  811.39</time>
   <energy>
    <i name="e_fr_energy">   -255.35024587 </i>
    <i name="e_wo_entrp">   -255.35024587 </i>
    <i name="e_0_energy">   -255.35024587 </i>
   </energy>
  </scstep>
  <scstep>
   <time name="dav">  391.65  783.72</time>
   <time name="total">  391.72  783.86</time>
   <energy>
    <i name="e_fr_energy">   -312.32341239 </i>
    <i name="e_wo_entrp">   -312.32341239 </i>
    <i name="e_0_energy">   -312.32341239 </i>
   </energy>
  </scstep>
  <scstep>
   <time name="dav">  400.58  801.56</time>
   <time name="total">  400.64  801.68</time>
   <energy>
    <i name="e_fr_energy">   -313.44132846 </i>
    <i name="e_wo_entrp">   -313.44132846 </i>
    <i name="e_0_energy">   -313.44132846 </i>
   </energy>
  </scstep>
  <scstep>
   <time name="dav">  408.11  816.68</time>
   <time name="total">  414.96  830.38</time>
   <energy>
    <i name="e_fr_energy">   -313.47377439 </i>
    <i name="e_wo_entrp">   -313.47377439 </i>
    <i name="e_0_energy">   -313.47377439 </i>
   </energy>
  </scstep>
  <scstep>
   <time name="dav">  379.50  759.37</time>
   <time name="total">  388.11  776.62</time>
   <energy>
    <i name="e_fr_energy">   -299.14797784 </i>
    <i name="e_wo_entrp">   -299.14797784 </i>
    <i name="e_0_energy">   -299.14797784 </i>
   </energy>
  </scstep>
  <scstep>
   <time name="dav">  380.12  760.62</time>
   <time name="total">  388.54  777.49</time>
   <energy>
    <i name="e_fr_energy">   -294.63044556 </i>
    <i name="e_wo_entrp">   -294.63044556 </i>
    <i name="e_0_energy">   -294.63044556 </i>
   </energy>
  </scstep>
  <scstep>
   <time name="dav">  384.73  769.86</time>
   <time name="total">  392.50  785.40</time>
   <energy>
    <i name="e_fr_energy">   -294.69411125 </i>
    <i name="e_wo_entrp">   -294.69411125 </i>
    <i name="e_0_energy">   -294.69411125 </i>
   </energy>
  </scstep>
  <scstep>
   <time name="dav">  379.78  759.97</time>
   <time name="total">  387.15  774.70</time>
   <energy>
    <i name="e_fr_energy">   -294.69009487 </i>
    <i name="e_wo_entrp">   -294.69009487 </i>
    <i name="e_0_energy">   -294.69009487 </i>
   </energy>
  </scstep>
  <scstep>
   <time name="dav">  456.18  912.83</time>
   <time name="total">  463.85  928.17</time>
   <energy>
    <i name="e_fr_energy">   -294.68746180 </i>
    <i name="e_wo_entrp">   -294.68746180 </i>
    <i name="e_0_energy">   -294.68746180 </i>
   </energy>
  </scstep>
  <scstep>
   <time name="dav">  377.13  754.65</time>
   <time name="total">  384.98  770.35</time>
   <energy>
    <i name="e_fr_energy">   -294.68729765 </i>
    <i name="e_wo_entrp">   -294.68729765 </i>
    <i name="e_0_energy">   -294.68729765 </i>
   </energy>
  </scstep>
  <scstep>
   <time name="dav">  395.07  790.52</time>
   <time name="total">  402.89  806.18</time>
   <energy>
    <i name="e_fr_energy">   -294.68772375 </i>
    <i name="e_wo_entrp">   -294.68772375 </i>
    <i name="e_0_energy">   -294.68772375 </i>
   </energy>
  </scstep>
  <scstep>
   <time name="dav">  294.33  586.31</time>
   <time name="total">  301.93  601.54</time>
   <energy>
    <i name="e_fr_energy">   -294.68818318 </i>
    <i name="e_wo_entrp">   -294.68818318 </i>
    <i name="e_0_energy">   -294.68818318 </i>
   </energy>
  </scstep>
  <scstep>
   <time name="dav">  252.60  505.47</time>
   <time name="total">  260.32  520.91</time>
   <energy>
    <i name="e_fr_energy">   -294.68849479 </i>
    <i name="e_wo_entrp">   -294.68849479 </i>
    <i name="e_0_energy">   -294.68849479 </i>
   </energy>
  </scstep>
  <scstep>
   <time name="dav">  237.08  474.39</time>
   <time name="total">  244.55  489.34</time>
   <energy>
    <i name="e_fr_energy">   -294.68838727 </i>
    <i name="e_wo_entrp">   -294.68838727 </i>
    <i name="e_0_energy">   -294.68838727 </i>
   </energy>
  </scstep>
  <scstep>
   <time name="dav">  319.47  639.28</time>
   <time name="total">  327.21  654.77</time>
   <energy>
    <i name="e_fr_energy">   -294.68794450 </i>
    <i name="e_wo_entrp">   -294.68794450 </i>
    <i name="e_0_energy">   -294.68794450 </i>
   </energy>
  </scstep>
  <scstep>
   <time name="dav">  303.15  606.58</time>
   <time name="total">  310.64  621.59</time>
   <energy>
    <i name="e_fr_energy">   -294.68785295 </i>
    <i name="e_wo_entrp">   -294.68785295 </i>
    <i name="e_0_energy">   -294.68785295 </i>
   </energy>
  </scstep>
  <scstep>
   <time name="dav">  239.91  480.05</time>
   <time name="total">  247.06  494.38</time>
   <energy>
    <i name="e_fr_energy">   -294.68778843 </i>
    <i name="e_wo_entrp">   -294.68778843 </i>
    <i name="e_0_energy">   -294.68778843 </i>
   </energy>
  </scstep>
  <scstep>
   <time name="dav">  245.71  491.68</time>
   <time name="total">  253.13  506.55</time>
   <energy>
    <i name="e_fr_energy">   -294.68779193 </i>
    <i name="e_wo_entrp">   -294.68779193 </i>
    <i name="e_0_energy">   -294.68779193 </i>
   </energy>
  </scstep>
  <scstep>
   <time name="dav">  259.01  518.29</time>
   <time name="total">  266.83  533.91</time>
   <energy>
    <i name="e_fr_energy">   -294.68779441 </i>
    <i name="e_wo_entrp">   -294.68779441 </i>
    <i name="e_0_energy">   -294.68779441 </i>
   </energy>
  </scstep>
  <scstep>
   <time name="dav">  300.79  601.90</time>
   <time name="total">  308.87  618.08</time>
   <energy>
    <i name="e_fr_energy">   -294.68780066 </i>
    <i name="e_wo_entrp">   -294.68780066 </i>
    <i name="e_0_energy">   -294.68780066 </i>
   </energy>
  </scstep>
  <scstep>
   <time name="dav">  247.54  495.39</time>
   <time name="total">  255.20  510.71</time>
   <energy>
    <i name="e_fr_energy">   -294.68780134 </i>
    <i name="e_wo_entrp">   -294.68780134 </i>
    <i name="e_0_energy">   -294.68780134 </i>
   </energy>
  </scstep>
  <scstep>
   <time name="dav">  327.92  655.47</time>
   <time name="total">  335.68  670.98</time>
   <energy>
    <i name="e_fr_energy">   -294.68779152 </i>
    <i name="e_wo_entrp">   -294.68779152 </i>
    <i name="e_0_energy">   -294.68779152 </i>
   </energy>
  </scstep>
  <scstep>
   <time name="dav">  245.88  492.07</time>
   <time name="total">  253.64  507.62</time>
   <energy>
    <i name="e_fr_energy">   -294.68778821 </i>
    <i name="e_wo_entrp">   -294.68778821 </i>
    <i name="e_0_energy">   -294.68778821 </i>
   </energy>
  </scstep>
  <scstep>
   <time name="dav">  271.50  543.18</time>
   <time name="total">  279.03  558.24</time>
   <energy>
    <i name="e_fr_energy">   -294.68778736 </i>
    <i name="e_wo_entrp">   -294.68778736 </i>
    <i name="e_0_energy">   -294.68778736 </i>
   </energy>
  </scstep>
  <scstep>
   <time name="dav">  255.58  511.43</time>
   <time name="total">  263.36  526.98</time>
   <energy>
    <i name="e_fr_energy">   -294.68778708 </i>
    <i name="e_wo_entrp">   -294.68778708 </i>
    <i name="e_0_energy">   -294.68778708 </i>
   </energy>
  </scstep>
  <scstep>
   <time name="dav">  207.89  416.01</time>
   <time name="total">  215.71  431.67</time>
   <energy>
    <i name="e_fr_energy">   -294.68778686 </i>
    <i name="e_wo_entrp">   -294.68778686 </i>
    <i name="e_0_energy">   -294.68778686 </i>
   </energy>
  </scstep>
  <scstep>
   <time name="dav">  218.33  436.87</time>
   <time name="total">  226.02  452.26</time>
   <energy>
    <i name="e_fr_energy">   -294.68778684 </i>
    <i name="e_wo_entrp">   -294.68778684 </i>
    <i name="e_0_energy">   -294.68778684 </i>
   </energy>
  </scstep>
  <scstep>
   <time name="dav">  219.91  440.13</time>
   <time name="total">  227.83  456.01</time>
   <energy>
    <i name="e_fr_energy">   -294.68778703 </i>
    <i name="e_wo_entrp">   -294.68778703 </i>
    <i name="e_0_energy">   -294.68778703 </i>
   </energy>
  </scstep>
  <scstep>
   <time name="dav">  386.20  772.67</time>
   <time name="total">  394.07  788.43</time>
   <energy>
    <i name="e_fr_energy">   -294.68778723 </i>
    <i name="e_wo_entrp">   -294.68778723 </i>
    <i name="e_0_energy">   -294.68778723 </i>
   </energy>
  </scstep>
  <scstep>
   <time name="dav">  422.19  844.79</time>
   <time name="total">  429.96  860.34</time>
   <energy>
    <i name="e_fr_energy">   -294.68778661 </i>
    <i name="e_wo_entrp">   -294.68778661 </i>
    <i name="e_0_energy">   -294.68778661 </i>
   </energy>
  </scstep>
  <scstep>
   <time name="dav">  363.79  727.96</time>
   <time name="total">  372.21  744.88</time>
   <energy>
    <i name="e_fr_energy">   -294.68778658 </i>
    <i name="e_wo_entrp">   -294.68778658 </i>
    <i name="e_0_energy">   -294.68778658 </i>
   </energy>
  </scstep>
  <scstep>
   <time name="dav">  343.62  687.57</time>
   <time name="total">  352.03  704.45</time>
   <energy>
    <i name="e_fr_energy">   -294.68778656 </i>
    <i name="e_wo_entrp">   -294.68778656 </i>
    <i name="e_0_energy">   -294.68778656 </i>
   </energy>
  </scstep>
  <scstep>
   <time name="dav">  293.30  586.88</time>
   <time name="total">  301.45  603.19</time>
   <energy>
    <i name="e_fr_energy">   -294.68778659 </i>
    <i name="e_wo_entrp">   -294.68778659 </i>
    <i name="e_0_energy">   -294.68778659 </i>
   </energy>
  </scstep>
  <scstep>
   <time name="dav">  285.50  571.29</time>
   <time name="total">  293.63  587.56</time>
   <energy>
    <i name="e_fr_energy">   -294.68778659 </i>
    <i name="e_wo_entrp">   -294.68778659 </i>
    <i name="e_0_energy">   -294.68778659 </i>
   </energy>
  </scstep>
  <scstep>
   <time name="dav">  276.82  553.92</time>
   <time name="total">  285.21  570.71</time>
   <energy>
    <i name="e_fr_energy">   -294.68778656 </i>
    <i name="e_wo_entrp">   -294.68778656 </i>
    <i name="e_0_energy">   -294.68778656 </i>
   </energy>
  </scstep>
  <scstep>
   <time name="dav">  283.54  567.35</time>
   <time name="total">  284.89  570.05</time>
   <energy>
    <i name="alphaZ">    301.66361325 </i>
    <i name="ewald">  -3791.66605109 </i>
    <i name="hartreedc">  -1391.95252953 </i>
    <i name="XCdc">    461.33628196 </i>
    <i name="pawpsdc">   2223.19155591 </i>
    <i name="pawaedc">  -2264.41195553 </i>
    <i name="eentropy">      0.00000000 </i>
    <i name="bandstr">   -541.79025198 </i>
    <i name="atom">   4708.94155045 </i>
    <i name="e_fr_energy">   -294.68778656 </i>
    <i name="e_wo_entrp">   -294.68778656 </i>
    <i name="e_0_energy">   -294.68778656 </i>
   </energy>
  </scstep>
  <structure>
   <crystal>
    <varray name="basis" >
     <v>       4.93287450      -0.00191929       0.00000000 </v>
     <v>      -2.46809940       4.27103499       0.00000000 </v>
     <v>       0.00000000       0.00000000      13.13086644 </v>
    </varray>
    <i name="volume">    276.58519049 </i>
    <varray name="rec_basis" >
     <v>       0.20276715       0.11717288       0.00000000 </v>
     <v>       0.00009112       0.23418794       0.00000000 </v>
     <v>       0.00000000       0.00000000       0.07615644 </v>
    </varray>
   </crystal>
   <varray name="positions" >
    <v>       0.49967330       0.00032672       0.12500000 </v>
    <v>       0.99967330       0.00032672       0.12500000 </v>
    <v>       0.49967330       0.50032672       0.12500000 </v>
    <v>       0.99967330       0.50032672       0.12500000 </v>
    <v>       0.49967330       0.00032672       0.62500000 </v>
    <v>       0.99967330       0.00032672       0.62500000 </v>
    <v>       0.49967330       0.50032672       0.62500000 </v>
    <v>       0.99967330       0.50032672       0.62500000 </v>
    <v>       0.00032672       0.49967330       0.37500000 </v>
    <v>       0.50032672       0.49967330       0.37500000 </v>
    <v>       0.00032672       0.99967330       0.37500000 </v>
    <v>       0.50032672       0.99967330       0.37500000 </v>
    <v>       0.00032672       0.49967330       0.87500000 </v>
    <v>       0.50032672       0.49967330       0.87500000 </v>
    <v>       0.00032672       0.99967330       0.87500000 </v>
    <v>       0.50032672       0.99967330       0.87500000 </v>
    <v>       0.16700538       0.33370753       0.12571292 </v>
    <v>       0.66629246       0.33370753       0.12500000 </v>
    <v>       0.16629246       0.83370753       0.12500000 </v>
    <v>       0.66629246       0.83370753       0.12500000 </v>
    <v>       0.16629246       0.33370753       0.62500000 </v>
    <v>       0.66629246       0.33370753       0.62500000 </v>
    <v>       0.16629246       0.83370753       0.62500000 </v>
    <v>       0.66629246       0.83370753       0.62500000 </v>
    <v>       0.33370753       0.16629246       0.37500000 </v>
    <v>       0.83370753       0.16629246       0.37500000 </v>
    <v>       0.33370753       0.66629246       0.37500000 </v>
    <v>       0.83370753       0.66629246       0.37500000 </v>
    <v>       0.33370753       0.16629246       0.87500000 </v>
    <v>       0.83370753       0.16629246       0.87500000 </v>
    <v>       0.33370753       0.66629246       0.87500000 </v>
    <v>       0.83370753       0.66629246       0.87500000 </v>
   </varray>
  </structure>
  <varray name="forces" >
   <v>      -0.01604425       0.00723808       0.00743690 </v>
   <v>       0.01186672       0.00775006       0.04192934 </v>
   <v>       0.05855082       0.03415072       0.04149530 </v>
   <v>       0.05796587      -0.01932546       0.04227755 </v>
   <v>      -0.01202634       0.00745466      -0.00514044 </v>
   <v>      -0.01202528       0.00745556      -0.00511677 </v>
   <v>      -0.01202512       0.00745530      -0.00512020 </v>
   <v>      -0.01202409       0.00745388      -0.00511015 </v>
   <v>       0.01275177      -0.00830842       0.00562901 </v>
   <v>       0.01293802      -0.00822392       0.00586422 </v>
   <v>       0.01277796      -0.00836277       0.00574231 </v>
   <v>       0.01292873      -0.00829294       0.00485200 </v>
   <v>       0.01268999      -0.00666848       0.00587203 </v>
   <v>       0.01252321      -0.00648275       0.00557827 </v>
   <v>       0.01245194      -0.00649527       0.00571138 </v>
   <v>       0.01269612      -0.00655939       0.00483846 </v>
   <v>      -0.20390751      -0.00675925      -0.13564467 </v>
   <v>       0.05221243      -0.00576026      -0.00664351 </v>
   <v>       0.01543369      -0.02701416      -0.00670888 </v>
   <v>       0.01554170       0.01551398      -0.00667991 </v>
   <v>       0.00956096      -0.00605890       0.00090216 </v>
   <v>       0.00955249      -0.00605848       0.00067383 </v>
   <v>       0.00955634      -0.00605691       0.00067388 </v>
   <v>       0.00955634      -0.00606186       0.00067550 </v>
   <v>      -0.01112131       0.00702193      -0.00041772 </v>
   <v>      -0.01075181       0.00699269      -0.00034159 </v>
   <v>      -0.01090641       0.00670099      -0.00041376 </v>
   <v>      -0.01095908       0.00688823      -0.00080369 </v>
   <v>      -0.00974282       0.00501054      -0.00028339 </v>
   <v>      -0.01011756       0.00497343      -0.00048493 </v>
   <v>      -0.00989309       0.00531101      -0.00042266 </v>
   <v>      -0.01001044       0.00511815      -0.00081988 </v>
  </varray>
  <varray name="stress" >
   <v>      -4.00783389       2.92234264       0.10558817 </v>
   <v>       2.92234266      -0.78427433      -0.04939752 </v>
   <v>       0.10558818      -0.04939755       7.51086406 </v>
  </varray>
  <energy>
   <i name="e_fr_energy">   -299.82123208 </i>
   <i name="e_wo_entrp">   -299.82123208 </i>
   <i name="e_0_energy">      0.00000000 </i>
  </energy>
  <time name="totalsc">12181.4524370.98</time>
  <eigenvalues>
   <array>
    <dimension dim="1">band</dimension>
    <dimension dim="2">kpoint</dimension>
    <dimension dim="3">spin</dimension>
    <field>eigene</field>
    <field>occ</field>
    <set>
     <set comment="spin 1">
      <set comment="kpoint 1">
       <r>  -14.7857    1.0000 </r>
       <r>  -14.6157    1.0000 </r>
       <r>  -14.6150    1.0000 </r>
       <r>  -14.4313    1.0000 </r>
       <r>   -9.4505    1.0000 </r>
       <r>   -9.4404    1.0000 </r>
       <r>   -9.4373    1.0000 </r>
       <r>   -9.3781    1.0000 </r>
       <r>   -9.3764    1.0000 </r>
       <r>   -9.3662    1.0000 </r>
       <r>   -9.3648    1.0000 </r>
       <r>   -9.3647    1.0000 </r>
       <r>   -9.3606    1.0000 </r>
       <r>   -9.3188    1.0000 </r>
       <r>   -9.3056    1.0000 </r>
       <r>   -9.3031    1.0000 </r>
       <r>   -8.3635    1.0000 </r>
       <r>   -8.3620    1.0000 </r>
       <r>   -8.3611    1.0000 </r>
       <r>   -8.3284    1.0000 </r>
       <r>   -8.3275    1.0000 </r>
       <r>   -8.3253    1.0000 </r>
       <r>   -8.3249    1.0000 </r>
       <r>   -8.3249    1.0000 </r>
       <r>   -8.3223    1.0000 </r>
       <r>   -8.2634    1.0000 </r>
       <r>   -8.2625    1.0000 </r>
       <r>   -8.2599    1.0000 </r>
       <r>   -3.7273    1.0000 </r>
       <r>   -2.7446    1.0000 </r>
       <r>   -2.7427    1.0000 </r>
       <r>   -1.5381    1.0000 </r>
       <r>   -1.5361    1.0000 </r>
       <r>   -1.5357    1.0000 </r>
       <r>   -1.5201    1.0000 </r>
       <r>   -1.5046    1.0000 </r>
       <r>   -1.5037    1.0000 </r>
       <r>   -1.5037    1.0000 </r>
       <r>   -1.4996    1.0000 </r>
       <r>   -1.4869    1.0000 </r>
       <r>   -1.4850    1.0000 </r>
       <r>   -1.4697    1.0000 </r>
       <r>   -1.4669    1.0000 </r>
       <r>   -1.4516    1.0000 </r>
       <r>    1.8630    1.0000 </r>
       <r>    1.8712    1.0000 </r>
       <r>    1.8733    1.0000 </r>
       <r>    1.8788    1.0000 </r>
       <r>    1.8844    1.0000 </r>
       <r>    1.8895    1.0000 </r>
       <r>    1.8919    1.0000 </r>
       <r>    1.8996    1.0000 </r>
       <r>    2.0463    1.0000 </r>
       <r>    2.0489    1.0000 </r>
       <r>    2.0508    1.0000 </r>
       <r>    2.5074    1.0000 </r>
       <r>    2.5100    1.0000 </r>
       <r>    2.5172    1.0000 </r>
       <r>    2.5176    1.0000 </r>
       <r>    2.5177    1.0000 </r>
       <r>    2.5217    1.0000 </r>
       <r>    2.8025    1.0000 </r>
       <r>    2.8218    1.0000 </r>
       <r>    2.8234    1.0000 </r>
       <r>    6.3935    0.0000 </r>
       <r>    6.3956    0.0000 </r>
       <r>    6.4029    0.0000 </r>
       <r>    6.5168    0.0000 </r>
       <r>    6.5200    0.0000 </r>
       <r>    6.5222    0.0000 </r>
       <r>    6.5244    0.0000 </r>
       <r>    6.5249    0.0000 </r>
       <r>    6.5287    0.0000 </r>
       <r>    7.1142    0.0000 </r>
       <r>    7.1209    0.0000 </r>
       <r>    7.1243    0.0000 </r>
       <r>    9.3664    0.0000 </r>
       <r>   12.0353    0.0000 </r>
       <r>   12.0393    0.0000 </r>
       <r>   12.0709    0.0000 </r>
       <r>   12.1774    0.0000 </r>
       <r>   12.1808    0.0000 </r>
       <r>   12.2604    0.0000 </r>
       <r>   12.2633    0.0000 </r>
      </set>
      <set comment="kpoint 2">
       <r>  -14.6198    1.0000 </r>
       <r>  -14.4514    1.0000 </r>
       <r>  -14.4507    1.0000 </r>
       <r>  -14.2688    1.0000 </r>
       <r>  -10.7592    1.0000 </r>
       <r>  -10.6290    1.0000 </r>
       <r>  -10.6284    1.0000 </r>
       <r>  -10.4909    1.0000 </r>
       <r>   -9.8848    1.0000 </r>
       <r>   -9.8776    1.0000 </r>
       <r>   -9.7700    1.0000 </r>
       <r>   -9.7693    1.0000 </r>
       <r>   -9.7623    1.0000 </r>
       <r>   -9.7613    1.0000 </r>
       <r>   -9.6502    1.0000 </r>
       <r>   -9.6421    1.0000 </r>
       <r>   -7.7566    1.0000 </r>
       <r>   -7.7507    1.0000 </r>
       <r>   -7.6659    1.0000 </r>
       <r>   -7.6637    1.0000 </r>
       <r>   -7.6588    1.0000 </r>
       <r>   -7.6579    1.0000 </r>
       <r>   -7.5650    1.0000 </r>
       <r>   -7.5586    1.0000 </r>
       <r>   -6.9136    1.0000 </r>
       <r>   -6.8193    1.0000 </r>
       <r>   -6.8179    1.0000 </r>
       <r>   -6.7188    1.0000 </r>
       <r>   -3.5259    1.0000 </r>
       <r>   -2.5491    1.0000 </r>
       <r>   -2.5472    1.0000 </r>
       <r>   -2.0311    1.0000 </r>
       <r>   -2.0143    1.0000 </r>
       <r>   -1.9895    1.0000 </r>
       <r>   -1.9893    1.0000 </r>
       <r>   -1.9735    1.0000 </r>
       <r>   -1.9716    1.0000 </r>
       <r>   -1.9468    1.0000 </r>
       <r>   -1.9301    1.0000 </r>
       <r>   -1.3734    1.0000 </r>
       <r>   -1.3489    1.0000 </r>
       <r>   -1.3413    1.0000 </r>
       <r>   -1.3383    1.0000 </r>
       <r>   -1.3058    1.0000 </r>
       <r>    0.9410    1.0000 </r>
       <r>    1.2097    1.0000 </r>
       <r>    1.2292    1.0000 </r>
       <r>    1.2335    1.0000 </r>
       <r>    1.2526    1.0000 </r>
       <r>    1.5230    1.0000 </r>
       <r>    1.5386    1.0000 </r>
       <r>    1.5436    1.0000 </r>
       <r>    1.5601    1.0000 </r>
       <r>    1.6701    1.0000 </r>
       <r>    1.6724    1.0000 </r>
       <r>    1.8114    1.0000 </r>
       <r>    1.8157    1.0000 </r>
       <r>    2.3998    1.0000 </r>
       <r>    2.4024    1.0000 </r>
       <r>    2.4085    1.0000 </r>
       <r>    2.4094    1.0000 </r>
       <r>    2.4585    1.0000 </r>
       <r>    2.9206    1.0000 </r>
       <r>    2.9350    1.0000 </r>
       <r>    6.5486    0.0000 </r>
       <r>    6.5520    0.0000 </r>
       <r>    6.7993    0.0000 </r>
       <r>    6.8029    0.0000 </r>
       <r>    6.8049    0.0000 </r>
       <r>    6.8091    0.0000 </r>
       <r>    7.1964    0.0000 </r>
       <r>    7.3933    0.0000 </r>
       <r>    7.3999    0.0000 </r>
       <r>    7.6229    0.0000 </r>
       <r>    7.6271    0.0000 </r>
       <r>    8.2964    0.0000 </r>
       <r>    9.5642    0.0000 </r>
       <r>   12.1297    0.0000 </r>
       <r>   12.3380    0.0000 </r>
       <r>   12.3414    0.0000 </r>
       <r>   12.3472    0.0000 </r>
       <r>   12.3488    0.0000 </r>
       <r>   12.5684    0.0000 </r>
       <r>   12.7730    0.0000 </r>
      </set>
      <set comment="kpoint 3">
       <r>  -14.1240    1.0000 </r>
       <r>  -13.9602    1.0000 </r>
       <r>  -13.9596    1.0000 </r>
       <r>  -13.7833    1.0000 </r>
       <r>  -12.1723    1.0000 </r>
       <r>  -12.0272    1.0000 </r>
       <r>  -12.0267    1.0000 </r>
       <r>  -11.8720    1.0000 </r>
       <r>  -10.3092    1.0000 </r>
       <r>  -10.3055    1.0000 </r>
       <r>  -10.1841    1.0000 </r>
       <r>  -10.1836    1.0000 </r>
       <r>  -10.1804    1.0000 </r>
       <r>  -10.1791    1.0000 </r>
       <r>  -10.0514    1.0000 </r>
       <r>  -10.0475    1.0000 </r>
       <r>   -6.5821    1.0000 </r>
       <r>   -6.5731    1.0000 </r>
       <r>   -6.4969    1.0000 </r>
       <r>   -6.4947    1.0000 </r>
       <r>   -6.4873    1.0000 </r>
       <r>   -6.4861    1.0000 </r>
       <r>   -6.4055    1.0000 </r>
       <r>   -6.3966    1.0000 </r>
       <r>   -4.7947    1.0000 </r>
       <r>   -4.7165    1.0000 </r>
       <r>   -4.7148    1.0000 </r>
       <r>   -4.6338    1.0000 </r>
       <r>   -3.1908    1.0000 </r>
       <r>   -3.1767    1.0000 </r>
       <r>   -3.1371    1.0000 </r>
       <r>   -3.1367    1.0000 </r>
       <r>   -3.1237    1.0000 </r>
       <r>   -3.1217    1.0000 </r>
       <r>   -3.0807    1.0000 </r>
       <r>   -3.0665    1.0000 </r>
       <r>   -2.9259    1.0000 </r>
       <r>   -1.9678    1.0000 </r>
       <r>   -1.9659    1.0000 </r>
       <r>   -0.8991    1.0000 </r>
       <r>   -0.8684    1.0000 </r>
       <r>   -0.8651    1.0000 </r>
       <r>   -0.8342    1.0000 </r>
       <r>   -0.7944    1.0000 </r>
       <r>   -0.6145    1.0000 </r>
       <r>   -0.4476    1.0000 </r>
       <r>   -0.4099    1.0000 </r>
       <r>   -0.4067    1.0000 </r>
       <r>   -0.3687    1.0000 </r>
       <r>    0.2473    1.0000 </r>
       <r>    0.2492    1.0000 </r>
       <r>    0.7223    1.0000 </r>
       <r>    0.7453    1.0000 </r>
       <r>    0.7498    1.0000 </r>
       <r>    0.7733    1.0000 </r>
       <r>    1.2715    1.0000 </r>
       <r>    1.4974    1.0000 </r>
       <r>    1.5007    1.0000 </r>
       <r>    2.2111    1.0000 </r>
       <r>    2.2138    1.0000 </r>
       <r>    2.2169    1.0000 </r>
       <r>    2.2179    1.0000 </r>
       <r>    2.9883    1.0000 </r>
       <r>    2.9955    1.0000 </r>
[...]
       <r>   -4.0142    1.0000 </r>
       <r>   -4.0142    1.0000 </r>
       <r>   -4.0127    1.0000 </r>
       <r>   -4.0094    1.0000 </r>
       <r>   -2.5635    1.0000 </r>
       <r>   -2.5632    1.0000 </r>
       <r>   -2.5632    1.0000 </r>
       <r>   -2.5576    1.0000 </r>
       <r>   -2.4783    1.0000 </r>
       <r>   -2.4780    1.0000 </r>
       <r>   -2.4780    1.0000 </r>
       <r>   -2.4715    1.0000 </r>
       <r>   -1.6906    1.0000 </r>
       <r>   -1.6880    1.0000 </r>
       <r>   -1.6878    1.0000 </r>
       <r>   -1.6855    1.0000 </r>
       <r>   -0.2605    1.0000 </r>
       <r>   -0.2574    1.0000 </r>
       <r>   -0.2572    1.0000 </r>
       <r>   -0.2547    1.0000 </r>
       <r>   -0.1490    1.0000 </r>
       <r>   -0.1394    1.0000 </r>
       <r>   -0.1393    1.0000 </r>
       <r>   -0.1378    1.0000 </r>
       <r>   -0.1042    1.0000 </r>
       <r>   -0.0975    1.0000 </r>
       <r>   -0.0975    1.0000 </r>
       <r>   -0.0958    1.0000 </r>
       <r>    1.5930    1.0000 </r>
       <r>    1.5940    1.0000 </r>
       <r>    1.5941    1.0000 </r>
       <r>    1.5973    1.0000 </r>
       <r>    2.7281    1.0000 </r>
       <r>    2.7291    1.0000 </r>
       <r>    2.7293    1.0000 </r>
       <r>    2.7332    1.0000 </r>
       <r>    7.4393    0.0000 </r>
       <r>    7.4445    0.0000 </r>
       <r>    7.4445    0.0000 </r>
       <r>    7.4448    0.0000 </r>
       <r>    7.9150    0.0000 </r>
       <r>    7.9197    0.0000 </r>
       <r>    7.9197    0.0000 </r>
       <r>    7.9204    0.0000 </r>
       <r>   11.6608    0.0000 </r>
       <r>   11.6723    0.0000 </r>
       <r>   11.6735    0.0000 </r>
       <r>   11.6851    0.0000 </r>
       <r>   12.0302    0.0000 </r>
       <r>   12.0395    0.0000 </r>
       <r>   12.0423    0.0000 </r>
       <r>   12.0521    0.0000 </r>
       <r>   12.3453    0.0000 </r>
       <r>   12.3467    0.0000 </r>
       <r>   12.3478    0.0000 </r>
       <r>   12.3538    0.0000 </r>
      </set>
     </set>
    </set>
   </array>
  </eigenvalues>
  <separator name="orbital magnetization" >
   <v name="MAGDIPOLOUT">      0.00000000      0.00000000      0.00000000</v>
  </separator>
  <dos>
   <i name="efermi">      4.85938538 </i>
   <total>
    <array>
     <dimension dim="1">gridpoints</dimension>
     <dimension dim="2">spin</dimension>
     <field>energy</field>
     <field>total</field>
     <field>integrated</field>
     <set>
      <set comment="spin 1">
       <r>   -16.7857     0.0000     0.0000 </r>
       <r>   -16.6761     0.0000     0.0000 </r>
       <r>   -16.5664     0.0000     0.0000 </r>
       <r>   -16.4567     0.0000     0.0000 </r>
       <r>   -16.3470     0.0000     0.0000 </r>
       <r>   -16.2373     0.0000     0.0000 </r>
       <r>   -16.1276     0.0000     0.0000 </r>
       <r>   -16.0180     0.0000     0.0000 </r>
       <r>   -15.9083     0.0000     0.0000 </r>
       <r>   -15.7986     0.0000     0.0000 </r>
       <r>   -15.6889     0.0000     0.0000 </r>
       <r>   -15.5792     0.0000     0.0000 </r>
       <r>   -15.4696     0.0000     0.0000 </r>
       <r>   -15.3599     0.0000     0.0000 </r>
       <r>   -15.2502     0.0000     0.0000 </r>
       <r>   -15.1405     0.0000     0.0000 </r>
       <r>   -15.0308     0.0000     0.0000 </r>
       <r>   -14.9212     0.0000     0.0000 </r>
       <r>   -14.8115     0.0000     0.0000 </r>
       <r>   -14.7018     0.8647     0.0281 </r>
       <r>   -14.5921     2.3621     0.2279 </r>
       <r>   -14.4824     3.2008     0.5270 </r>
       <r>   -14.3727     4.7455     0.9590 </r>
       <r>   -14.2631     4.8077     1.5158 </r>
       <r>   -14.1534     4.9424     2.0529 </r>
       <r>   -14.0437     4.9627     2.5954 </r>
       <r>   -13.9340     4.9391     3.1402 </r>
       <r>   -13.8243     4.8922     3.6774 </r>
       <r>   -13.7147     5.1276     4.2250 </r>
       <r>   -13.6050     6.2931     4.8182 </r>
       <r>   -13.4953     7.2374     5.5724 </r>
       <r>   -13.3856     7.0458     6.3585 </r>
       <r>   -13.2759     6.1525     7.1376 </r>
       <r>   -13.1663     2.3576     7.5456 </r>
       <r>   -13.0566     1.8399     7.7692 </r>
       <r>   -12.9469     2.0153     7.9741 </r>
       <r>   -12.8372     2.4445     8.2186 </r>
       <r>   -12.7275     3.9361     8.5332 </r>
       <r>   -12.6178     7.1857     9.4105 </r>
       <r>   -12.5082     7.6671    10.2032 </r>
       <r>   -12.3985     6.7405    11.0271 </r>
       <r>   -12.2888     4.0652    11.5576 </r>
       <r>   -12.1791     4.1829    12.0099 </r>
       <r>   -12.0694     4.3350    12.4766 </r>
       <r>   -11.9598     4.5045    12.9613 </r>
       <r>   -11.8501     4.6589    13.4642 </r>
       <r>   -11.7404     4.7930    13.9826 </r>
       <r>   -11.6307     5.1671    14.5272 </r>
       <r>   -11.5210     5.4877    15.1128 </r>
       <r>   -11.4114     6.2573    15.7406 </r>
       <r>   -11.3017     5.9515    16.4156 </r>
       <r>   -11.1920     5.6448    17.0503 </r>
       <r>   -11.0823     5.5746    17.6616 </r>
       <r>   -10.9726     5.7445    18.2823 </r>
       <r>   -10.8629     5.9145    18.9217 </r>
       <r>   -10.7533     5.9712    19.5792 </r>
       <r>   -10.6436     5.7381    20.2168 </r>
       <r>   -10.5339     5.6359    20.8403 </r>
       <r>   -10.4242     5.4590    21.4507 </r>
       <r>   -10.3145     4.2995    21.9945 </r>
       <r>   -10.2049     3.8192    22.4223 </r>
       <r>   -10.0952     4.6683    22.8897 </r>
       <r>    -9.9855     4.9846    23.4236 </r>
       <r>    -9.8758     5.3470    23.9815 </r>
       <r>    -9.7661     7.0704    24.6808 </r>
       <r>    -9.6565    10.2619    25.6102 </r>
       <r>    -9.5468     9.4813    26.7680 </r>
       <r>    -9.4371     7.1085    27.6778 </r>
       <r>    -9.3274     5.1123    28.3393 </r>
       <r>    -9.2177     4.4966    28.8611 </r>
       <r>    -9.1080     3.9939    29.3267 </r>
       <r>    -8.9984     7.6733    29.8469 </r>
       <r>    -8.8887     5.0111    30.4455 </r>
       <r>    -8.7790     2.0321    30.9232 </r>
       <r>    -8.6693     1.8215    31.1346 </r>
       <r>    -8.5596     1.6108    31.3228 </r>
       <r>    -8.4500     1.4001    31.4879 </r>
       <r>    -8.3403     1.2475    31.6305 </r>
       <r>    -8.2306     1.6609    31.7873 </r>
       <r>    -8.1209     2.1634    31.9970 </r>
       <r>    -8.0112     2.6657    32.2618 </r>
       <r>    -7.9016     4.3090    32.6081 </r>
       <r>    -7.7919     9.7259    33.3625 </r>
       <r>    -7.6822     5.8716    34.3415 </r>
       <r>    -7.5725     5.1052    34.9059 </r>
       <r>    -7.4628     6.0155    35.5015 </r>
       <r>    -7.3531     7.2177    36.2272 </r>
       <r>    -7.2435     8.4199    37.0848 </r>
       <r>    -7.1338     9.6221    38.0742 </r>
       <r>    -7.0241     7.5829    39.0241 </r>
       <r>    -6.9144     5.5940    39.7163 </r>
       <r>    -6.8047     5.5658    40.3291 </r>
       <r>    -6.6951     5.5636    40.9395 </r>
       <r>    -6.5854     5.4059    41.5411 </r>
       <r>    -6.4757     5.2214    42.1244 </r>
       <r>    -6.3660     5.0705    42.6879 </r>
       <r>    -6.2563     4.9517    43.2376 </r>
       <r>    -6.1467     4.8328    43.7741 </r>
       <r>    -6.0370     4.7141    44.2977 </r>
       <r>    -5.9273     4.5953    44.8082 </r>
       <r>    -5.8176     4.4766    45.3057 </r>
       <r>    -5.7079     4.3549    45.7901 </r>
       <r>    -5.5982     4.6492    46.2730 </r>
       <r>    -5.4886     5.2758    46.8183 </r>
       <r>    -5.3789     5.8796    47.4300 </r>
       <r>    -5.2692     6.4833    48.1080 </r>
       <r>    -5.1595     7.0871    48.8522 </r>
       <r>    -5.0498     7.6909    49.6627 </r>
       <r>    -4.9402     8.2948    50.5393 </r>
       <r>    -4.8305     8.8986    51.4822 </r>
       <r>    -4.7208     5.6335    52.2952 </r>
       <r>    -4.6111     5.4509    52.8062 </r>
       <r>    -4.5014     7.2114    53.5149 </r>
       <r>    -4.3918     5.6993    54.2229 </r>
       <r>    -4.2821     4.1868    54.7650 </r>
       <r>    -4.1724     2.6742    55.1413 </r>
       <r>    -4.0627     1.1799    55.3517 </r>
       <r>    -3.9530     1.9528    55.4981 </r>
       <r>    -3.8433     3.5191    55.7982 </r>
       <r>    -3.7337     5.0852    56.2700 </r>
       <r>    -3.6240     8.3182    56.9572 </r>
       <r>    -3.5143    12.5537    58.0885 </r>
       <r>    -3.4046    13.0251    59.4923 </r>
       <r>    -3.2949    12.2345    60.9012 </r>
       <r>    -3.1853     6.0668    61.9441 </r>
       <r>    -3.0756     5.1429    62.4778 </r>
       <r>    -2.9659     6.0988    63.0989 </r>
       <r>    -2.8562     7.0132    63.8156 </r>
       <r>    -2.7465    11.5339    64.7851 </r>
       <r>    -2.6369    17.3987    66.3703 </r>
       <r>    -2.5272    17.6640    68.6225 </r>
       <r>    -2.4175     7.1772    69.5590 </r>
       <r>    -2.3078     7.4321    70.3649 </r>
       <r>    -2.1981     7.6218    71.1855 </r>
       <r>    -2.0884     8.1471    72.0482 </r>
       <r>    -1.9788    10.3977    73.0479 </r>
       <r>    -1.8691    14.4787    74.6634 </r>
       <r>    -1.7594    11.4058    76.0695 </r>
       <r>    -1.6497     9.8828    77.2102 </r>
       <r>    -1.5400    32.4650    79.0447 </r>
       <r>    -1.4304    18.2838    81.8285 </r>
       <r>    -1.3207    17.7625    83.9724 </r>
       <r>    -1.2110    14.9564    85.5858 </r>
       <r>    -1.1013    16.8687    87.3346 </r>
       <r>    -0.9916    11.7683    89.0337 </r>
       <r>    -0.8820     7.3662    90.0528 </r>
       <r>    -0.7723     6.6124    90.7734 </r>
       <r>    -0.6626     7.5731    91.5515 </r>
       <r>    -0.5529     8.5128    92.4301 </r>
       <r>    -0.4432     9.8751    93.4365 </r>
       <r>    -0.3335    11.0530    94.5910 </r>
       <r>    -0.2239    11.5689    95.8430 </r>
       <r>    -0.1142    26.6219    97.4925 </r>
       <r>    -0.0045    12.8999    98.9187 </r>
       <r>     0.1052    12.2027   100.3354 </r>
       <r>     0.2149    10.2279   101.5930 </r>
       <r>     0.3245     9.0275   102.6163 </r>
       <r>     0.4342     9.8286   103.6393 </r>
       <r>     0.5439     9.0358   104.6490 </r>
       <r>     0.6536     9.7779   105.6704 </r>
       <r>     0.7633     9.8504   106.7682 </r>
       <r>     0.8729     9.6844   107.8315 </r>
       <r>     0.9826     9.4783   108.8808 </r>
       <r>     1.0923     9.3786   109.9145 </r>
       <r>     1.2020     9.4440   110.9428 </r>
       <r>     1.3117     9.9118   112.0238 </r>
       <r>     1.4214     9.6479   113.1002 </r>
       <r>     1.5310     9.5893   114.1260 </r>
       <r>     1.6407    10.1483   115.2442 </r>
       <r>     1.7504     9.7308   116.3344 </r>
       <r>     1.8601     7.6670   117.3038 </r>
       <r>     1.9698     6.6496   118.0724 </r>
       <r>     2.0794     5.2967   118.7391 </r>
       <r>     2.1891     3.8025   119.2350 </r>
       <r>     2.2988     2.8836   119.5878 </r>
       <r>     2.4085     3.4808   119.9053 </r>
       <r>     2.5182     4.1681   120.3094 </r>
       <r>     2.6278     6.2075   120.8591 </r>
       <r>     2.7375     8.2093   121.6477 </r>
       <r>     2.8472     8.4694   122.5447 </r>
       <r>     2.9569     8.3458   123.4847 </r>
       <r>     3.0666     6.8248   124.3433 </r>
       <r>     3.1762     5.2164   124.9962 </r>
       <r>     3.2859     4.1231   125.5048 </r>
       <r>     3.3956     3.4409   125.9163 </r>
       <r>     3.5053     3.0544   126.2724 </r>
       <r>     3.6150     2.6554   126.5855 </r>
       <r>     3.7247     2.2893   126.8563 </r>
       <r>     3.8343     1.9879   127.0905 </r>
       <r>     3.9440     1.7121   127.2931 </r>
       <r>     4.0537     1.4522   127.4666 </r>
       <r>     4.1634     1.2009   127.6120 </r>
       <r>     4.2731     0.9744   127.7311 </r>
       <r>     4.3827     0.7671   127.8264 </r>
       <r>     4.4924     0.5721   127.8998 </r>
       <r>     4.6021     0.3876   127.9523 </r>
       <r>     4.7118     0.2125   127.9852 </r>
       <r>     4.8215     0.0461   127.9993 </r>
       <r>     4.9311     0.0625   128.0018 </r>
       <r>     5.0408     0.1874   128.0154 </r>
       <r>     5.1505     0.3221   128.0433 </r>
       <r>     5.2602     0.4681   128.0865 </r>
       <r>     5.3699     0.6272   128.1465 </r>
       <r>     5.4796     0.8007   128.2246 </r>
       <r>     5.5892     0.9970   128.3230 </r>
       <r>     5.6989     1.2328   128.4447 </r>
       <r>     5.8086     1.4958   128.5943 </r>
       <r>     5.9183     1.7596   128.7728 </r>
       <r>     6.0280     2.7622   129.0326 </r>
       <r>     6.1376     3.3361   129.3680 </r>
       <r>     6.2473     3.7433   129.7591 </r>
       <r>     6.3570     4.9841   130.2181 </r>
       <r>     6.4667    10.0147   130.9914 </r>
       <r>     6.5764    10.9443   132.3816 </r>
       <r>     6.6860     8.7293   133.4644 </r>
       <r>     6.7957     6.8515   134.3307 </r>
       <r>     6.9054     5.9514   135.0276 </r>
       <r>     7.0151     5.2853   135.6416 </r>
       <r>     7.1248     5.0278   136.2031 </r>
       <r>     7.2345     4.5231   136.7405 </r>
       <r>     7.3441     3.9406   137.2153 </r>
       <r>     7.4538     3.5713   137.6190 </r>
       <r>     7.5635     3.6728   138.0143 </r>
       <r>     7.6732     4.0026   138.4328 </r>
       <r>     7.7829     4.4239   138.8960 </r>
       <r>     7.8925     4.7589   139.3998 </r>
       <r>     8.0022     4.9176   139.9332 </r>
       <r>     8.1119     4.7094   140.4621 </r>
       <r>     8.2216     4.5211   140.9676 </r>
       <r>     8.3313     4.4047   141.4575 </r>
       <r>     8.4409     4.2781   141.9333 </r>
       <r>     8.5506     4.1808   142.3970 </r>
       <r>     8.6603     4.1028   142.8512 </r>
       <r>     8.7700     4.0305   143.2972 </r>
       <r>     8.8797     3.9668   143.7357 </r>
       <r>     8.9894     3.6979   144.1624 </r>
       <r>     9.0990     3.4493   144.5524 </r>
       <r>     9.2087     3.3348   144.9232 </r>
       <r>     9.3184     3.2645   145.2854 </r>
       <r>     9.4281     3.2052   145.6388 </r>
       <r>     9.5378     3.4044   145.9990 </r>
       <r>     9.6474     3.5672   146.3850 </r>
       <r>     9.7571     3.5446   146.7758 </r>
       <r>     9.8668     3.5761   147.1655 </r>
       <r>     9.9765     3.6318   147.5607 </r>
       <r>    10.0862     3.6691   147.9614 </r>
       <r>    10.1958     3.6714   148.3643 </r>
       <r>    10.3055     3.6229   148.7649 </r>
       <r>    10.4152     3.5886   149.1592 </r>
       <r>    10.5249     4.6517   149.6189 </r>
       <r>    10.6346     4.9986   150.1494 </r>
       <r>    10.7443     5.2642   150.7138 </r>
       <r>    10.8539     5.2882   151.2836 </r>
       <r>    10.9636     5.4691   151.8737 </r>
       <r>    11.0733     5.6664   152.4875 </r>
       <r>    11.1830     4.3062   153.0410 </r>
       <r>    11.2927     4.0763   153.6472 </r>
       <r>    11.4023     3.0321   154.0191 </r>
       <r>    11.5120     2.4308   154.3415 </r>
       <r>    11.6217     2.4462   154.6092 </r>
       <r>    11.7314     2.4849   154.8789 </r>
       <r>    11.8411     2.7756   155.1621 </r>
       <r>    11.9507     3.7914   155.5172 </r>
       <r>    12.0604     3.2831   155.9129 </r>
       <r>    12.1701     5.2046   156.3553 </r>
       <r>    12.2798     6.7959   156.9961 </r>
       <r>    12.3895     8.6663   157.8518 </r>
       <r>    12.4992    10.7110   158.9010 </r>
       <r>    12.6088    13.5187   160.2344 </r>
       <r>    12.7185    14.1234   161.7741 </r>
       <r>    12.8282    13.9273   163.3210 </r>
       <r>    12.9379    11.2399   164.7559 </r>
       <r>    13.0476     9.2772   165.8429 </r>
       <r>    13.1572     9.8596   166.8432 </r>
       <r>    13.2669     3.6039   167.8356 </r>
       <r>    13.3766     0.2965   167.9267 </r>
       <r>    13.4863     0.2153   167.9546 </r>
       <r>    13.5960     0.1471   167.9744 </r>
       <r>    13.7056     0.0918   167.9874 </r>
       <r>    13.8153     0.0495   167.9950 </r>
       <r>    13.9250     0.0202   167.9987 </r>
       <r>    14.0347     0.0038   167.9999 </r>
       <r>    14.1444     0.0000   168.0000 </r>
       <r>    14.2541     0.0000   168.0000 </r>
       <r>    14.3637     0.0000   168.0000 </r>
       <r>    14.4734     0.0000   168.0000 </r>
       <r>    14.5831     0.0000   168.0000 </r>
       <r>    14.6928     0.0000   168.0000 </r>
       <r>    14.8025     0.0000   168.0000 </r>
       <r>    14.9121     0.0000   168.0000 </r>
       <r>    15.0218     0.0000   168.0000 </r>
       <r>    15.1315     0.0000   168.0000 </r>
       <r>    15.2412     0.0000   168.0000 </r>
       <r>    15.3509     0.0000   168.0000 </r>
       <r>    15.4605     0.0000   168.0000 </r>
       <r>    15.5702     0.0000   168.0000 </r>
       <r>    15.6799     0.0000   168.0000 </r>
       <r>    15.7896     0.0000   168.0000 </r>
       <r>    15.8993     0.0000   168.0000 </r>
       <r>    16.0090     0.0000   168.0000 </r>
       <r>    16.1186     0.0000   168.0000 </r>
      </set>
     </set>
    </array>
   </total>
  </dos>
 </calculation>
 <structure name="finalpos" >
  <crystal>
   <varray name="basis" >
    <v>       4.93287450      -0.00191929       0.00000000 </v>
    <v>      -2.46809940       4.27103499       0.00000000 </v>
    <v>       0.00000000       0.00000000      13.13086644 </v>
   </varray>
   <i name="volume">    276.58519049 </i>
   <varray name="rec_basis" >
    <v>       0.20276715       0.11717288       0.00000000 </v>
    <v>       0.00009112       0.23418794       0.00000000 </v>
    <v>       0.00000000       0.00000000       0.07615644 </v>
   </varray>
  </crystal>
  <varray name="positions" >
   <v>       0.49967330       0.00032672       0.12500000 </v>
   <v>       0.99967330       0.00032672       0.12500000 </v>
   <v>       0.49967330       0.50032672       0.12500000 </v>
   <v>       0.99967330       0.50032672       0.12500000 </v>
   <v>       0.49967330       0.00032672       0.62500000 </v>
   <v>       0.99967330       0.00032672       0.62500000 </v>
   <v>       0.49967330       0.50032672       0.62500000 </v>
   <v>       0.99967330       0.50032672       0.62500000 </v>
   <v>       0.00032672       0.49967330       0.37500000 </v>
   <v>       0.50032672       0.49967330       0.37500000 </v>
   <v>       0.00032672       0.99967330       0.37500000 </v>
   <v>       0.50032672       0.99967330       0.37500000 </v>
   <v>       0.00032672       0.49967330       0.87500000 </v>
   <v>       0.50032672       0.49967330       0.87500000 </v>
   <v>       0.00032672       0.99967330       0.87500000 </v>
   <v>       0.50032672       0.99967330       0.87500000 </v>
   <v>       0.16700538       0.33370753       0.12571292 </v>
   <v>       0.66629246       0.33370753       0.12500000 </v>
   <v>       0.16629246       0.83370753       0.12500000 </v>
   <v>       0.66629246       0.83370753       0.12500000 </v>
   <v>       0.16629246       0.33370753       0.62500000 </v>
   <v>       0.66629246       0.33370753       0.62500000 </v>
   <v>       0.16629246       0.83370753       0.62500000 </v>
   <v>       0.66629246       0.83370753       0.62500000 </v>
   <v>       0.33370753       0.16629246       0.37500000 </v>
   <v>       0.83370753       0.16629246       0.37500000 </v>
   <v>       0.33370753       0.66629246       0.37500000 </v>
   <v>       0.83370753       0.66629246       0.37500000 </v>
   <v>       0.33370753       0.16629246       0.87500000 </v>
   <v>       0.83370753       0.16629246       0.87500000 </v>
   <v>       0.33370753       0.66629246       0.87500000 </v>
   <v>       0.83370753       0.66629246       0.87500000 </v>
  </varray>
 </structure>
</modeling>
