   4   4   0   0
  0.4365297E+01  0.2466437E-09  0.2466437E-09  0.3315875E-09  0.5000000E-15
  1.000000000000000E-004
  CAR 
 graphite                                
     30.92278474    -13.32084411  301     15.92199821      1.00000000
    -13.321  0.0000E+00  0.0000E+00
    -13.173  0.0000E+00  0.0000E+00
    -13.026  0.0000E+00  0.0000E+00
    -12.878  0.0000E+00  0.0000E+00
    -12.731  0.0000E+00  0.0000E+00
    -12.583  0.0000E+00  0.0000E+00
    -12.436  0.0000E+00  0.0000E+00
    -12.288  0.0000E+00  0.0000E+00
    -12.141  0.0000E+00  0.0000E+00
    -11.994  0.0000E+00  0.0000E+00
    -11.846  0.0000E+00  0.0000E+00
    -11.699  0.0000E+00  0.0000E+00
    -11.551  0.0000E+00  0.0000E+00
    -11.404  0.0000E+00  0.0000E+00
    -11.256  0.6174E-04  0.1104E-05
    -11.109  0.3567E-03  0.3355E-04
    -10.961  0.4652E-03  0.9461E-04
    -10.814  0.5604E-03  0.1696E-03
    -10.666  0.6703E-03  0.2610E-03
    -10.519  0.7386E-03  0.3654E-03
    -10.371  0.8106E-03  0.4796E-03
    -10.224  0.8713E-03  0.6039E-03
    -10.076  0.9264E-03  0.7363E-03
     -9.929  0.9923E-03  0.8777E-03
     -9.781  0.1062E-02  0.1029E-02
     -9.634  0.1103E-02  0.1189E-02
     -9.486  0.1147E-02  0.1355E-02
     -9.339  0.1196E-02  0.1528E-02
     -9.191  0.1246E-02  0.1708E-02
     -9.044  0.1289E-02  0.1895E-02
     -8.896  0.1332E-02  0.2088E-02
     -8.749  0.1378E-02  0.2288E-02
     -8.602  0.1427E-02  0.2495E-02
     -8.454  0.1471E-02  0.2709E-02
     -8.307  0.1507E-02  0.2929E-02
     -8.159  0.1542E-02  0.3153E-02
     -8.012  0.1580E-02  0.3384E-02
     -7.864  0.1619E-02  0.3619E-02
     -7.717  0.1659E-02  0.3861E-02
     -7.569  0.1701E-02  0.4109E-02
     -7.422  0.1739E-02  0.4363E-02
     -7.274  0.1778E-02  0.4622E-02
     -7.127  0.1820E-02  0.4887E-02
     -6.979  0.1861E-02  0.5159E-02
     -6.832  0.1899E-02  0.5436E-02
     -6.684  0.1940E-02  0.5719E-02
     -6.537  0.1983E-02  0.6008E-02
     -6.389  0.2027E-02  0.6304E-02
     -6.242  0.2081E-02  0.6607E-02
     -6.094  0.2146E-02  0.6918E-02
     -5.947  0.2229E-02  0.7240E-02
     -5.799  0.2425E-02  0.7580E-02
     -5.652  0.2477E-02  0.7948E-02
     -5.504  0.2382E-02  0.8304E-02
     -5.357  0.2498E-02  0.8667E-02
     -5.210  0.2355E-02  0.9025E-02
     -5.062  0.2277E-02  0.9366E-02
     -4.915  0.2219E-02  0.9697E-02
     -4.767  0.2167E-02  0.1002E-01
     -4.620  0.2195E-02  0.1034E-01
     -4.472  0.2100E-02  0.1066E-01
     -4.325  0.1999E-02  0.1096E-01
     -4.177  0.1908E-02  0.1125E-01
     -4.030  0.1924E-02  0.1153E-01
     -3.882  0.2167E-02  0.1183E-01
     -3.735  0.2118E-02  0.1215E-01
     -3.587  0.2197E-02  0.1247E-01
     -3.440  0.2365E-02  0.1280E-01
     -3.292  0.2443E-02  0.1316E-01
     -3.145  0.2482E-02  0.1352E-01
     -2.997  0.2594E-02  0.1390E-01
     -2.850  0.2756E-02  0.1429E-01
     -2.702  0.2921E-02  0.1471E-01
     -2.555  0.3168E-02  0.1516E-01
     -2.407  0.3071E-02  0.1562E-01
     -2.260  0.2843E-02  0.1606E-01
     -2.112  0.2687E-02  0.1647E-01
     -1.965  0.2600E-02  0.1685E-01
     -1.818  0.2493E-02  0.1723E-01
     -1.670  0.2602E-02  0.1761E-01
     -1.523  0.2706E-02  0.1799E-01
     -1.375  0.2708E-02  0.1839E-01
     -1.228  0.2574E-02  0.1877E-01
     -1.080  0.2571E-02  0.1915E-01
     -0.933  0.2734E-02  0.1954E-01
     -0.785  0.2993E-02  0.1996E-01
     -0.638  0.3322E-02  0.2044E-01
     -0.490  0.3408E-02  0.2093E-01
     -0.343  0.3374E-02  0.2143E-01
     -0.195  0.3315E-02  0.2193E-01
     -0.048  0.3349E-02  0.2242E-01
      0.100  0.3204E-02  0.2290E-01
      0.247  0.3249E-02  0.2337E-01
      0.395  0.3374E-02  0.2386E-01
      0.542  0.3372E-02  0.2436E-01
      0.690  0.3370E-02  0.2486E-01
      0.837  0.3381E-02  0.2536E-01
      0.985  0.3262E-02  0.2585E-01
      1.132  0.3183E-02  0.2632E-01
      1.280  0.3289E-02  0.2679E-01
      1.427  0.3506E-02  0.2730E-01
      1.575  0.3554E-02  0.2782E-01
      1.722  0.3756E-02  0.2837E-01
      1.869  0.3574E-02  0.2890E-01
      2.017  0.3615E-02  0.2943E-01
      2.164  0.3692E-02  0.2997E-01
      2.312  0.3776E-02  0.3052E-01
      2.459  0.3864E-02  0.3109E-01
      2.607  0.3820E-02  0.3166E-01
      2.754  0.3863E-02  0.3222E-01
      2.902  0.3933E-02  0.3279E-01
      3.049  0.4046E-02  0.3338E-01
      3.197  0.4119E-02  0.3398E-01
      3.344  0.4200E-02  0.3460E-01
      3.492  0.4323E-02  0.3523E-01
      3.639  0.4515E-02  0.3588E-01
      3.787  0.4719E-02  0.3656E-01
      3.934  0.4952E-02  0.3727E-01
      4.082  0.5457E-02  0.3804E-01
      4.229  0.5814E-02  0.3887E-01
      4.377  0.5768E-02  0.3973E-01
      4.524  0.5475E-02  0.4055E-01
      4.672  0.5528E-02  0.4136E-01
      4.819  0.5938E-02  0.4220E-01
      4.967  0.5321E-02  0.4303E-01
      5.114  0.4845E-02  0.4378E-01
      5.261  0.4376E-02  0.4446E-01
      5.409  0.4025E-02  0.4508E-01
      5.556  0.3982E-02  0.4567E-01
      5.704  0.4048E-02  0.4626E-01
      5.851  0.4133E-02  0.4687E-01
      5.999  0.4228E-02  0.4750E-01
      6.146  0.4306E-02  0.4813E-01
      6.294  0.4361E-02  0.4877E-01
      6.441  0.4533E-02  0.4942E-01
      6.589  0.4796E-02  0.5010E-01
      6.736  0.4872E-02  0.5081E-01
      6.884  0.4647E-02  0.5151E-01
      7.031  0.4265E-02  0.5217E-01
      7.179  0.4137E-02  0.5279E-01
      7.326  0.4030E-02  0.5339E-01
      7.474  0.4009E-02  0.5398E-01
      7.621  0.4257E-02  0.5459E-01
      7.769  0.4560E-02  0.5524E-01
      7.916  0.4947E-02  0.5595E-01
      8.064  0.4279E-02  0.5662E-01
      8.211  0.3865E-02  0.5722E-01
      8.359  0.3553E-02  0.5776E-01
      8.506  0.3450E-02  0.5828E-01
      8.653  0.3439E-02  0.5879E-01
      8.801  0.3471E-02  0.5930E-01
      8.948  0.3750E-02  0.5983E-01
      9.096  0.3898E-02  0.6039E-01
      9.243  0.4150E-02  0.6098E-01
      9.391  0.4476E-02  0.6162E-01
      9.538  0.4080E-02  0.6226E-01
      9.686  0.4107E-02  0.6285E-01
      9.833  0.4140E-02  0.6347E-01
      9.981  0.3775E-02  0.6406E-01
     10.128  0.3439E-02  0.6459E-01
     10.276  0.3314E-02  0.6508E-01
     10.423  0.3262E-02  0.6557E-01
     10.571  0.3144E-02  0.6604E-01
     10.718  0.3102E-02  0.6650E-01
     10.866  0.3006E-02  0.6695E-01
     11.013  0.2737E-02  0.6739E-01
     11.161  0.1841E-02  0.6779E-01
     11.308  0.1674E-02  0.6803E-01
     11.456  0.1728E-02  0.6829E-01
     11.603  0.1770E-02  0.6854E-01
     11.751  0.1804E-02  0.6881E-01
     11.898  0.1820E-02  0.6907E-01
     12.046  0.1825E-02  0.6934E-01
     12.193  0.1821E-02  0.6961E-01
     12.340  0.1844E-02  0.6988E-01
     12.488  0.1879E-02  0.7016E-01
     12.635  0.1923E-02  0.7044E-01
     12.783  0.1982E-02  0.7072E-01
     12.930  0.2041E-02  0.7102E-01
     13.078  0.2099E-02  0.7133E-01
     13.225  0.2159E-02  0.7164E-01
     13.373  0.2221E-02  0.7196E-01
     13.520  0.2289E-02  0.7230E-01
     13.668  0.2372E-02  0.7264E-01
     13.815  0.2467E-02  0.7300E-01
     13.963  0.2599E-02  0.7337E-01
     14.110  0.2785E-02  0.7376E-01
     14.258  0.3034E-02  0.7419E-01
     14.405  0.3236E-02  0.7466E-01
     14.553  0.3221E-02  0.7514E-01
     14.700  0.3152E-02  0.7561E-01
     14.848  0.3125E-02  0.7607E-01
     14.995  0.3148E-02  0.7653E-01
     15.143  0.3190E-02  0.7700E-01
     15.290  0.3254E-02  0.7747E-01
     15.438  0.3331E-02  0.7796E-01
     15.585  0.3664E-02  0.7847E-01
     15.732  0.4519E-02  0.7908E-01
     15.880  0.5209E-02  0.7977E-01
     16.027  0.5333E-02  0.8056E-01
     16.175  0.5609E-02  0.8137E-01
     16.322  0.7726E-02  0.8230E-01
     16.470  0.6921E-02  0.8342E-01
     16.617  0.6489E-02  0.8441E-01
     16.765  0.5701E-02  0.8532E-01
     16.912  0.5338E-02  0.8612E-01
     17.060  0.5344E-02  0.8690E-01
     17.207  0.5516E-02  0.8770E-01
     17.355  0.5662E-02  0.8852E-01
     17.502  0.5744E-02  0.8937E-01
     17.650  0.5762E-02  0.9021E-01
     17.797  0.5211E-02  0.9103E-01
     17.945  0.4797E-02  0.9177E-01
     18.092  0.4482E-02  0.9245E-01
     18.240  0.4269E-02  0.9309E-01
     18.387  0.4116E-02  0.9371E-01
     18.535  0.3920E-02  0.9430E-01
     18.682  0.3733E-02  0.9487E-01
     18.830  0.3630E-02  0.9541E-01
     18.977  0.3485E-02  0.9593E-01
     19.124  0.3394E-02  0.9644E-01
     19.272  0.3291E-02  0.9693E-01
     19.419  0.2792E-02  0.9738E-01
     19.567  0.2779E-02  0.9778E-01
     19.714  0.2180E-02  0.9814E-01
     19.862  0.1805E-02  0.9844E-01
     20.009  0.1453E-02  0.9868E-01
     20.157  0.1243E-02  0.9888E-01
     20.304  0.1485E-02  0.9907E-01
     20.452  0.1415E-02  0.9927E-01
     20.599  0.1619E-02  0.9950E-01
     20.747  0.1577E-02  0.9973E-01
     20.894  0.1948E-02  0.9999E-01
     21.042  0.1878E-02  0.1003E+00
     21.189  0.1878E-02  0.1006E+00
     21.337  0.1705E-02  0.1008E+00
     21.484  0.1686E-02  0.1011E+00
     21.632  0.1745E-02  0.1013E+00
     21.779  0.1830E-02  0.1016E+00
     21.927  0.1853E-02  0.1019E+00
     22.074  0.1830E-02  0.1021E+00
     22.222  0.1853E-02  0.1024E+00
     22.369  0.1921E-02  0.1027E+00
     22.516  0.1986E-02  0.1030E+00
     22.664  0.2050E-02  0.1033E+00
     22.811  0.2131E-02  0.1036E+00
     22.959  0.2464E-02  0.1039E+00
     23.106  0.3092E-02  0.1043E+00
     23.254  0.3981E-02  0.1049E+00
     23.401  0.4204E-02  0.1055E+00
     23.549  0.3962E-02  0.1061E+00
     23.696  0.3880E-02  0.1066E+00
     23.844  0.3767E-02  0.1072E+00
     23.991  0.3679E-02  0.1078E+00
     24.139  0.3565E-02  0.1083E+00
     24.286  0.3393E-02  0.1088E+00
     24.434  0.3301E-02  0.1093E+00
     24.581  0.3260E-02  0.1098E+00
     24.729  0.3037E-02  0.1102E+00
     24.876  0.2997E-02  0.1107E+00
     25.024  0.2963E-02  0.1111E+00
     25.171  0.2970E-02  0.1116E+00
     25.319  0.3010E-02  0.1120E+00
     25.466  0.2873E-02  0.1124E+00
     25.614  0.2809E-02  0.1129E+00
     25.761  0.2744E-02  0.1133E+00
     25.909  0.2696E-02  0.1137E+00
     26.056  0.2673E-02  0.1141E+00
     26.203  0.2677E-02  0.1145E+00
     26.351  0.2703E-02  0.1149E+00
     26.498  0.2741E-02  0.1153E+00
     26.646  0.2924E-02  0.1157E+00
     26.793  0.3264E-02  0.1161E+00
     26.941  0.3516E-02  0.1166E+00
     27.088  0.4074E-02  0.1172E+00
     27.236  0.2967E-02  0.1177E+00
     27.383  0.2318E-02  0.1181E+00
     27.531  0.2131E-02  0.1184E+00
     27.678  0.1938E-02  0.1187E+00
     27.826  0.1740E-02  0.1190E+00
     27.973  0.1484E-02  0.1192E+00
     28.121  0.1342E-02  0.1194E+00
     28.268  0.1174E-02  0.1196E+00
     28.416  0.9930E-03  0.1198E+00
     28.563  0.7735E-03  0.1199E+00
     28.711  0.3710E-03  0.1200E+00
     28.858  0.2099E-04  0.1200E+00
     29.006  0.0000E+00  0.1200E+00
     29.153  0.0000E+00  0.1200E+00
     29.301  0.0000E+00  0.1200E+00
     29.448  0.0000E+00  0.1200E+00
     29.595  0.0000E+00  0.1200E+00
     29.743  0.0000E+00  0.1200E+00
     29.890  0.0000E+00  0.1200E+00
     30.038  0.0000E+00  0.1200E+00
     30.185  0.0000E+00  0.1200E+00
     30.333  0.0000E+00  0.1200E+00
     30.480  0.0000E+00  0.1200E+00
     30.628  0.0000E+00  0.1200E+00
     30.775  0.0000E+00  0.1200E+00
     30.923  0.0000E+00  0.1200E+00
