    4    4  200    1
  0.4365297E+01  0.2466437E-09  0.2466437E-09  0.3315875E-09  0.5000000E-15
  1.000000000000000E-004
  CAR 
 graphite                                
     16    455     12
 
  0.0000000E+00  0.0000000E+00  0.0000000E+00  0.3858025E-03
    1      -11.309770
    2       -0.699675
    3       -0.221674
    4        8.363471
    5        8.411140
    6       11.008232
    7       11.039749
    8       19.946029
    9       20.047595
   10       20.456714
   11       20.530259
   12       20.773474
 
  0.5555556E-01  0.3469447E-17  0.0000000E+00  0.1543210E-02
    1      -11.230672
    2       -0.612013
    3       -0.163025
    4        7.889964
    5        8.085410
    6       10.968007
    7       11.126386
    8       19.680557
    9       19.975217
   10       20.144891
   11       20.616765
   12       21.054304
 
  0.1111111E+00  0.6938894E-17  0.0000000E+00  0.1543210E-02
    1      -10.993742
    2       -0.350117
    3        0.012281
    4        6.644879
    5        7.412984
    6       10.699348
    7       11.214572
    8       18.908532
    9       19.305711
   10       19.767319
   11       21.126185
   12       21.880073
 
  0.1666667E+00  0.1387779E-16  0.0000000E+00  0.1543210E-02
    1      -10.599711
    2        0.082484
    3        0.301870
    4        5.039621
    5        6.630302
    6       10.136534
    7       11.113252
    8       17.702501
    9       18.360436
   10       19.457521
   11       22.136567
   12       23.039507
 
  0.2222222E+00  0.1387779E-16  0.0000000E+00  0.1543210E-02
    1      -10.050269
    2        0.678220
    3        0.697421
    4        3.300042
    5        5.873778
    6        9.346591
    7       10.840598
    8       16.187147
    9       17.476604
   10       19.093842
   11       23.603319
   12       24.381225
 
  0.2777778E+00  0.0000000E+00  0.0000000E+00  0.1543210E-02
    1       -9.347940
    2        1.069574
    3        1.423740
    4        1.672418
    5        5.208629
    6        8.411723
    7       10.493821
    8       14.511976
    9       16.724648
   10       18.726935
   11       25.399996
   12       25.756616
 
  0.3333333E+00  0.2775558E-16  0.0000000E+00  0.1543210E-02
    1       -8.498087
    2       -0.271836
    3        1.911394
    4        2.291075
    5        4.668746
    6        7.400491
    7       10.157236
    8       12.820600
    9       16.133047
   10       18.400232
   11       26.569678
   12       27.382508
 
  0.3888889E+00  0.2775558E-16  0.0000000E+00  0.1543210E-02
    1       -7.511406
    2       -1.889563
    3        2.621298
    4        3.218240
    5        4.272636
    6        6.366741
    7        9.886165
    8       11.256686
    9       15.710839
   10       18.146018
   11       26.875134
   12       28.643970
 
  0.4444444E+00  0.2775558E-16  0.0000000E+00  0.1543210E-02
    1       -6.429151
    2       -3.363513
    3        3.432133
    4        4.031796
    5        4.047462
    6        5.356170
    7        9.712402
    8       10.027695
    9       15.458599
   10       17.985602
   11       27.024305
   12       28.680182
 
  0.5000000E+00  0.0000000E+00  0.0000000E+00  0.7716049E-03
    1       -5.654979
    2       -4.268886
    3        3.950756
    4        4.160974
    5        4.421066
    6        4.559036
    7        9.517796
    8        9.652980
    9       15.374761
   10       17.930839
   11       27.070650
   12       28.696821
 
  0.5555556E-01  0.5555556E-01  0.0000000E+00  0.7716049E-03
    1      -11.072541
    2       -0.437184
    3       -0.045893
    4        7.115432
    5        7.504795
    6       10.872080
    7       11.151111
    8       19.181626
    9       19.815875
   10       19.998734
   11       20.169717
   12       21.965740
 
  0.1111111E+00  0.5555556E-01  0.0000000E+00  0.1543210E-02
    1      -10.756975
    2       -0.089875
    3        0.186744
    4        5.791684
    5        6.680088
    6       10.524213
    7       11.062309
    8       18.238895
    9       19.178543
   10       19.498379
   11       20.626225
   12       23.285632
 
  0.1666667E+00  0.5555556E-01  0.0000000E+00  0.1543210E-02
    1      -10.285096
    2        0.424760
    3        0.530756
    4        4.161818
    5        5.871521
    6        9.858854
    7       10.841128
    8       16.921087
    9       18.280935
   10       19.088054
   11       21.695013
   12       24.782666
 
  0.2222222E+00  0.5555556E-01  0.0000000E+00  0.1543210E-02
    1       -9.659056
    2        0.963972
    3        1.096228
    4        2.447883
    5        5.146917
    6        8.989269
    7       10.514206
    8       15.352918
    9       17.480642
   10       18.654216
   11       23.172065
   12       26.184558
 
  0.2777778E+00  0.5555556E-01  0.0000000E+00  0.1543210E-02
    1       -8.882425
    2        0.581017
    3        1.658751
    4        1.905454
    5        4.542087
    6        8.004952
    7       10.163267
    8       13.682634
    9       16.824618
   10       18.252541
   11       24.906510
   12       26.735540
 
  0.3333333E+00  0.5555556E-01  0.0000000E+00  0.1543210E-02
    1       -7.962912
    2       -1.048168
    3        2.278866
    4        2.811030
    5        4.081284
    6        6.972207
    7        9.854717
    8       12.054954
    9       16.329836
   10       17.922475
   11       26.718504
   12       27.113372
 
  0.3888889E+00  0.5555556E-01  0.0000000E+00  0.1543210E-02
    1       -6.919753
    2       -2.602839
    3        3.002759
    4        3.714984
    5        3.802840
    6        5.941463
    7        9.630284
    8       10.637098
    9       16.000729
   10       17.689735
   11       27.200435
   12       28.642524
 
  0.4444444E+00  0.5555556E-01  0.0000000E+00  0.1543210E-02
    1       -5.865821
    2       -3.917493
    3        3.432111
    4        4.055981
    5        4.369292
    6        4.960658
    7        9.513086
    8        9.716554
    9       15.836937
   10       17.569515
   11       27.294921
   12       28.699269
 
  0.5000000E+00  0.5555556E-01  0.0000000E+00  0.1543210E-02
    1       -5.866850
    2       -3.916416
    3        3.426726
    4        4.063451
    5        4.369326
    6        4.958784
    7        9.512851
    8        9.716009
    9       15.837539
   10       17.568885
   11       27.295480
   12       28.710821
 
 -0.4444444E+00  0.5555556E-01  0.0000000E+00  0.1543210E-02
    1       -6.921051
    2       -2.601435
    3        2.995962
    4        3.714988
    5        3.809813
    6        5.940992
    7        9.629479
    8       10.635493
    9       16.002493
   10       17.687903
   11       27.201899
   12       28.698118
 
 -0.3888889E+00  0.5555556E-01  0.0000000E+00  0.1543210E-02
    1       -7.964118
    2       -1.046906
    3        2.275403
    4        2.810948
    5        4.083778
    6        6.973072
    7        9.853217
    8       12.052167
    9       16.332621
   10       17.919625
   11       26.750843
   12       27.140695
 
 -0.3333333E+00  0.5555556E-01  0.0000000E+00  0.1543210E-02
    1       -8.883482
    2        0.582012
    3        1.656157
    4        1.905300
    5        4.542862
    6        8.007433
    7       10.160759
    8       13.678371
    9       16.828121
   10       18.249007
   11       24.957128
   12       26.747839
 
 -0.2777778E+00  0.5555556E-01  0.0000000E+00  0.1543210E-02
    1       -9.659936
    2        0.963074
    3        1.096042
    4        2.446471
    5        5.147375
    6        8.994259
    7       10.510017
    8       15.346856
    9       17.484246
   10       18.650533
   11       23.222591
   12       26.179797
 
 -0.2222222E+00  0.5555556E-01  0.0000000E+00  0.1543210E-02
    1      -10.285791
    2        0.424576
    3        0.529947
    4        4.157645
    5        5.873802
    6        9.868256
    7       10.833605
    8       16.913146
    9       18.283283
   10       19.085002
   11       21.745772
   12       24.726283
 
 -0.1666667E+00  0.5555556E-01  0.0000000E+00  0.1543210E-02
    1      -10.757474
    2       -0.090024
    3        0.186175
    4        5.779531
    5        6.689729
    6       10.542375
    7       11.046983
    8       18.229647
    9       19.175199
   10       19.496954
   11       20.682995
   12       23.220632
 
 -0.1111111E+00  0.5555556E-01  0.0000000E+00  0.1543210E-02
    1      -11.072849
    2       -0.437280
    3       -0.046257
    4        7.084977
    5        7.533064
    6       10.902177
    7       11.123534
    8       19.172626
    9       19.816918
   10       19.956360
   11       20.270898
   12       21.892900
 
 -0.5555556E-01  0.5555556E-01  0.0000000E+00  0.7716049E-03
    1      -11.230773
    2       -0.612047
    3       -0.163135
    4        7.859690
    5        8.115287
    6       10.988075
    7       11.107027
    8       19.675496
    9       19.977313
   10       20.167872
   11       20.655442
   12       20.985588
 
  0.1111111E+00  0.1111111E+00  0.0000000E+00  0.7716049E-03
    1      -10.363525
    2        0.339703
    3        0.474406
    4        4.698369
    5        5.577588
    6       10.245582
    7       10.662378
    8       17.265121
    9       18.972991
   10       19.582320
   11       19.950066
   12       25.091320
 
  0.1666667E+00  0.1111111E+00  0.0000000E+00  0.1543210E-02
    1       -9.815049
    2        0.866392
    3        0.930691
    4        3.255947
    5        4.632512
    6        9.591157
    7       10.266436
    8       15.998970
    9       18.334889
   10       18.939515
   11       20.936138
   12       26.607861
 
  0.2222222E+00  0.1111111E+00  0.0000000E+00  0.1543210E-02
    1       -9.114434
    2        1.232309
    3        1.668971
    4        1.747088
    5        3.918901
    6        8.682373
    7        9.897187
    8       14.508511
    9       17.733116
   10       18.259302
   11       22.481860
   12       27.172695
 
  0.2777778E+00  0.1111111E+00  0.0000000E+00  0.1543210E-02
    1       -8.267052
    2       -0.114852
    3        2.012122
    4        2.525976
    5        3.401811
    6        7.669675
    7        9.558829
    8       12.935124
    9       17.238267
   10       17.716307
   11       24.295041
   12       27.551619
 
  0.3333333E+00  0.1111111E+00  0.0000000E+00  0.1543210E-02
    1       -7.284786
    2       -1.702493
    3        2.503238
    4        3.225424
    5        3.437620
    6        6.628365
    7        9.290271
    8       11.446239
    9       16.875176
   10       17.325721
   11       26.255455
   12       27.788631
 
  0.3888889E+00  0.1111111E+00  0.0000000E+00  0.1543210E-02
    1       -6.209923
    2       -3.155458
    3        2.527597
    4        3.775547
    5        4.246764
    6        5.607367
    7        9.118956
    8       10.266782
    9       16.653947
   10       17.091426
   11       27.905410
   12       28.254080
 
  0.4444444E+00  0.1111111E+00  0.0000000E+00  0.1543210E-02
    1       -5.448636
    2       -4.043895
    3        2.478384
    4        4.583403
    5        4.608114
    6        4.697285
    7        9.060000
    8        9.777495
    9       16.579458
   10       17.014017
   11       27.954008
   12       28.758867
 
  0.5000000E+00  0.1111111E+00  0.0000000E+00  0.1543210E-02
    1       -6.212404
    2       -3.152923
    3        2.522573
    4        3.780235
    5        4.246963
    6        5.607742
    7        9.117912
    8       10.263908
    9       16.653295
   10       17.093471
   11       27.911536
   12       28.300616
 
 -0.4444444E+00  0.1111111E+00  0.0000000E+00  0.1543210E-02
    1       -7.287274
    2       -1.700109
    3        2.491456
    4        3.235798
    5        3.437701
    6        6.630326
    7        9.288027
    8       11.440403
    9       16.874214
   10       17.329651
   11       26.309374
   12       27.794863
 
 -0.3888889E+00  0.1111111E+00  0.0000000E+00  0.1543210E-02
    1       -8.269297
    2       -0.113326
    3        2.004592
    4        2.525752
    5        3.407425
    6        7.673721
    7        9.554949
    8       12.925575
    9       17.237730
   10       17.721684
   11       24.347992
   12       27.563283
 
 -0.3333333E+00  0.1111111E+00  0.0000000E+00  0.1543210E-02
    1       -9.116368
    2        1.232661
    3        1.668728
    4        1.740526
    5        3.923554
    6        8.690091
    7        9.890497
    8       14.494069
    9       17.734166
   10       18.265091
   11       22.533625
   12       27.193933
 
 -0.2777778E+00  0.1111111E+00  0.0000000E+00  0.1543210E-02
    1       -9.816617
    2        0.864449
    3        0.930390
    4        3.245587
    5        4.642020
    6        9.606891
    7       10.253000
    8       15.978815
    9       18.338808
   10       18.942143
   11       20.989409
   12       26.669032
 
 -0.2222222E+00  0.1111111E+00  0.0000000E+00  0.1543210E-02
    1      -10.364714
    2        0.339418
    3        0.472962
    4        4.674316
    5        5.599495
    6       10.273443
    7       10.638489
    8       17.240619
    9       18.980118
   10       19.561074
   11       20.025310
   12       25.022346
 
 -0.1666667E+00  0.1111111E+00  0.0000000E+00  0.1543210E-02
    1      -10.757774
    2       -0.090091
    3        0.185817
    4        5.762382
    5        6.707095
    6       10.544066
    7       11.047117
    8       18.214367
    9       19.202685
   10       19.507802
   11       20.657024
   12       23.214473
 
 -0.1111111E+00  0.1111111E+00  0.0000000E+00  0.7716049E-03
    1      -10.994142
    2       -0.350233
    3        0.011827
    4        6.618020
    5        7.439026
    6       10.710690
    7       11.205931
    8       18.890187
    9       19.334044
   10       19.776831
   11       21.154407
   12       21.811789
 
  0.1666667E+00  0.1666667E+00  0.0000000E+00  0.7716049E-03
    1       -9.191908
    2        1.285546
    3        1.589439
    4        2.214042
    5        3.408073
    6        9.156779
    7        9.563595
    8       14.923508
    9       17.396508
   10       20.031445
   11       20.395623
   12       27.574054
 
  0.2222222E+00  0.1666667E+00  0.0000000E+00  0.1543210E-02
    1       -8.420022
    2        0.805376
    3        1.721354
    4        2.379747
    5        2.700337
    6        8.340272
    7        9.082724
    8       13.663372
    9       16.545355
   10       19.620896
   11       21.875957
   12       28.264023
 
  0.2777778E+00  0.1666667E+00  0.0000000E+00  0.1543210E-02
    1       -7.507607
    2       -0.722403
    3        1.684712
    4        2.859893
    5        3.257111
    6        7.341836
    7        8.760101
    8       12.302385
    9       15.917253
   10       19.184215
   11       23.773970
   12       28.530226
 
  0.3333333E+00  0.1666667E+00  0.0000000E+00  0.1543210E-02
    1       -6.476366
    2       -2.213565
    3        1.431676
    4        3.544308
    5        4.120508
    6        6.317420
    7        8.536555
    8       11.048106
    9       15.516766
   10       18.888464
   11       25.810062
   12       28.704553
 
  0.3888889E+00  0.1666667E+00  0.0000000E+00  0.1543210E-02
    1       -5.445768
    2       -3.483690
    3        1.284231
    4        4.386857
    5        4.732068
    6        5.321684
    7        8.420905
    8       10.220856
    9       15.322663
   10       18.740439
   11       27.788145
   12       28.809964
 
  0.4444444E+00  0.1666667E+00  0.0000000E+00  0.1543210E-02
    1       -5.448571
    2       -3.481032
    3        1.283234
    4        4.386276
    5        4.732495
    6        5.323770
    7        8.420150
    8       10.217471
    9       15.323990
   10       18.741714
   11       27.836894
   12       28.816312
 
  0.5000000E+00  0.1666667E+00  0.0000000E+00  0.1543210E-02
    1       -6.480052
    2       -2.210618
    3        1.428485
    4        3.545863
    5        4.121185
    6        6.321051
    7        8.534175
    8       11.037983
    9       15.521264
   10       18.892178
   11       25.864024
   12       28.727754
 
 -0.4444444E+00  0.1666667E+00  0.0000000E+00  0.1543210E-02
    1       -7.511095
    2       -0.721401
    3        1.677785
    4        2.866328
    5        3.257498
    6        7.347693
    7        8.755559
    8       12.284425
    9       15.926409
   10       19.189908
   11       23.827166
   12       28.576481
 
 -0.3888889E+00  0.1666667E+00  0.0000000E+00  0.1543210E-02
    1       -8.423107
    2        0.801690
    3        1.709571
    4        2.379683
    5        2.715270
    6        8.350804
    7        9.073933
    8       13.635819
    9       16.560802
   10       19.626869
   11       21.928482
   12       28.295876
 
 -0.3333333E+00  0.1666667E+00  0.0000000E+00  0.1543210E-02
    1       -9.194500
    2        1.281574
    3        1.589262
    4        2.194586
    5        3.429974
    6        9.174603
    7        9.548594
    8       14.887480
    9       17.417136
   10       20.031049
   11       20.452926
   12       27.622541
 
 -0.2777778E+00  0.1666667E+00  0.0000000E+00  0.1543210E-02
    1       -9.817100
    2        0.863400
    3        0.930417
    4        3.232273
    5        4.656762
    6        9.602112
    7       10.260056
    8       15.959742
    9       18.356415
   10       18.973067
   11       20.956839
   12       26.664849
 
 -0.2222222E+00  0.1666667E+00  0.0000000E+00  0.1543210E-02
    1      -10.286582
    2        0.424458
    3        0.528794
    4        4.138030
    5        5.894733
    6        9.866891
    7       10.839122
    8       16.883499
    9       18.312357
   10       19.108536
   11       21.715804
   12       24.722448
 
 -0.1666667E+00  0.1666667E+00  0.0000000E+00  0.7716049E-03
    1      -10.600606
    2        0.082291
    3        0.300764
    4        5.016100
    5        6.653668
    6       10.141664
    7       11.113169
    8       17.670853
    9       18.389373
   10       19.476860
   11       22.153555
   12       22.985390
 
  0.2222222E+00  0.2222222E+00  0.0000000E+00  0.7716049E-03
    1       -7.582262
    2       -0.015248
    3        0.990458
    4        2.763893
    5        3.194766
    6        7.909768
    7        8.247974
    8       12.767948
    9       15.402260
   10       21.296498
   11       21.463046
   12       28.508582
 
  0.2777778E+00  0.2222222E+00  0.0000000E+00  0.1543210E-02
    1       -6.615764
    2       -1.238324
    3        0.353070
    4        3.424203
    5        4.044292
    6        7.049314
    7        7.853192
    8       11.796189
    9       14.561541
   10       21.027256
   11       23.371008
   12       28.685536
 
  0.3333333E+00  0.2222222E+00  0.0000000E+00  0.1543210E-02
    1       -5.570206
    2       -2.557210
    3        0.052569
    4        4.224484
    5        4.772370
    6        6.067451
    7        7.673587
    8       10.926591
    9       14.094110
   10       20.814514
   11       25.480249
   12       28.834024
 
  0.3888889E+00  0.2222222E+00  0.0000000E+00  0.1543210E-02
    1       -4.857324
    2       -3.373567
    3       -0.039939
    4        5.085267
    5        5.111771
    6        5.117270
    7        7.613978
    8       10.548097
    9       13.951342
   10       20.744069
   11       27.275715
   12       27.966036
 
  0.4444444E+00  0.2222222E+00  0.0000000E+00  0.1543210E-02
    1       -5.574520
    2       -2.554995
    3        0.053406
    4        4.222175
    5        4.773986
    6        6.072868
    7        7.671549
    8       10.910430
    9       14.106042
   10       20.817284
   11       25.532542
   12       28.854265
 
  0.5000000E+00  0.2222222E+00  0.0000000E+00  0.1543210E-02
    1       -6.620348
    2       -1.241227
    3        0.357458
    4        3.423751
    5        4.045945
    6        7.057405
    7        7.848197
    8       11.764203
    9       14.586396
   10       21.032316
   11       23.423315
   12       28.722523
 
 -0.4444444E+00  0.2222222E+00  0.0000000E+00  0.1543210E-02
    1       -7.586509
    2       -0.031307
    3        1.003604
    4        2.767510
    5        3.195832
    6        7.920914
    7        8.240020
    8       12.723724
    9       15.436953
   10       21.305848
   11       21.511342
   12       28.559143
 
 -0.3888889E+00  0.2222222E+00  0.0000000E+00  0.1543210E-02
    1       -8.423716
    2        0.783361
    3        1.721986
    4        2.380136
    5        2.721747
    6        8.342914
    7        9.083939
    8       13.615095
    9       16.581580
   10       19.664207
   11       21.889245
   12       28.306691
 
 -0.3333333E+00  0.2222222E+00  0.0000000E+00  0.1543210E-02
    1       -9.117475
    2        1.217961
    3        1.669098
    4        1.738122
    5        3.941654
    6        8.683638
    7        9.901277
    8       14.461250
    9       17.766166
   10       18.298992
   11       22.496311
   12       27.212333
 
 -0.2777778E+00  0.2222222E+00  0.0000000E+00  0.1543210E-02
    1       -9.661373
    2        0.959139
    3        1.096162
    4        2.429894
    5        5.168746
    6        8.990790
    7       10.519641
    8       15.308240
    9       17.515611
   10       18.684407
   11       23.188030
   12       26.188603
 
 -0.2222222E+00  0.2222222E+00  0.0000000E+00  0.7716049E-03
    1      -10.051832
    2        0.678102
    3        0.694901
    4        3.279920
    5        5.895987
    6        9.347408
    7       10.846649
    8       16.146789
    9       17.507500
   10       19.122697
   11       23.610678
   12       24.342399
 
  0.2777778E+00  0.2777778E+00  0.0000000E+00  0.7716049E-03
    1       -5.623425
    2       -1.810329
    3       -0.791925
    4        4.169003
    5        4.778852
    6        6.750309
    7        6.985702
    8       11.412865
    9       13.430460
   10       23.015116
   11       23.185843
   12       28.848193
 
  0.3333333E+00  0.2777778E+00  0.0000000E+00  0.1543210E-02
    1       -4.678716
    2       -2.663379
    3       -1.260435
    4        5.007812
    5        5.261092
    6        5.907086
    7        6.769256
    8       11.163295
    9       12.790791
   10       22.952274
   11       25.285596
   12       27.581512
 
  0.3888889E+00  0.2777778E+00  0.0000000E+00  0.1543210E-02
    1       -4.681637
    2       -2.665650
    3       -1.255609
    4        5.002397
    5        5.262944
    6        5.914194
    7        6.767722
    8       11.139728
    9       12.811573
   10       22.954342
   11       25.333633
   12       27.535418
 
  0.4444444E+00  0.2777778E+00  0.0000000E+00  0.1543210E-02
    1       -5.628338
    2       -1.825000
    3       -0.773382
    4        4.165528
    5        4.782565
    6        6.759216
    7        6.981901
    8       11.361156
    9       13.475616
   10       23.052138
   11       23.202966
   12       28.911711
 
  0.5000000E+00  0.2777778E+00  0.0000000E+00  0.1543210E-02
    1       -6.620876
    2       -1.255986
    3        0.373437
    4        3.422819
    5        4.047613
    6        7.048740
    7        7.858710
    8       11.740020
    9       14.609502
   10       21.076266
   11       23.377132
   12       28.725155
 
 -0.4444444E+00  0.2777778E+00  0.0000000E+00  0.1543210E-02
    1       -7.512325
    2       -0.740005
    3        1.698695
    4        2.864988
    5        3.259383
    6        7.339525
    7        8.767679
    8       12.248900
    9       15.961412
   10       19.229855
   11       23.783180
   12       28.578212
 
 -0.3888889E+00  0.2777778E+00  0.0000000E+00  0.1543210E-02
    1       -8.271105
    2       -0.133696
    3        2.010172
    4        2.527215
    5        3.423765
    6        7.667028
    7        9.567944
    8       12.884742
    9       17.278319
   10       17.758099
   11       24.306435
   12       27.584342
 
 -0.3333333E+00  0.2777778E+00  0.0000000E+00  0.1543210E-02
    1       -8.885672
    2        0.559819
    3        1.659034
    4        1.906154
    5        4.563841
    6        8.002788
    7       10.173116
    8       13.634868
    9       16.862024
   10       18.289984
   11       24.919036
   12       26.766683
 
 -0.2777778E+00  0.2777778E+00  0.0000000E+00  0.7716049E-03
    1       -9.350305
    2        1.055428
    3        1.424069
    4        1.665613
    5        5.230470
    6        8.409642
    7       10.504075
    8       14.467170
    9       16.758050
   10       18.763526
   11       25.399167
   12       25.741705
 
  0.3333333E+00  0.3333333E+00  0.0000000E+00  0.7716049E-03
    1       -4.226335
    2       -2.292251
    3       -2.265694
    4        5.446739
    5        5.748550
    6        5.917570
    7        5.919850
    8       11.750059
    9       11.818910
   10       24.765753
   11       25.510136
   12       25.523016
 
  0.3888889E+00  0.3333333E+00  0.0000000E+00  0.1543210E-02
    1       -4.680721
    2       -2.682771
    3       -1.239124
    4        5.001822
    5        5.266173
    6        5.907029
    7        6.776502
    8       11.102042
    9       12.845958
   10       23.003902
   11       25.280442
   12       27.539178
 
  0.4444444E+00  0.3333333E+00  0.0000000E+00  0.1543210E-02
    1       -5.574739
    2       -2.573148
    3        0.072583
    4        4.220503
    5        4.779153
    6        6.065220
    7        7.682533
    8       10.867074
    9       14.144761
   10       20.863129
   11       25.481561
   12       28.899269
 
  0.5000000E+00  0.3333333E+00  0.0000000E+00  0.1543210E-02
    1       -6.481513
    2       -2.228906
    3        1.450080
    4        3.543203
    5        4.126330
    6        6.313810
    7        8.546916
    8       10.992146
    9       15.563645
   10       18.934193
   11       25.815223
   12       28.735623
 
 -0.4444444E+00  0.3333333E+00  0.0000000E+00  0.1543210E-02
    1       -7.289631
    2       -1.718644
    3        2.507004
    4        3.240399
    5        3.441749
    6        6.624084
    7        9.301892
    8       11.393716
    9       16.919234
   10       17.368267
   11       26.263393
   12       27.817668
 
 -0.3888889E+00  0.3333333E+00  0.0000000E+00  0.1543210E-02
    1       -7.967045
    2       -1.065847
    3        2.276788
    4        2.813677
    5        4.103577
    6        6.968029
    7        9.867283
    8       12.005171
    9       16.368831
   10       17.964946
   11       26.731681
   12       27.138035
 
 -0.3333333E+00  0.3333333E+00  0.0000000E+00  0.7716049E-03
    1       -8.501301
    2       -0.291521
    3        1.911421
    4        2.292647
    5        4.690565
    6        7.396597
    7       10.170122
    8       12.773301
    9       16.168747
   10       18.442416
   11       26.593513
   12       27.373879
 
  0.3888889E+00  0.3888889E+00  0.0000000E+00  0.7716049E-03
    1       -4.855843
    2       -3.394262
    3       -0.020209
    4        5.093650
    5        5.103051
    6        5.117849
    7        7.624387
    8       10.492369
    9       13.998431
   10       20.791495
   11       27.233117
   12       27.962869
 
  0.4444444E+00  0.3888889E+00  0.0000000E+00  0.1543210E-02
    1       -5.448121
    2       -3.501028
    3        1.304158
    4        4.383268
    5        4.742317
    6        5.317777
    7        8.432774
    8       10.162932
    9       15.369824
   10       18.785426
   11       27.783826
   12       28.831988
 
  0.5000000E+00  0.3888889E+00  0.0000000E+00  0.1543210E-02
    1       -6.214288
    2       -3.171241
    3        2.544783
    4        3.776665
    5        4.255827
    6        5.602407
    7        9.132156
    8       10.210671
    9       16.700220
   10       17.133872
   11       27.930256
   12       28.259342
 
 -0.4444444E+00  0.3888889E+00  0.0000000E+00  0.1543210E-02
    1       -6.924266
    2       -2.619012
    3        3.000243
    4        3.721683
    5        3.825168
    6        5.936166
    7        9.644498
    8       10.583954
    9       16.040520
   10       17.735483
   11       27.227809
   12       28.682993
 
 -0.3888889E+00  0.3888889E+00  0.0000000E+00  0.7716049E-03
    1       -7.515298
    2       -1.906947
    3        2.619985
    4        3.222702
    5        4.294556
    6        6.361846
    7        9.900735
    8       11.206468
    9       15.748265
   10       18.191870
   11       26.901574
   12       28.678308
 
  0.4444444E+00  0.4444444E+00  0.0000000E+00  0.7716049E-03
    1       -5.447432
    2       -4.065034
    3        2.499145
    4        4.586176
    5        4.620679
    6        4.686837
    7        9.074030
    8        9.719239
    9       16.626675
   10       17.055715
   11       27.978668
   12       28.785654
 
  0.5000000E+00  0.4444444E+00  0.0000000E+00  0.1543210E-02
    1       -5.867818
    2       -3.935730
    3        3.447046
    4        4.061811
    5        4.381551
    6        4.954267
    7        9.528200
    8        9.658579
    9       15.876794
   10       17.617144
   11       27.321503
   12       28.734811
 
 -0.4444444E+00  0.4444444E+00  0.0000000E+00  0.7716049E-03
    1       -6.432574
    2       -3.380617
    3        3.430505
    4        4.053810
    5        4.057189
    6        5.350511
    7        9.727892
    8        9.972479
    9       15.497072
   10       18.033503
   11       27.050683
   12       28.711936
 
  0.5000000E+00  0.5000000E+00  0.0000000E+00  0.3858025E-03
    1       -5.653991
    2       -4.290166
    3        3.972917
    4        4.164108
    5        4.434754
    6        4.548176
    7        9.458747
    8        9.668769
    9       15.413580
   10       17.979397
   11       27.096984
   12       28.727763
 