 running on    6 total cores
 distrk:  each k-point on    6 cores,    1 groups
 distr:  one band on    3 cores,    2 groups
 using from now: INCAR     
 vasp.5.3.5 31Mar14 (build Nov 02 2014 15:17:37) complex                        
  
 POSCAR found type information on POSCAR  C 
 POSCAR found :  1 types and       4 ions
 scaLAPACK will be used
 LDA part: xc-table for Pade appr. of Perdew
 POSCAR, INCAR and KPOINTS ok, starting setup
 WARNING: small aliasing (wrap around) errors must be expected
 FFT: planning ...
 WAVECAR not read
 WARNING: random wavefunctions but no delay for mixing, default for NELMDL
 entering main loop
       N       E                     dE             d eps       ncg     rms          rms(c)
DAV:   1     0.390453329558E+02    0.39045E+02   -0.97604E+03 10956   0.149E+03
DAV:   2    -0.246982979347E+02   -0.63744E+02   -0.56966E+02 14352   0.232E+02
DAV:   3    -0.268311817860E+02   -0.21329E+01   -0.20818E+01 14164   0.392E+01
DAV:   4    -0.268479011616E+02   -0.16719E-01   -0.16919E-01 13148   0.358E+00
DAV:   5    -0.268481515394E+02   -0.25038E-03   -0.25954E-03 14308   0.348E-01    0.768E+00
DAV:   6    -0.256689294798E+02    0.11792E+01   -0.71495E-01 11380   0.762E+00    0.411E+00
DAV:   7    -0.252643478553E+02    0.40458E+00   -0.77368E-01 11568   0.803E+00    0.424E-01
DAV:   8    -0.252653498475E+02   -0.10020E-02   -0.89260E-03 13896   0.958E-01    0.195E-01
DAV:   9    -0.252653404953E+02    0.93523E-05   -0.42576E-04 12376   0.233E-01    0.179E-02
DAV:  10    -0.252653324921E+02    0.80032E-05   -0.52652E-06 14616   0.246E-02    0.775E-03
DAV:  11    -0.252653324780E+02    0.14074E-07   -0.17850E-06  8728   0.164E-02
   1 F= -.26261195E+02 E0= -.26261195E+02  d E =-.262612E+02
 curvature:   0.00 expect dE= 0.000E+00 dE for cont linesearch  0.000E+00
 trial: gam= 0.00000 g(F)=  0.765E-04 g(S)=  0.000E+00 ort = 0.000E+00 (trialstep = 0.100E+01)
 search vector abs. value=  0.765E-04
 reached required accuracy - stopping structural energy minimisation
