  32  32   0   0
  0.5760957E+01  0.4934311E-09  0.4934311E-09  0.8743465E-09  0.5000000E-15
  1.000000000000000E-004
  CAR 
 graphite                                
     21.14929611    -14.07624329  301      9.72225794      1.00000000
    -14.076  0.0000E+00  0.0000E+00
    -13.959  0.0000E+00  0.0000E+00
    -13.841  0.0000E+00  0.0000E+00
    -13.724  0.0000E+00  0.0000E+00
    -13.607  0.0000E+00  0.0000E+00
    -13.489  0.0000E+00  0.0000E+00
    -13.372  0.0000E+00  0.0000E+00
    -13.254  0.0000E+00  0.0000E+00
    -13.137  0.0000E+00  0.0000E+00
    -13.019  0.0000E+00  0.0000E+00
    -12.902  0.0000E+00  0.0000E+00
    -12.785  0.0000E+00  0.0000E+00
    -12.667  0.0000E+00  0.0000E+00
    -12.550  0.0000E+00  0.0000E+00
    -12.432  0.0000E+00  0.0000E+00
    -12.315  0.0000E+00  0.0000E+00
    -12.198  0.0000E+00  0.0000E+00
    -12.080  0.0000E+00  0.0000E+00
    -11.963  0.5821E+00  0.2857E-01
    -11.845  0.8490E+00  0.1111E+00
    -11.728  0.1083E+01  0.2265E+00
    -11.610  0.1266E+01  0.3645E+00
    -11.493  0.1440E+01  0.5244E+00
    -11.376  0.1574E+01  0.7008E+00
    -11.258  0.1736E+01  0.8949E+00
    -11.141  0.1875E+01  0.1107E+01
    -11.023  0.1976E+01  0.1333E+01
    -10.906  0.2092E+01  0.1572E+01
    -10.789  0.2311E+01  0.1828E+01
    -10.671  0.2448E+01  0.2110E+01
    -10.554  0.2793E+01  0.2410E+01
    -10.436  0.2591E+01  0.2733E+01
    -10.319  0.2843E+01  0.3046E+01
    -10.201  0.2874E+01  0.3392E+01
    -10.084  0.2273E+01  0.3699E+01
     -9.967  0.2580E+01  0.3968E+01
     -9.849  0.2929E+01  0.4340E+01
     -9.732  0.3048E+01  0.4679E+01
     -9.614  0.3349E+01  0.5066E+01
     -9.497  0.3429E+01  0.5457E+01
     -9.380  0.3468E+01  0.5869E+01
     -9.262  0.3297E+01  0.6266E+01
     -9.145  0.4351E+01  0.6784E+01
     -9.027  0.3449E+01  0.7232E+01
     -8.910  0.3349E+01  0.7625E+01
     -8.792  0.3628E+01  0.8034E+01
     -8.675  0.3528E+01  0.8462E+01
     -8.558  0.4219E+01  0.8905E+01
     -8.440  0.4789E+01  0.9437E+01
     -8.323  0.5102E+01  0.1001E+02
     -8.205  0.5090E+01  0.1062E+02
     -8.088  0.4887E+01  0.1120E+02
     -7.970  0.4113E+01  0.1172E+02
     -7.853  0.5083E+01  0.1228E+02
     -7.736  0.4977E+01  0.1289E+02
     -7.618  0.4384E+01  0.1343E+02
     -7.501  0.5265E+01  0.1399E+02
     -7.383  0.5756E+01  0.1465E+02
     -7.266  0.5225E+01  0.1530E+02
     -7.149  0.6209E+01  0.1600E+02
     -7.031  0.4611E+01  0.1663E+02
     -6.914  0.4499E+01  0.1716E+02
     -6.796  0.4366E+01  0.1768E+02
     -6.679  0.4639E+01  0.1820E+02
     -6.561  0.6189E+01  0.1882E+02
     -6.444  0.6661E+01  0.1957E+02
     -6.327  0.6704E+01  0.2037E+02
     -6.209  0.6640E+01  0.2114E+02
     -6.092  0.5464E+01  0.2185E+02
     -5.974  0.4256E+01  0.2242E+02
     -5.857  0.3014E+01  0.2285E+02
     -5.740  0.3499E+01  0.2320E+02
     -5.622  0.4610E+01  0.2367E+02
     -5.505  0.6623E+01  0.2435E+02
     -5.387  0.6805E+01  0.2519E+02
     -5.270  0.5489E+01  0.2590E+02
     -5.152  0.5795E+01  0.2655E+02
     -5.035  0.6500E+01  0.2726E+02
     -4.918  0.3439E+01  0.2786E+02
     -4.800  0.3316E+01  0.2823E+02
     -4.683  0.7278E+01  0.2887E+02
     -4.565  0.6011E+01  0.2969E+02
     -4.448  0.3639E+01  0.3021E+02
     -4.331  0.2818E+01  0.3059E+02
     -4.213  0.2427E+01  0.3089E+02
     -4.096  0.3258E+01  0.3124E+02
     -3.978  0.4026E+01  0.3166E+02
     -3.861  0.5146E+01  0.3220E+02
     -3.743  0.5271E+01  0.3285E+02
     -3.626  0.4348E+01  0.3339E+02
     -3.509  0.3879E+01  0.3389E+02
     -3.391  0.4481E+01  0.3437E+02
     -3.274  0.6823E+01  0.3500E+02
     -3.156  0.8010E+01  0.3588E+02
     -3.039  0.7340E+01  0.3683E+02
     -2.921  0.5253E+01  0.3751E+02
     -2.804  0.5209E+01  0.3812E+02
     -2.687  0.5613E+01  0.3874E+02
     -2.569  0.6008E+01  0.3943E+02
     -2.452  0.5714E+01  0.4012E+02
     -2.334  0.5662E+01  0.4080E+02
     -2.217  0.5313E+01  0.4144E+02
     -2.100  0.5809E+01  0.4208E+02
     -1.982  0.6623E+01  0.4281E+02
     -1.865  0.4888E+01  0.4357E+02
     -1.747  0.4095E+01  0.4407E+02
     -1.630  0.4442E+01  0.4456E+02
     -1.512  0.4597E+01  0.4508E+02
     -1.395  0.5299E+01  0.4566E+02
     -1.278  0.6047E+01  0.4632E+02
     -1.160  0.7774E+01  0.4712E+02
     -1.043  0.7424E+01  0.4802E+02
     -0.925  0.6275E+01  0.4879E+02
     -0.808  0.5916E+01  0.4951E+02
     -0.691  0.6111E+01  0.5019E+02
     -0.573  0.6777E+01  0.5106E+02
     -0.456  0.7519E+01  0.5191E+02
     -0.338  0.6615E+01  0.5271E+02
     -0.221  0.6287E+01  0.5347E+02
     -0.103  0.6315E+01  0.5421E+02
      0.014  0.7440E+01  0.5500E+02
      0.131  0.8360E+01  0.5597E+02
      0.249  0.6365E+01  0.5689E+02
      0.366  0.6721E+01  0.5764E+02
      0.484  0.7656E+01  0.5858E+02
      0.601  0.5943E+01  0.5932E+02
      0.718  0.1099E+02  0.6021E+02
      0.836  0.8764E+01  0.6134E+02
      0.953  0.7732E+01  0.6231E+02
      1.071  0.7118E+01  0.6314E+02
      1.188  0.8109E+01  0.6406E+02
      1.306  0.8408E+01  0.6504E+02
      1.423  0.8818E+01  0.6603E+02
      1.540  0.9555E+01  0.6715E+02
      1.658  0.8597E+01  0.6814E+02
      1.775  0.9154E+01  0.6920E+02
      1.893  0.9981E+01  0.7034E+02
      2.010  0.1142E+02  0.7162E+02
      2.128  0.1100E+02  0.7305E+02
      2.245  0.9795E+01  0.7422E+02
      2.362  0.9609E+01  0.7534E+02
      2.480  0.1155E+02  0.7664E+02
      2.597  0.9800E+01  0.7789E+02
      2.715  0.1072E+02  0.7900E+02
      2.832  0.1171E+02  0.8025E+02
      2.949  0.1403E+02  0.8179E+02
      3.067  0.1290E+02  0.8345E+02
      3.184  0.1165E+02  0.8490E+02
      3.302  0.1006E+02  0.8614E+02
      3.419  0.9827E+01  0.8727E+02
      3.537  0.1316E+02  0.8859E+02
      3.654  0.1103E+02  0.8999E+02
      3.771  0.1210E+02  0.9142E+02
      3.889  0.1089E+02  0.9278E+02
      4.006  0.1005E+02  0.9400E+02
      4.124  0.8502E+01  0.9510E+02
      4.241  0.8590E+01  0.9609E+02
      4.358  0.8579E+01  0.9711E+02
      4.476  0.1098E+02  0.9827E+02
      4.593  0.9574E+01  0.9949E+02
      4.711  0.7965E+01  0.1005E+03
      4.828  0.7534E+01  0.1015E+03
      4.946  0.7106E+01  0.1023E+03
      5.063  0.6865E+01  0.1031E+03
      5.180  0.7258E+01  0.1040E+03
      5.298  0.7711E+01  0.1048E+03
      5.415  0.7534E+01  0.1057E+03
      5.533  0.7247E+01  0.1066E+03
      5.650  0.7248E+01  0.1074E+03
      5.767  0.7501E+01  0.1083E+03
      5.885  0.6937E+01  0.1092E+03
      6.002  0.5612E+01  0.1099E+03
      6.120  0.4844E+01  0.1105E+03
      6.237  0.4666E+01  0.1111E+03
      6.355  0.4464E+01  0.1116E+03
      6.472  0.4088E+01  0.1121E+03
      6.589  0.3492E+01  0.1125E+03
      6.707  0.3802E+01  0.1130E+03
      6.824  0.3673E+01  0.1134E+03
      6.942  0.3588E+01  0.1138E+03
      7.059  0.3846E+01  0.1143E+03
      7.176  0.4109E+01  0.1147E+03
      7.294  0.4009E+01  0.1152E+03
      7.411  0.3734E+01  0.1157E+03
      7.529  0.3175E+01  0.1161E+03
      7.646  0.3538E+01  0.1165E+03
      7.764  0.4515E+01  0.1170E+03
      7.881  0.5181E+01  0.1176E+03
      7.998  0.6284E+01  0.1182E+03
      8.116  0.7583E+01  0.1190E+03
      8.233  0.6526E+01  0.1198E+03
      8.351  0.7723E+01  0.1206E+03
      8.468  0.5771E+01  0.1214E+03
      8.586  0.5178E+01  0.1220E+03
      8.703  0.5127E+01  0.1226E+03
      8.820  0.6407E+01  0.1233E+03
      8.938  0.5883E+01  0.1240E+03
      9.055  0.5560E+01  0.1247E+03
      9.173  0.5124E+01  0.1253E+03
      9.290  0.5073E+01  0.1259E+03
      9.407  0.6032E+01  0.1265E+03
      9.525  0.5760E+01  0.1272E+03
      9.642  0.3887E+01  0.1278E+03
      9.760  0.1787E+01  0.1281E+03
      9.877  0.1208E+01  0.1282E+03
      9.995  0.1217E+01  0.1284E+03
     10.112  0.1253E+01  0.1285E+03
     10.229  0.1433E+01  0.1287E+03
     10.347  0.1697E+01  0.1289E+03
     10.464  0.1998E+01  0.1291E+03
     10.582  0.2247E+01  0.1293E+03
     10.699  0.2173E+01  0.1296E+03
     10.816  0.1992E+01  0.1298E+03
     10.934  0.2029E+01  0.1301E+03
     11.051  0.2121E+01  0.1303E+03
     11.169  0.2282E+01  0.1306E+03
     11.286  0.5682E+01  0.1310E+03
     11.404  0.6453E+01  0.1318E+03
     11.521  0.5809E+01  0.1325E+03
     11.638  0.5681E+01  0.1332E+03
     11.756  0.6363E+01  0.1339E+03
     11.873  0.4539E+01  0.1346E+03
     11.991  0.4287E+01  0.1351E+03
     12.108  0.5406E+01  0.1356E+03
     12.225  0.6217E+01  0.1363E+03
     12.343  0.5134E+01  0.1370E+03
     12.460  0.4340E+01  0.1376E+03
     12.578  0.4417E+01  0.1381E+03
     12.695  0.3800E+01  0.1385E+03
     12.813  0.4247E+01  0.1390E+03
     12.930  0.4845E+01  0.1395E+03
     13.047  0.5812E+01  0.1402E+03
     13.165  0.5201E+01  0.1408E+03
     13.282  0.4973E+01  0.1414E+03
     13.400  0.4367E+01  0.1420E+03
     13.517  0.3429E+01  0.1424E+03
     13.635  0.3227E+01  0.1428E+03
     13.752  0.3259E+01  0.1432E+03
     13.869  0.3375E+01  0.1436E+03
     13.987  0.3527E+01  0.1440E+03
     14.104  0.4022E+01  0.1444E+03
     14.222  0.4657E+01  0.1449E+03
     14.339  0.4624E+01  0.1455E+03
     14.456  0.4819E+01  0.1460E+03
     14.574  0.5436E+01  0.1466E+03
     14.691  0.6026E+01  0.1473E+03
     14.809  0.6537E+01  0.1480E+03
     14.926  0.5527E+01  0.1487E+03
     15.044  0.4980E+01  0.1493E+03
     15.161  0.5137E+01  0.1499E+03
     15.278  0.5823E+01  0.1506E+03
     15.396  0.5862E+01  0.1512E+03
     15.513  0.4995E+01  0.1519E+03
     15.631  0.4640E+01  0.1524E+03
     15.748  0.5445E+01  0.1530E+03
     15.865  0.6046E+01  0.1537E+03
     15.983  0.6788E+01  0.1545E+03
     16.100  0.7451E+01  0.1553E+03
     16.218  0.6396E+01  0.1562E+03
     16.335  0.5898E+01  0.1569E+03
     16.453  0.5135E+01  0.1576E+03
     16.570  0.6179E+01  0.1582E+03
     16.687  0.8146E+01  0.1591E+03
     16.805  0.6842E+01  0.1600E+03
     16.922  0.5749E+01  0.1607E+03
     17.040  0.6286E+01  0.1614E+03
     17.157  0.1040E+02  0.1624E+03
     17.274  0.4694E+01  0.1632E+03
     17.392  0.4228E+01  0.1637E+03
     17.509  0.4172E+01  0.1643E+03
     17.627  0.3854E+01  0.1647E+03
     17.744  0.3986E+01  0.1652E+03
     17.862  0.4394E+01  0.1657E+03
     17.979  0.5328E+01  0.1662E+03
     18.096  0.4446E+01  0.1668E+03
     18.214  0.3144E+01  0.1672E+03
     18.331  0.2177E+01  0.1676E+03
     18.449  0.1239E+01  0.1678E+03
     18.566  0.6244E+00  0.1679E+03
     18.684  0.3893E+00  0.1679E+03
     18.801  0.2474E+00  0.1680E+03
     18.918  0.1258E+00  0.1680E+03
     19.036  0.2925E-01  0.1680E+03
     19.153  0.0000E+00  0.1680E+03
     19.271  0.0000E+00  0.1680E+03
     19.388  0.0000E+00  0.1680E+03
     19.505  0.0000E+00  0.1680E+03
     19.623  0.0000E+00  0.1680E+03
     19.740  0.0000E+00  0.1680E+03
     19.858  0.0000E+00  0.1680E+03
     19.975  0.0000E+00  0.1680E+03
     20.093  0.0000E+00  0.1680E+03
     20.210  0.0000E+00  0.1680E+03
     20.327  0.0000E+00  0.1680E+03
     20.445  0.0000E+00  0.1680E+03
     20.562  0.0000E+00  0.1680E+03
     20.680  0.0000E+00  0.1680E+03
     20.797  0.0000E+00  0.1680E+03
     20.914  0.0000E+00  0.1680E+03
     21.032  0.0000E+00  0.1680E+03
     21.149  0.0000E+00  0.1680E+03
