   32   32    1    1
  0.5760957E+01  0.4934311E-09  0.4934311E-09  0.8743465E-09  0.5000000E-15
  1.000000000000000E-004
  CAR 
 graphite                                
    128    163     84
 
  0.0000000E+00  0.0000000E+00  0.0000000E+00  0.3086420E-02
    1      -12.076243
    2      -10.669321
    3      -10.664223
    4       -8.155546
    5       -6.400447
    6       -6.399445
    7       -6.398839
    8       -5.578910
    9       -5.577611
   10       -5.575459
   11       -5.250391
   12       -5.245118
   13       -5.244167
   14       -5.243646
   15       -5.242232
   16       -5.236785
   17       -4.202342
   18       -4.199837
   19       -4.197714
   20       -4.197635
   21       -4.194733
   22       -4.192849
   23       -2.912639
   24       -2.911534
   25       -2.910467
   26       -2.644994
   27       -2.643668
   28       -2.642206
   29       -2.173179
   30        2.254125
   31        2.256869
   32        2.258095
   33        2.937719
   34        2.939718
   35        2.942241
   36        2.942981
   37        2.944156
   38        2.945911
   39        2.946317
   40        2.949260
   41        3.730535
   42        3.733578
   43        3.735251
   44        3.779167
   45        3.779789
   46        3.780501
   47        6.037478
   48        6.042193
   49        6.360276
   50        6.365192
   51        6.370173
   52        6.374547
   53        6.518506
   54        6.521597
   55        6.522493
   56        6.682710
   57        6.688974
   58        7.659749
   59        7.672538
   60        7.672857
   61        7.674070
   62        7.674599
   63        7.687363
   64        8.528372
   65       11.174060
   66       11.186262
   67       11.187293
   68       11.188838
   69       11.189422
   70       11.201757
   71       13.556381
   72       13.558499
   73       13.560499
   74       14.537188
   75       14.542078
   76       14.545488
   77       14.682937
   78       14.684858
   79       14.687293
   80       16.702821
   81       16.709419
   82       16.711377
   83       16.714053
   84       16.720133
 
  0.1111111E+00 -0.1387779E-16  0.0000000E+00  0.6172840E-02
    1      -11.998846
    2      -10.593879
    3      -10.588789
    4       -8.088047
    5       -7.280291
    6       -6.685052
    7       -6.683015
    8       -6.032033
    9       -6.027508
   10       -5.482121
   11       -5.477635
   12       -5.475736
   13       -5.473830
   14       -5.181832
   15       -5.178455
   16       -4.710991
   17       -3.842729
   18       -3.840789
   19       -3.838508
   20       -3.835757
   21       -3.703671
   22       -3.303624
   23       -3.299075
   24       -3.268055
   25       -3.265661
   26       -2.166164
   27       -2.163820
   28       -2.081864
   29       -1.620160
   30        1.990316
   31        1.993201
   32        2.332706
   33        2.695350
   34        2.699079
   35        2.701239
   36        2.702462
   37        3.015203
   38        3.015410
   39        3.019734
   40        3.022703
   41        3.172303
   42        3.541075
   43        3.544279
   44        3.660642
   45        3.662050
   46        3.803586
   47        5.659625
   48        5.830883
   49        6.054786
   50        6.062205
   51        6.206452
   52        6.214358
   53        6.455562
   54        6.591794
   55        6.779241
   56        6.782738
   57        7.212013
   58        7.298542
   59        7.307983
   60        7.619945
   61        7.630241
   62        7.631807
   63        7.638598
   64        8.588686
   65       11.307755
   66       11.314742
   67       11.317116
   68       11.327087
   69       11.619422
   70       11.629393
   71       13.153890
   72       13.224843
   73       13.227113
   74       14.601181
   75       14.830190
   76       14.833701
   77       14.930708
   78       14.937014
   79       15.190245
   80       16.795967
   81       16.800992
   82       17.029342
   83       17.035478
   84       17.041277
 
  0.2222222E+00 -0.1387779E-16  0.0000000E+00  0.6172840E-02
    1      -11.766885
    2      -10.367926
    3      -10.362859
    4       -8.359743
    5       -7.886120
    6       -7.070314
    7       -7.067495
    8       -7.063267
    9       -7.059090
   10       -5.831098
   11       -5.827422
   12       -5.825286
   13       -5.823106
   14       -4.975307
   15       -4.523428
   16       -4.518845
   17       -3.527143
   18       -3.524531
   19       -3.126983
   20       -3.124880
   21       -3.122713
   22       -3.119679
   23       -2.956929
   24       -1.942730
   25       -1.938269
   26       -1.809101
   27       -1.501292
   28       -1.498695
   29       -0.378943
   30        1.310830
   31        1.313400
   32        2.046257
   33        2.050604
   34        2.052220
   35        2.053945
   36        2.088824
   37        2.557013
   38        3.020402
   39        3.023440
   40        3.231355
   41        3.235788
   42        3.240212
   43        3.247134
   44        3.416574
   45        3.418577
   46        4.008738
   47        4.670479
   48        5.219155
   49        5.225674
   50        5.314457
   51        5.782587
   52        5.786235
   53        5.792345
   54        6.285806
   55        6.515278
   56        6.523625
   57        7.445310
   58        7.449091
   59        7.521405
   60        7.531529
   61        7.532986
   62        7.539995
   63        8.466331
   64        8.765565
   65       11.616562
   66       11.623831
   67       11.626556
   68       11.636804
   69       12.481188
   70       12.483963
   71       12.588554
   72       12.597868
   73       12.654182
   74       14.780819
   75       15.030742
   76       15.035192
   77       16.003334
   78       16.009279
   79       16.076855
   80       16.895683
   81       17.059407
   82       17.063968
   83       17.084445
   84       17.091923
 
  0.3333333E+00 -0.2775558E-16  0.0000000E+00  0.6172840E-02
    1      -11.381437
    2       -9.992645
    3       -9.987618
    4       -9.326934
    5       -7.998571
    6       -7.993753
    7       -7.550792
    8       -7.346434
    9       -7.344312
   10       -6.092177
   11       -6.088837
   12       -6.086580
   13       -6.084334
   14       -5.776007
   15       -4.215923
   16       -4.211771
   17       -3.192118
   18       -3.190010
   19       -2.291025
   20       -2.288896
   21       -2.286848
   22       -2.283521
   23       -1.453036
   24       -1.356826
   25       -0.908969
   26       -0.905963
   27       -0.478134
   28       -0.473754
   29        0.548605
   30        0.550723
   31        0.928220
   32        1.017076
   33        1.180382
   34        1.184397
   35        1.185309
   36        1.187580
   37        2.286617
   38        2.289403
   39        2.922880
   40        3.196227
   41        3.198567
   42        3.309199
   43        3.522840
   44        3.528262
   45        3.582476
   46        3.587417
   47        4.112851
   48        4.118209
   49        4.339722
   50        4.668500
   51        4.782484
   52        5.214125
   53        5.220681
   54        5.668054
   55        5.675877
   56        5.818623
   57        7.421104
   58        7.431288
   59        7.432657
   60        7.439651
   61        8.348286
   62        8.351977
   63        9.042372
   64        9.451588
   65       11.534674
   66       11.537892
   67       11.953581
   68       11.961136
   69       11.963990
   70       11.974737
   71       12.672066
   72       13.698828
   73       13.707373
   74       15.073938
   75       15.146322
   76       15.151553
   77       16.446997
   78       16.488625
   79       16.495451
   80       16.619180
   81       17.058284
   82       17.498486
   83       17.512262
   84       17.547130
 
  0.4444444E+00 -0.2775558E-16  0.0000000E+00  0.6172840E-02
    1      -10.844071
    2      -10.157708
    3       -9.470212
    4       -9.465236
    5       -8.803605
    6       -8.798698
    7       -7.488487
    8       -7.486387
    9       -7.084096
   10       -6.489912
   11       -6.227559
   12       -6.224359
   13       -6.222046
   14       -6.219763
   15       -4.246728
   16       -4.243534
   17       -2.406401
   18       -2.404198
   19       -1.520437
   20       -1.518940
   21       -1.517050
   22       -1.512664
   23       -1.082714
   24       -1.079711
   25       -0.729055
   26        0.067020
   27        0.145332
   28        0.367932
   29        0.371902
   30        0.373430
   31        0.375182
   32        0.569100
   33        0.571240
   34        1.030437
   35        1.034912
   36        1.500259
   37        1.502733
   38        1.760181
   39        2.262086
   40        2.515885
   41        2.520600
   42        3.073524
   43        3.075893
   44        3.416071
   45        3.571489
   46        4.011604
   47        4.052033
   48        4.057678
   49        4.236777
   50        4.244199
   51        4.611682
   52        4.617447
   53        4.777448
   54        4.888440
   55        4.896019
   56        5.288510
   57        7.361038
   58        7.371120
   59        7.372458
   60        7.379512
   61        9.373000
   62        9.375894
   63        9.378183
   64        9.641379
   65       10.486700
   66       10.490233
   67       12.170133
   68       12.177914
   69       12.180757
   70       12.191712
   71       13.636926
   72       14.765944
   73       14.774106
   74       15.119008
   75       15.189808
   76       15.195451
   77       15.468883
   78       15.705917
   79       15.713356
   80       15.942043
   81       18.084800
   82       18.089541
   83       18.094743
   84       18.728705
 
  0.1694066E-20  0.1111111E+00  0.0000000E+00  0.6172840E-02
    1      -11.998844
    2      -10.593877
    3      -10.588786
    4       -8.088043
    5       -7.280277
    6       -6.685801
    7       -6.682191
    8       -6.032135
    9       -6.027631
   10       -5.481881
   11       -5.477818
   12       -5.476587
   13       -5.472195
   14       -5.182028
   15       -5.178438
   16       -4.711522
   17       -3.844978
   18       -3.841088
   19       -3.839384
   20       -3.835267
   21       -3.701928
   22       -3.301955
   23       -3.298084
   24       -3.269610
   25       -3.265469
   26       -2.167977
   27       -2.163340
   28       -2.081869
   29       -1.618987
   30        1.991951
   31        1.993201
   32        2.331108
   33        2.697279
   34        2.698964
   35        2.701711
   36        2.703554
   37        3.013973
   38        3.015156
   39        3.017634
   40        3.022829
   41        3.171823
   42        3.542864
   43        3.544325
   44        3.660306
   45        3.663006
   46        3.801695
   47        5.662980
   48        5.827456
   49        6.061090
   50        6.063019
   51        6.205851
   52        6.207737
   53        6.459515
   54        6.587803
   55        6.779136
   56        6.783445
   57        7.211241
   58        7.297529
   59        7.306373
   60        7.621385
   61        7.630038
   62        7.631641
   63        7.640688
   64        8.588657
   65       11.305106
   66       11.314148
   67       11.316578
   68       11.325408
   69       11.622285
   70       11.631211
   71       13.156086
   72       13.223118
   73       13.227622
   74       14.600325
   75       14.829054
   76       14.832308
   77       14.932604
   78       14.936038
   79       15.191819
   80       16.795406
   81       16.800231
   82       17.033651
   83       17.035335
   84       17.041127
 
  0.1111111E+00  0.1111111E+00  0.0000000E+00  0.6172840E-02
    1      -11.844151
    2      -10.443140
    3      -10.438065
    4       -7.953347
    5       -7.778258
    6       -7.774796
    7       -6.507338
    8       -6.502446
    9       -6.501619
   10       -6.496744
   11       -6.198225
   12       -5.369920
   13       -5.053566
   14       -5.049613
   15       -4.579865
   16       -4.575618
   17       -4.006666
   18       -4.001571
   19       -3.536247
   20       -3.532475
   21       -2.740178
   22       -2.602456
   23       -2.596588
   24       -2.595967
   25       -2.592174
   26       -2.506235
   27       -1.899869
   28       -0.984319
   29       -0.979946
   30        1.225671
   31        1.973681
   32        1.977757
   33        2.145029
   34        2.148309
   35        2.703869
   36        2.706522
   37        2.843176
   38        2.844674
   39        2.845388
   40        2.851055
   41        2.953045
   42        3.166688
   43        3.173715
   44        3.679108
   45        3.683033
   46        4.019805
   47        5.050251
   48        5.361763
   49        5.513594
   50        5.520701
   51        5.883570
   52        5.891354
   53        6.100223
   54        6.328606
   55        6.759427
   56        6.982681
   57        6.990112
   58        6.990590
   59        6.999900
   60        7.885574
   61        7.888654
   62        7.905933
   63        7.916054
   64        8.707385
   65       11.177372
   66       11.188430
   67       12.076359
   68       12.086268
   69       12.087271
   70       12.094411
   71       12.676540
   72       12.741749
   73       12.745513
   74       14.761703
   75       15.049610
   76       15.055036
   77       15.520494
   78       15.523239
   79       15.948678
   80       17.172786
   81       17.197812
   82       17.203176
   83       17.214347
   84       17.226127
 
  0.2222222E+00  0.1111111E+00  0.0000000E+00  0.6172840E-02
    1      -11.535437
    2      -10.142526
    3      -10.137484
    4       -8.804034
    5       -8.140373
    6       -7.684717
    7       -7.492990
    8       -7.488245
    9       -6.853064
   10       -6.848391
   11       -6.271466
   12       -5.334295
   13       -5.085439
   14       -5.081222
   15       -4.790604
   16       -4.780789
   17       -3.479958
   18       -3.474981
   19       -2.945443
   20       -2.786376
   21       -2.184893
   22       -1.934919
   23       -1.793266
   24       -1.789489
   25       -1.537353
   26       -1.185495
   27       -1.181214
   28       -0.321993
   29        0.278053
   30        0.280268
   31        1.016400
   32        1.020518
   33        1.580548
   34        1.605965
   35        2.145585
   36        2.275346
   37        2.277994
   38        2.341102
   39        2.456142
   40        3.132653
   41        3.137172
   42        3.228013
   43        3.446490
   44        3.453155
   45        3.951022
   46        3.953153
   47        4.135232
   48        4.571146
   49        4.578158
   50        4.637264
   51        5.329110
   52        5.336797
   53        5.385273
   54        5.883538
   55        6.145987
   56        6.153999
   57        6.739468
   58        6.747628
   59        7.252137
   60        8.091303
   61        8.101311
   62        8.704273
   63        8.935599
   64        9.100039
   65       11.191986
   66       11.202687
   67       11.682406
   68       12.162693
   69       12.455520
   70       12.589781
   71       12.598405
   72       13.157250
   73       13.165887
   74       14.875410
   75       15.288839
   76       15.663839
   77       16.180945
   78       16.410386
   79       16.870879
   80       16.878831
   81       16.984743
   82       17.119776
   83       17.430211
   84       17.536534
 
  0.3333333E+00  0.1111111E+00  0.0000000E+00  0.6172840E-02
    1      -11.074014
    2       -9.704192
    3       -9.693362
    4       -9.688294
    5       -8.365125
    6       -8.360599
    7       -8.357105
    8       -7.283639
    9       -7.065684
   10       -7.060980
   11       -6.438597
   12       -6.098457
   13       -5.227365
   14       -5.222987
   15       -4.958271
   16       -3.956552
   17       -3.094507
   18       -2.674035
   19       -2.669105
   20       -1.902873
   21       -1.601968
   22       -0.997743
   23       -0.970655
   24       -0.966715
   25       -0.630826
   26       -0.286926
   27       -0.024745
   28        0.024030
   29        0.028253
   30        0.294036
   31        0.298274
   32        0.589931
   33        1.197110
   34        1.250097
   35        1.523663
   36        1.526620
   37        1.569270
   38        2.113574
   39        2.531206
   40        2.573072
   41        2.917522
   42        3.158698
   43        3.164087
   44        3.551295
   45        3.555961
   46        3.826061
   47        4.046651
   48        4.053875
   49        4.114462
   50        4.340458
   51        4.423564
   52        4.699792
   53        4.706713
   54        5.324678
   55        5.332350
   56        5.358629
   57        6.583138
   58        6.591158
   59        8.115406
   60        8.181520
   61        8.190872
   62        9.247631
   63        9.576006
   64        9.692729
   65       10.538362
   66       11.274429
   67       11.284336
   68       11.462146
   69       12.956829
   70       12.988832
   71       12.997486
   72       14.273984
   73       14.282358
   74       14.978622
   75       15.631304
   76       15.669547
   77       15.760738
   78       16.189009
   79       16.196991
   80       16.540970
   81       17.386490
   82       17.770352
   83       18.015503
   84       18.020330
 
  0.4444444E+00  0.1111111E+00  0.0000000E+00  0.6172840E-02
    1      -10.463908
    2      -10.460499
    3       -9.101949
    4       -9.097353
    5       -9.096341
    6       -9.091218
    7       -8.435228
    8       -7.137004
    9       -7.132291
   10       -6.755065
   11       -6.751268
   12       -6.501272
   13       -5.283620
   14       -5.279201
   15       -5.017818
   16       -3.537789
   17       -3.013467
   18       -2.154354
   19       -2.150125
   20       -1.927731
   21       -1.280799
   22       -0.556323
   23       -0.552820
   24       -0.487944
   25       -0.483264
   26       -0.394849
   27       -0.286180
   28       -0.282943
   29        0.055450
   30        0.574229
   31        0.964761
   32        0.968717
   33        1.051089
   34        1.055378
   35        1.504497
   36        1.775426
   37        1.782258
   38        1.783719
   39        1.784746
   40        2.036382
   41        2.040857
   42        2.803815
   43        2.807862
   44        3.547910
   45        3.553208
   46        4.076868
   47        4.078551
   48        4.078645
   49        4.087967
   50        4.094975
   51        4.603744
   52        4.610437
   53        4.610944
   54        4.619213
   55        4.819826
   56        4.826675
   57        6.529646
   58        6.537655
   59        8.206241
   60        8.215153
   61        8.900648
   62        9.572508
   63        9.576324
   64        9.664569
   65       10.201140
   66       10.899523
   67       11.318651
   68       11.327775
   69       13.140459
   70       13.149630
   71       14.256174
   72       14.262293
   73       15.015847
   74       15.301152
   75       15.310653
   76       15.312372
   77       15.316686
   78       15.653799
   79       16.059640
   80       16.063382
   81       18.426600
   82       18.430049
   83       18.571473
   84       18.577470
 
 -0.4444444E+00  0.1111111E+00  0.0000000E+00  0.6172840E-02
    1      -11.074097
    2       -9.704074
    3       -9.693438
    4       -9.688369
    5       -8.363901
    6       -8.361228
    7       -8.357630
    8       -7.283737
    9       -7.065958
   10       -7.061245
   11       -6.438336
   12       -6.098337
   13       -5.226990
   14       -5.222607
   15       -4.958553
   16       -3.954636
   17       -3.095892
   18       -2.672901
   19       -2.669310
   20       -1.903671
   21       -1.601859
   22       -0.997836
   23       -0.972218
   24       -0.966859
   25       -0.631156
   26       -0.287148
   27       -0.024600
   28        0.023823
   29        0.026727
   30        0.293514
   31        0.298045
   32        0.590082
   33        1.197426
   34        1.249296
   35        1.523858
   36        1.528639
   37        1.568609
   38        2.113384
   39        2.531368
   40        2.574183
   41        2.918198
   42        3.159911
   43        3.163773
   44        3.551401
   45        3.556621
   46        3.826726
   47        4.046505
   48        4.053693
   49        4.114568
   50        4.340857
   51        4.422867
   52        4.700201
   53        4.705259
   54        5.324770
   55        5.332468
   56        5.358134
   57        6.582786
   58        6.590900
   59        8.118123
   60        8.182356
   61        8.191307
   62        9.247472
   63        9.572969
   64        9.692693
   65       10.535799
   66       11.274426
   67       11.283252
   68       11.465105
   69       12.957521
   70       12.988788
   71       12.997900
   72       14.273601
   73       14.282258
   74       14.978250
   75       15.631011
   76       15.669828
   77       15.760337
   78       16.189499
   79       16.196690
   80       16.541079
   81       17.385430
   82       17.773949
   83       18.015177
   84       18.020096
 
 -0.3333333E+00  0.1111111E+00  0.0000000E+00  0.6172840E-02
    1      -11.535496
    2      -10.142586
    3      -10.137542
    4       -8.803876
    5       -8.140743
    6       -7.684769
    7       -7.492840
    8       -7.488091
    9       -6.853467
   10       -6.848790
   11       -6.270885
   12       -5.334171
   13       -5.084515
   14       -5.080350
   15       -4.790933
   16       -4.779710
   17       -3.478973
   18       -3.475596
   19       -2.946070
   20       -2.786901
   21       -2.185152
   22       -1.934554
   23       -1.794571
   24       -1.789820
   25       -1.537425
   26       -1.185879
   27       -1.181471
   28       -0.322578
   29        0.277145
   30        0.279652
   31        1.015847
   32        1.018795
   33        1.581913
   34        1.606158
   35        2.144603
   36        2.275867
   37        2.280195
   38        2.340731
   39        2.456574
   40        3.132831
   41        3.137673
   42        3.229050
   43        3.446448
   44        3.453086
   45        3.950575
   46        3.954050
   47        4.135497
   48        4.573181
   49        4.577033
   50        4.637421
   51        5.330443
   52        5.334493
   53        5.385108
   54        5.882904
   55        6.146090
   56        6.154180
   57        6.738722
   58        6.747074
   59        7.254872
   60        8.092862
   61        8.102195
   62        8.701209
   63        8.935487
   64        9.099821
   65       11.191817
   66       11.200890
   67       11.679892
   68       12.165448
   69       12.456288
   70       12.589866
   71       12.599419
   72       13.156862
   73       13.165791
   74       14.874642
   75       15.288607
   76       15.664533
   77       16.184543
   78       16.409330
   79       16.871747
   80       16.877491
   81       16.983942
   82       17.119332
   83       17.426202
   84       17.538872
 
 -0.2222222E+00  0.1111111E+00  0.0000000E+00  0.6172840E-02
    1      -11.844187
    2      -10.443175
    3      -10.438100
    4       -7.953394
    5       -7.777079
    6       -7.776343
    7       -6.506177
    8       -6.502971
    9       -6.501794
   10       -6.498120
   11       -6.197201
   12       -5.368947
   13       -5.051837
   14       -5.048298
   15       -4.579472
   16       -4.577276
   17       -4.005721
   18       -4.003300
   19       -3.535460
   20       -3.533224
   21       -2.739782
   22       -2.600750
   23       -2.598245
   24       -2.596494
   25       -2.593285
   26       -2.506814
   27       -1.899912
   28       -0.983187
   29       -0.981935
   30        1.224393
   31        1.973080
   32        1.975835
   33        2.147348
   34        2.147794
   35        2.704485
   36        2.705573
   37        2.844120
   38        2.845188
   39        2.848392
   40        2.849697
   41        2.951994
   42        3.166656
   43        3.173660
   44        3.681288
   45        3.682146
   46        4.020192
   47        5.050225
   48        5.361816
   49        5.516551
   50        5.518534
   51        5.886155
   52        5.887862
   53        6.100908
   54        6.327710
   55        6.762267
   56        6.981982
   57        6.989958
   58        6.990680
   59        6.998907
   60        7.883424
   61        7.887322
   62        7.907947
   63        7.917424
   64        8.707309
   65       11.176990
   66       11.186320
   67       12.077269
   68       12.085855
   69       12.086832
   70       12.095610
   71       12.674376
   72       12.743418
   73       12.747009
   74       14.760462
   75       15.052649
   76       15.055474
   77       15.519886
   78       15.523999
   79       15.944751
   80       17.173017
   81       17.201721
   82       17.207065
   83       17.208801
   84       17.228396
 
 -0.1111111E+00  0.1111111E+00  0.0000000E+00  0.6172840E-02
    1      -11.998855
    2      -10.593889
    3      -10.588798
    4       -8.088055
    5       -7.281033
    6       -6.684380
    7       -6.682475
    8       -6.033002
    9       -6.028500
   10       -5.479846
   11       -5.478024
   12       -5.476319
   13       -5.471562
   14       -5.181227
   15       -5.178230
   16       -4.713243
   17       -3.844103
   18       -3.841093
   19       -3.838873
   20       -3.837073
   21       -3.701438
   22       -3.302907
   23       -3.298215
   24       -3.268372
   25       -3.266057
   26       -2.167112
   27       -2.164528
   28       -2.081884
   29       -1.619252
   30        1.990486
   31        1.993349
   32        2.332597
   33        2.697067
   34        2.698348
   35        2.699162
   36        2.704431
   37        3.014609
   38        3.015833
   39        3.019191
   40        3.022625
   41        3.171265
   42        3.541244
   43        3.544843
   44        3.661205
   45        3.662739
   46        3.802873
   47        5.662745
   48        5.827658
   49        6.058403
   50        6.066186
   51        6.202781
   52        6.210264
   53        6.460171
   54        6.587146
   55        6.781833
   56        6.783376
   57        7.208360
   58        7.296067
   59        7.305372
   60        7.623381
   61        7.630000
   62        7.631393
   63        7.642105
   64        8.588631
   65       11.304040
   66       11.314465
   67       11.316627
   68       11.323426
   69       11.622716
   70       11.632961
   71       13.157994
   72       13.223607
   73       13.225860
   74       14.604060
   75       14.828126
   76       14.831018
   77       14.929838
   78       14.934917
   79       15.193346
   80       16.798212
   81       16.803549
   82       17.028345
   83       17.034685
   84       17.037847
 
  0.1694066E-20  0.2222222E+00  0.0000000E+00  0.6172840E-02
    1      -11.766876
    2      -10.367917
    3      -10.362849
    4       -8.359670
    5       -7.886114
    6       -7.071230
    7       -7.067173
    8       -7.063132
    9       -7.058625
   10       -5.831661
   11       -5.827447
   12       -5.826072
   13       -5.821531
   14       -4.975525
   15       -4.522636
   16       -4.519103
   17       -3.528479
   18       -3.524878
   19       -3.129421
   20       -3.125195
   21       -3.123391
   22       -3.118937
   23       -2.955441
   24       -1.941291
   25       -1.937465
   26       -1.809117
   27       -1.503365
   28       -1.498311
   29       -0.377642
   30        1.312154
   31        1.314059
   32        2.047732
   33        2.050597
   34        2.052809
   35        2.055272
   36        2.088594
   37        2.555348
   38        3.021619
   39        3.024035
   40        3.230505
   41        3.232785
   42        3.240334
   43        3.247171
   44        3.415927
   45        3.419856
   46        4.006740
   47        4.673361
   48        5.224211
   49        5.226539
   50        5.311748
   51        5.779808
   52        5.783049
   53        5.795159
   54        6.282130
   55        6.514708
   56        6.522806
   57        7.444860
   58        7.450013
   59        7.522635
   60        7.531295
   61        7.532832
   62        7.542135
   63        8.464711
   64        8.765433
   65       11.613979
   66       11.623404
   67       11.625937
   68       11.635256
   69       12.479964
   70       12.484913
   71       12.590735
   72       12.599079
   73       12.656854
   74       14.779910
   75       15.029782
   76       15.032503
   77       16.004750
   78       16.009013
   79       16.078269
   80       16.892613
   81       17.059007
   82       17.063644
   83       17.083303
   84       17.087380
 
  0.1111111E+00  0.2222222E+00  0.0000000E+00  0.6172840E-02
    1      -11.535431
    2      -10.142519
    3      -10.137475
    4       -8.803955
    5       -8.140463
    6       -7.684681
    7       -7.492947
    8       -7.488197
    9       -6.853113
   10       -6.848444
   11       -6.271485
   12       -5.334361
   13       -5.085426
   14       -5.081215
   15       -4.789821
   16       -4.781347
   17       -3.479973
   18       -3.475166
   19       -2.945166
   20       -2.787901
   21       -2.183544
   22       -1.935572
   23       -1.794735
   24       -1.790471
   25       -1.537365
   26       -1.183962
   27       -1.180226
   28       -0.323684
   29        0.279328
   30        0.280994
   31        1.016579
   32        1.020547
   33        1.582469
   34        1.605726
   35        2.145622
   36        2.276304
   37        2.280617
   38        2.341440
   39        2.454223
   40        3.131776
   41        3.134237
   42        3.229905
   43        3.446488
   44        3.453136
   45        3.948983
   46        3.955010
   47        4.135361
   48        4.573838
   49        4.578345