   32   32    1    1
  0.6204108E+01  0.4934311E-09  0.4934311E-09  0.9416039E-09  0.5000000E-15
  1.000000000000000E-004
  CAR 
 graphite                                
    128    163     84
 
  0.0000000E+00  0.0000000E+00  0.0000000E+00  0.3086420E-02
    1      -12.442038
    2      -11.361243
    3      -11.357858
    4       -9.673927
    5       -6.811683
    6       -6.808713
    7       -6.805504
    8       -6.115940
    9       -6.113611
   10       -6.111622
   11       -6.003505
   12       -5.999013
   13       -5.998468
   14       -5.997537
   15       -5.997005
   16       -5.992122
   17       -4.965818
   18       -4.960462
   19       -4.959183
   20       -4.959095
   21       -4.959029
   22       -4.953125
   23       -4.311667
   24       -4.309029
   25       -4.305972
   26       -3.986300
   27       -3.982709
   28       -3.979404
   29       -2.449549
   30        1.441001
   31        1.445619
   32        1.606350
   33        1.609162
   34        1.613786
   35        2.050766
   36        2.055673
   37        2.056096
   38        2.056713
   39        2.058863
   40        2.063764
   41        2.544933
   42        2.547955
   43        2.552801
   44        3.575199
   45        3.577818
   46        3.580443
   47        5.255649
   48        5.268875
   49        5.450471
   50        5.458628
   51        5.463339
   52        5.471932
   53        5.649782
   54        5.662363
   55        5.896288
   56        5.899007
   57        5.900764
   58        6.011574
   59        6.362168
   60        6.365828
   61        6.366946
   62        6.367069
   63        6.368359
   64        6.372261
   65       10.140774
   66       10.152637
   67       10.152960
   68       10.153244
   69       10.154831
   70       10.165712
   71       12.255549
   72       12.259302
   73       12.262016
   74       12.311530
   75       12.312228
   76       12.313687
   77       14.201413
   78       14.206015
   79       14.210949
   80       15.712552
   81       15.718945
   82       15.719510
   83       15.721955
   84       15.726268
 
  0.1111111E+00  0.1387779E-16  0.0000000E+00  0.6172840E-02
    1      -12.365348
    2      -11.286693
    3      -11.283315
    4       -9.605049
    5       -7.698252
    6       -7.105976
    7       -7.102936
    8       -6.775660
    9       -6.772835
   10       -6.231215
   11       -6.228753
   12       -6.227592
   13       -6.224234
   14       -5.755644
   15       -5.753912
   16       -5.633985
   17       -4.684916
   18       -4.612557
   19       -4.607646
   20       -4.606412
   21       -4.604691
   22       -4.593878
   23       -4.591626
   24       -4.073286
   25       -4.069644
   26       -3.526798
   27       -3.523406
   28       -2.976185
   29       -2.358373
   30        1.353520
   31        1.358709
   32        1.522061
   33        1.526668
   34        1.681444
   35        1.819403
   36        1.820768
   37        1.823419
   38        1.828144
   39        2.124994
   40        2.128540
   41        2.348000
   42        2.353506
   43        2.616082
   44        2.928747
   45        3.444304
   46        3.447374
   47        4.914478
   48        5.063656
   49        5.158235
   50        5.165330
   51        5.294667
   52        5.301427
   53        5.409718
   54        5.533630
   55        5.973583
   56        5.977018
   57        6.080522
   58        6.158238
   59        6.161041
   60        6.319776
   61        6.321259
   62        6.322471
   63        6.326921
   64        6.560532
   65       10.264314
   66       10.274585
   67       10.275218
   68       10.280276
   69       10.632740
   70       10.640934
   71       11.473142
   72       11.757290
   73       11.760660
   74       12.693601
   75       12.696595
   76       13.284827
   77       14.259904
   78       14.576262
   79       14.583403
   80       15.783529
   81       15.787041
   82       16.049843
   83       16.052900
   84       16.061490
 
  0.2222222E+00  0.4163336E-16  0.0000000E+00  0.6172840E-02
    1      -12.135661
    2      -11.063260
    3      -11.059903
    4       -9.398803
    5       -8.765922
    6       -7.796303
    7       -7.793297
    8       -7.490099
    9       -7.487566
   10       -6.576496
   11       -6.574244
   12       -6.572972
   13       -6.570181
   14       -6.401350
   15       -5.449364
   16       -5.447439
   17       -4.506563
   18       -4.502906
   19       -3.905256
   20       -3.901524
   21       -3.900239
   22       -3.898265
   23       -3.471573
   24       -2.841796
   25       -2.838398
   26       -2.727885
   27       -2.724363
   28       -2.085562
   29       -1.708368
   30        0.687917
   31        0.692614
   32        1.191978
   33        1.193337
   34        1.195683
   35        1.200265
   36        1.763176
   37        1.767782
   38        1.805338
   39        1.810072
   40        1.823516
   41        1.902468
   42        2.340053
   43        2.343751
   44        2.824526
   45        3.180194
   46        3.182948
   47        3.977795
   48        4.325931
   49        4.332161
   50        4.580487
   51        4.691297
   52        4.874886
   53        4.881006
   54        5.152202
   55        5.155350
   56        5.187924
   57        6.213333
   58        6.214574
   59        6.216494
   60        6.221099
   61        6.284095
   62        6.800406
   63        6.802480
   64        7.520844
   65       10.569111
   66       10.578238
   67       10.578918
   68       10.583125
   69       11.116772
   70       11.128689
   71       11.131743
   72       11.711044
   73       11.717241
   74       12.966712
   75       12.969456
   76       14.369163
   77       14.425854
   78       15.598182
   79       15.605277
   80       15.986909
   81       15.990143
   82       16.247447
   83       16.460525
   84       16.467509
 
  0.3333333E+00  0.0000000E+00  0.0000000E+00  0.6172840E-02
    1      -11.754072
    2      -10.692134
    3      -10.688810
    4       -9.721935
    5       -9.056353
    6       -8.719843
    7       -8.716719
    8       -7.765409
    9       -7.763086
   10       -7.239465
   11       -6.835053
   12       -6.832911
   13       -6.831572
   14       -6.828981
   15       -5.549994
   16       -5.547661
   17       -3.780087
   18       -3.776215
   19       -3.082628
   20       -3.078747
   21       -3.077403
   22       -3.075551
   23       -2.141434
   24       -2.138160
   25       -1.974591
   26       -1.633199
   27       -1.279342
   28       -1.275733
   29       -0.366490
   30       -0.139988
   31       -0.136400
   32        0.349989
   33        0.351336
   34        0.353084
   35        0.357676
   36        0.744656
   37        1.049243
   38        1.053982
   39        2.147016
   40        2.151641
   41        2.262111
   42        2.670237
   43        2.689417
   44        2.693369
   45        2.948942
   46        2.951579
   47        3.148031
   48        3.152889
   49        3.161731
   50        3.628794
   51        3.963599
   52        4.265043
   53        4.268499
   54        4.311202
   55        4.316546
   56        4.687309
   57        6.104237
   58        6.105599
   59        6.107886
   60        6.112805
   61        6.611691
   62        7.627801
   63        7.629071
   64        7.818645
   65       10.397687
   66       10.400323
   67       10.914316
   68       10.921831
   69       10.922458
   70       10.925278
   71       11.713710
   72       12.974042
   73       12.978429
   74       13.106023
   75       13.108472
   76       14.694478
   77       15.498370
   78       15.897606
   79       15.995992
   80       16.001338
   81       16.240642
   82       16.332743
   83       16.335811
   84       17.065401
 
  0.4444444E+00  0.8326673E-16  0.0000000E+00  0.6172840E-02
    1      -11.222449
    2      -10.543442
    3      -10.175320
    4      -10.172046
    5       -9.516088
    6       -9.512880
    7       -8.579452
    8       -7.971678
    9       -7.906271
   10       -7.904029
   11       -6.968842
   12       -6.966736
   13       -6.965361
   14       -6.962870
   15       -5.648498
   16       -5.646169
   17       -2.945064
   18       -2.941490
   19       -2.330112
   20       -2.325392
   21       -2.324375
   22       -2.323250
   23       -1.882586
   24       -1.880052
   25       -1.004836
   26       -0.528135
   27       -0.526422
   28       -0.438048
   29       -0.436725
   30       -0.435759
   31       -0.431459
   32       -0.405938
   33       -0.207611
   34        0.213626
   35        0.217353
   36        0.258788
   37        0.262535
   38        1.008514
   39        1.168525
   40        1.681631
   41        1.686069
   42        2.365052
   43        2.745810
   44        2.770184
   45        2.773772
   46        2.821690
   47        2.824405
   48        3.156619
   49        3.160929
   50        3.328079
   51        3.449582
   52        3.453310
   53        3.608114
   54        3.713338
   55        3.717781
   56        4.134222
   57        6.038377
   58        6.039911
   59        6.042333
   60        6.047389
   61        7.038937
   62        7.503946
   63        8.482817
   64        8.483961
   65        9.613480
   66        9.616588
   67       11.142796
   68       11.149281
   69       11.149644
   70       11.150832
   71       13.095181
   72       13.152846
   73       13.155028
   74       14.202196
   75       14.205589
   76       14.706479
   77       15.051539
   78       15.238451
   79       15.242641
   80       15.469575
   81       16.648143
   82       16.830757
   83       16.834422
   84       17.480181
 
  0.1694066E-20  0.1111111E+00  0.0000000E+00  0.6172840E-02
    1      -12.365349
    2      -11.286695
    3      -11.283317
    4       -9.605051
    5       -7.698205
    6       -7.106247
    7       -7.102932
    8       -6.775520
    9       -6.772699
   10       -6.231605
   11       -6.228714
   12       -6.227713
   13       -6.224589
   14       -5.756143
   15       -5.753431
   16       -5.633404
   17       -4.686701
   18       -4.612498
   19       -4.607586
   20       -4.606247
   21       -4.602073
   22       -4.594417
   23       -4.589674
   24       -4.073897
   25       -4.071479
   26       -3.527270
   27       -3.521644
   28       -2.977310
   29       -2.358368
   30        1.352152
   31        1.358424
   32        1.522067
   33        1.526674
   34        1.683089
   35        1.817053
   36        1.820637
   37        1.823420
   38        1.827253
   39        2.127765
   40        2.129203
   41        2.346588
   42        2.353176
   43        2.617876
   44        2.929768
   45        3.443244
   46        3.446949
   47        4.910865
   48        5.067150
   49        5.157887
   50        5.158438
   51        5.301311
   52        5.302167
   53        5.406273
   54        5.537262
   55        5.975540
   56        5.977532
   57        6.080483
   58        6.158228
   59        6.161660
   60        6.317917
   61        6.321154
   62        6.322344
   63        6.326018
   64        6.560472
   65       10.265681
   66       10.274720
   67       10.275206
   68       10.284103
   69       10.631240
   70       10.637895
   71       11.471277
   72       11.756690
   73       11.762626
   74       12.692793
   75       12.698638
   76       13.283909
   77       14.260599
   78       14.576318
   79       14.582576
   80       15.784263
   81       15.787231
   82       16.047424
   83       16.051571
   84       16.053802
 
  0.1111111E+00  0.1111111E+00  0.0000000E+00  0.6172840E-02
    1      -12.212155
    2      -11.137672
    3      -11.134307
    4       -9.467487
    5       -8.191659
    6       -8.187785
    7       -7.245316
    8       -7.241284
    9       -7.240805
   10       -7.236361
   11       -6.609086
   12       -5.923120
   13       -5.919262
   14       -5.913488
   15       -5.807397
   16       -5.804505
   17       -4.775830
   18       -4.771571
   19       -4.133317
   20       -4.114839
   21       -4.110873
   22       -3.831265
   23       -3.380731
   24       -3.377536
   25       -3.377335
   26       -3.371503
   27       -2.324993
   28       -2.320556
   29       -2.176335
   30        0.610701
   31        1.120010
   32        1.123601
   33        1.502750
   34        1.506121
   35        1.683368
   36        1.687956
   37        1.738998
   38        1.961334
   39        1.966231
   40        1.966658
   41        1.968563
   42        2.447145
   43        2.450328
   44        2.486441
   45        2.489889
   46        3.828991
   47        4.337085
   48        4.605068
   49        4.619525
   50        4.627120
   51        4.975132
   52        4.982213
   53        5.034191
   54        5.244160
   55        5.643229
   56        5.647833
   57        5.649023
   58        5.650880
   59        6.134642
   60        6.216737
   61        6.616729
   62        6.620943
   63        7.140726
   64        7.142487
   65       10.088303
   66       10.097346
   67       11.118906
   68       11.121778
   69       11.123226
   70       11.129128
   71       11.142167
   72       11.147121
   73       11.563353
   74       12.383167
   75       13.703554
   76       13.706742
   77       14.685651
   78       14.690839
   79       15.548485
   80       16.175494
   81       16.182666
   82       16.183840
   83       16.188379
   84       16.485696
 
  0.2222222E+00  0.1111111E+00  0.0000000E+00  0.6172840E-02
    1      -11.906514
    2      -10.840378
    3      -10.837041
    4       -9.205397
    5       -9.192833
    6       -8.549445
    7       -8.219945
    8       -8.216880
    9       -7.587421
   10       -7.584439
   11       -6.782881
   12       -6.697225
   13       -6.210621
   14       -5.839198
   15       -5.836451
   16       -5.369180
   17       -4.258519
   18       -4.253810
   19       -4.248636
   20       -3.309980
   21       -3.249406
   22       -2.699176
   23       -2.584808
   24       -2.582525
   25       -1.979773
   26       -1.976414
   27       -1.813652
   28       -1.616088
   29       -1.024725
   30       -0.345541
   31        0.187242
   32        0.190855
   33        0.905209
   34        0.935673
   35        1.335767
   36        1.418052
   37        1.419892
   38        1.802858
   39        1.999210
   40        2.003783
   41        2.017721
   42        2.078780
   43        2.249919
   44        2.253371
   45        2.761928
   46        3.285143
   47        3.665537
   48        3.672426
   49        3.850423
   50        3.937575
   51        4.331941
   52        4.426793
   53        4.433619
   54        4.763458
   55        4.764450
   56        4.767261
   57        5.384949
   58        5.387674
   59        6.482919
   60        6.629327
   61        6.810091
   62        6.814126
   63        7.768502
   64        7.836963
   65       10.084663
   66       10.092605
   67       10.685412
   68       10.843353
   69       11.225201
   70       11.637911
   71       11.642537
   72       12.324164
   73       12.329136
   74       12.544891
   75       13.897997
   76       14.783724
   77       14.905641
   78       15.763770
   79       16.348050
   80       16.358520
   81       16.364290
   82       16.444607
   83       16.447450
   84       16.753298
 
  0.3333333E+00  0.1111111E+00  0.0000000E+00  0.6172840E-02
    1      -11.449884
    2      -10.396433
    3      -10.393136
    4      -10.094235
    5       -9.080597
    6       -9.077439
    7       -8.783390
    8       -8.767856
    9       -7.797910
   10       -7.794903
   11       -7.570716
   12       -6.867788
   13       -6.396532
   14       -5.979947
   15       -5.977192
   16       -4.897370
   17       -4.030662
   18       -3.466512
   19       -3.462848
   20       -2.659220
   21       -2.435386
   22       -1.777479
   23       -1.775162
   24       -1.273330
   25       -1.168855
   26       -1.161853
   27       -1.051414
   28       -0.780856
   29       -0.777062
   30       -0.516418
   31       -0.512862
   32       -0.006785
   33        0.315149
   34        0.316540
   35        0.329215
   36        0.690275
   37        0.692738
   38        1.347190
   39        1.848487
   40        1.913323
   41        2.243059
   42        2.253816
   43        2.258570
   44        2.635833
   45        2.638500
   46        2.666368
   47        2.670060
   48        2.869900
   49        3.158865
   50        3.514079
   51        3.801316
   52        3.807331
   53        3.900990
   54        3.904076
   55        3.907936
   56        4.210313
   57        5.218065
   58        5.221034
   59        6.863140
   60        6.901163
   61        6.904597
   62        7.492989
   63        7.752405
   64        8.292092
   65        9.637992
   66       10.171275
   67       10.176897
   68       10.608962
   69       12.044387
   70       12.047874
   71       12.292553
   72       12.687366
   73       13.596053
   74       13.599497
   75       13.915072
   76       15.218205
   77       15.380522
   78       15.721990
   79       15.727400
   80       15.899112
   81       16.013065
   82       16.836949
   83       16.840139
   84       17.280284
 
  0.4444444E+00  0.1111111E+00  0.0000000E+00  0.6172840E-02
    1      -10.846412
    2      -10.842802
    3       -9.811196
    4       -9.807073
    5       -9.806489
    6       -9.802430
    7       -8.841019
    8       -8.243018
    9       -8.239263
   10       -7.868366
   11       -7.865345
   12       -6.930834
   13       -6.459862
   14       -6.035645
   15       -6.032887
   16       -4.843227
   17       -3.539300
   18       -2.961545
   19       -2.958338
   20       -2.721623
   21       -1.832318
   22       -1.343665
   23       -1.340301
   24       -1.308734
   25       -1.304986
   26       -1.143623
   27       -1.120050
   28       -0.667787
   29       -0.561686
   30       -0.558396
   31        0.234963
   32        0.239301
   33        0.347187
   34        0.390924
   35        0.394883
   36        0.825733
   37        0.953338
   38        0.953689
   39        0.954174
   40        0.961906
   41        1.643445
   42        1.647931
   43        1.770732
   44        2.811346
   45        2.817809
   46        3.120696
   47        3.125488
   48        3.126612
   49        3.129920
   50        3.215375
   51        3.222226
   52        3.223767
   53        3.224582
   54        3.651644
   55        3.657883
   56        3.873936
   57        5.160982
   58        5.164113
   59        6.925058
   60        6.927564
   61        7.319247
   62        7.322242
   63        8.422549
   64        8.510311
   65        8.657078
   66       10.221868
   67       10.225300
   68       10.508497
   69       12.200055
   70       12.203317
   71       12.737308
   72       13.817560
   73       13.821626
   74       13.893731
   75       14.769270
   76       14.771009
   77       14.774273
   78       14.779566
   79       15.599947
   80       15.604124
   81       17.035158
   82       17.039913
   83       17.341659
   84       17.344685
 
 -0.4444444E+00  0.1111111E+00  0.0000000E+00  0.6172840E-02
    1      -11.449995
    2      -10.396543
    3      -10.393248
    4      -10.094065
    5       -9.080419
    6       -9.077255
    7       -8.783711
    8       -8.767892
    9       -7.798115
   10       -7.795105
   11       -7.570587
   12       -6.867641
   13       -6.396730
   14       -5.979850
   15       -5.977140
   16       -4.897561
   17       -4.027236
   18       -3.463128
   19       -3.460931
   20       -2.658294
   21       -2.438539
   22       -1.780930
   23       -1.777193
   24       -1.273363
   25       -1.169228
   26       -1.163030
   27       -1.052525
   28       -0.783094
   29       -0.780992
   30       -0.516519
   31       -0.512569
   32       -0.010265
   33        0.315285
   34        0.317126
   35        0.330668
   36        0.692703
   37        0.697228
   38        1.351154
   39        1.848591
   40        1.912574
   41        2.242303
   42        2.253456
   43        2.257304
   44        2.635569
   45        2.637694
   46        2.665985
   47        2.670199
   48        2.866173
   49        3.158925
   50        3.518105
   51        3.803707
   52        3.807775
   53        3.899586
   54        3.904915
   55        3.908029
   56        4.211016
   57        5.218160
   58        5.221395
   59        6.863357
   60        6.901045
   61        6.902925
   62        7.494342
   63        7.752194
   64        8.292739
   65        9.638379
   66       10.174144
   67       10.178104
   68       10.606238
   69       12.042482
   70       12.046953
   71       12.293096
   72       12.687477
   73       13.595765
   74       13.599835
   75       13.915575
   76       15.217326
   77       15.379541
   78       15.724182
   79       15.728273
   80       15.899649
   81       16.015014
   82       16.836180
   83       16.839716
   84       17.282469
 
 -0.3333333E+00  0.1111111E+00  0.0000000E+00  0.6172840E-02
    1      -11.906593
    2      -10.840457
    3      -10.837121
    4       -9.205171
    5       -9.192914
    6       -8.549860
    7       -8.219758
    8       -8.216690
    9       -7.587848
   10       -7.584866
   11       -6.782732
   12       -6.697032
   13       -6.210985
   14       -5.839095
   15       -5.836604
   16       -5.367972
   17       -4.253520
   18       -4.251434
   19       -4.247232
   20       -3.313220
   21       -3.246865
   22       -2.699251
   23       -2.588362
   24       -2.584999
   25       -1.979964
   26       -1.976433
   27       -1.813677
   28       -1.618836
   29       -1.024660
   30       -0.349174
   31        0.184250
   32        0.186090
   33        0.901168
   34        0.939671
   35        1.335821
   36        1.421219
   37        1.425438
   38        1.802622
   39        1.999209
   40        2.003748
   41        2.022260
   42        2.079109
   43        2.249713
   44        2.253491
   45        2.762090
   46        3.283002
   47        3.664098
   48        3.667266
   49        3.846035
   50        3.936248
   51        4.336867
   52        4.432145
   53        4.435060
   54        4.763423
   55        4.766524
   56        4.767286
   57        5.385136
   58        5.388448
   59        6.483017
   60        6.631557
   61        6.809767
   62        6.811406
   63        7.768766
   64        7.836785
   65       10.089290
   66       10.095237
   67       10.686605
   68       10.839678
   69       11.225490
   70       11.634742
   71       11.640635
   72       12.324083
   73       12.329497
   74       12.545258
   75       13.898241
   76       14.784252
   77       14.905073
   78       15.769150
   79       16.355121
   80       16.360624
   81       16.366214
   82       16.443975
   83       16.447031
   84       16.755890
 
 -0.2222222E+00  0.1111111E+00  0.0000000E+00  0.6172840E-02
    1      -12.212203
    2      -11.137719
    3      -11.134356
    4       -9.467538
    5       -8.190351
    6       -8.189491
    7       -7.243575
    8       -7.241625
    9       -7.240632
   10       -7.238712
   11       -6.609115
   12       -5.921654
   13       -5.921088
   14       -5.911357
   15       -5.807122
   16       -5.805221
   17       -4.770872
   18       -4.769490
   19       -4.131815
   20       -4.116787
   21       -4.112322
   22       -3.828092
   23       -3.382042
   24       -3.378778
   25       -3.377957
   26       -3.374408
   27       -2.326131
   28       -2.322293
   29       -2.176351
   30        0.606455
   31        1.116649
   32        1.118307
   33        1.503520
   34        1.509892
   35        1.683360
   36        1.687949
   37        1.734566
   38        1.963031
   39        1.966653
   40        1.969349
   41        1.973238
   42        2.448406
   43        2.449624
   44        2.487338
   45        2.493860
   46        3.827202
   47        4.331154
   48        4.605600
   49        4.616407
   50        4.617873
   51        4.985229
   52        4.985624
   53        5.033296
   54        5.249980
   55        5.644770
   56        5.648011
   57        5.648224
   58        5.651528
   59        6.137362
   60        6.216800
   61        6.616260
   62        6.617898
   63        7.141284
   64        7.141339
   65       10.093653
   66       10.100804
   67       11.113799
   68       11.122017
   69       11.122288
   70       11.127454
   71       11.140303
   72       11.146441
   73       11.565410
   74       12.383925
   75       13.704152
   76       13.706018
   77       14.687495
   78       14.693890
   79       15.542798
   80       16.179934
   81       16.182844
   82       16.185711
   83       16.192339
   84       16.475622
 
 -0.1111111E+00  0.1111111E+00  0.0000000E+00  0.6172840E-02
    1      -12.365365
    2      -11.286711
    3      -11.283333
    4       -9.605068
    5       -7.698939
    6       -7.105659
    7       -7.102653
    8       -6.776193
    9       -6.773348
   10       -6.231483
   11       -6.228237
   12       -6.227202
   13       -6.224515
   14       -5.754902
   15       -5.753709
   16       -5.633651
   17       -4.690090
   18       -4.607936
   19       -4.606637
   20       -4.605845
   21       -4.602580
   22       -4.592037
   23       -4.589215
   24       -4.077102
   25       -4.073767
   26       -3.524524
   27       -3.522083
   28       -2.979894
   29       -2.358373
   30        1.351530
   31        1.354443
   32        1.522069
   33        1.526676
   34        1.687825
   35        1.815694
   36        1.820332
   37        1.820785
   38        1.822310
   39        2.131366
   40        2.135182
   41        2.345909
   42        2.349156
   43        2.622748
   44        2.930656
   45        3.442857
   46        3.445906
   47        4.903932
   48        5.074300
   49        5.147951
   50        5.154833
   51        5.304855
   52        5.312282
   53        5.399439
   54        5.544088
   55        5.975933
   56        5.979408
   57        6.080559
   58        6.160193
   59        6.162009
   60        6.316929
   61        6.321054
   62        6.322250
   63        6.323992
   64        6.559084
   65       10.270890
   66       10.275136
   67       10.276660
   68       10.285978
   69       10.626509
   70       10.634614
   71       11.468385
   72       11.759298
   73       11.762160
   74       12.695141
   75       12.698030
   76       13.282613
   77       14.265856
   78       14.574242
   79       14.579110
   80       15.788729
   81       15.791960
   82       16.045069
   83       16.049538
   84       16.051468
 
  0.1694066E-20  0.2222222E+00  0.0000000E+00  0.6172840E-02
    1      -12.135668
    2      -11.063267
    3      -11.059910
    4       -9.398809
    5       -8.765979
    6       -7.796355
    7       -7.793349
    8       -7.490673
    9       -7.486996
   10       -6.577508
   11       -6.574018
   12       -6.573137
   13       -6.569468
   14       -6.401269
   15       -5.449509
   16       -5.447883
   17       -4.506566
   18       -4.501002
   19       -3.906074
   20       -3.901446
   21       -3.899978
   22       -3.895112
   23       -3.472845
   24       -2.842324
   25       -2.836545
   26       -2.728418
   27       -2.726048
   28       -2.085540
   29       -1.709567
   30        0.686368
   31        0.692322
   32        1.189404
   33        1.193099
   34        1.195691
   35        1.199602
   36        1.763266
   37        1.767846
   38        1.803716
   39        1.810069
   40        1.823839
   41        1.904222
   42        2.342990
   43        2.344405
   44        2.826389
   45        3.178962
   46        3.182943
   47        3.974854
   48        4.325483
   49        4.326374
   50        4.583653
   51        4.688167
   52        4.880749
   53        4.881739
   54        5.153061
   55        5.155841
   56        5.191175
   57        6.211045
   58        6.214774
   59        6.216524
   60        6.220325
   61        6.284214
   62        6.800152
   63        6.803102
   64        7.521790
   65       10.570366
   66       10.578283
   67       10.579026
   68       10.586853
   69       11.114452
   70       11.128231
   71       11.133426
   72       11.709931
   73       11.714960
   74       12.965968
   75       12.971441
   76       14.368509
   77       14.426643
   78       15.597721
   79       15.604649
   80       15.987768
   81       15.990401
   82       16.250487
   83       16.465284
   84       16.468993
 
  0.1111111E+00  0.2222222E+00  0.0000000E+00  0.6172840E-02
    1      -11.906519
    2      -10.840382
    3      -10.837046
    4       -9.205209
    5       -9.193099
    6       -8.549385
    7       -8.220009
    8       -8.216948
    9       -7.587380
   10       -7.584396
   11       -6.782971
   12       -6.697155
   13       -6.210649
   14       -5.839188
   15       -5.836431
   16       -5.369170
   17       -4.258360
   18       -4.253803
   19       -4.248680
   20       -3.308655
   21       -3.249133
   22       -2.700477
   23       -2.584056
   24       -2.580703
   25       -1.980484
   26       -1.978239
   27       -1.813636
   28       -1.614664
   29       -1.026130
   30       -0.345757
   31        0.187227
   32        0.190651
   33        0.905149
   34        0.933818
   35        1.336208
   36        1.415644
   37        1.418757
   38        1.804759
   39        1.999185
   40        2.003811
   41        2.015894
   42        2.078246
   43        2.252742
   44        2.254315
   45        2.763845
   46        3.283344
   47        3.665514
   48        3.669371
   49        3.851623