 vasp.5.3.5 31Mar14 (build Nov 02 2014 15:17:37) complex                        
  
 executed on        ion-Intel-MKL date 2016.08.13  23:19:33
 running on    6 total cores
 distrk:  each k-point on    6 cores,    1 groups
 distr:  one band on NCORES_PER_BAND=   1 cores,    6 groups


--------------------------------------------------------------------------------------------------------


 INCAR:
 POTCAR:   PAW_PBE C 08Apr2002                    

 ----------------------------------------------------------------------------- 
|                                                                             |
|           W    W    AA    RRRRR   N    N  II  N    N   GGGG   !!!           |
|           W    W   A  A   R    R  NN   N  II  NN   N  G    G  !!!           |
|           W    W  A    A  R    R  N N  N  II  N N  N  G       !!!           |
|           W WW W  AAAAAA  RRRRR   N  N N  II  N  N N  G  GGG   !            |
|           WW  WW  A    A  R   R   N   NN  II  N   NN  G    G                |
|           W    W  A    A  R    R  N    N  II  N    N   GGGG   !!!           |
|                                                                             |
|      For optimal performance we recommend to set                            |
|        NCORE= 4 - approx SQRT( number of cores)                             |
|      NCORE specifies how many cores store one orbital (NPAR=cpu/NCORE).     |
|      This setting can  greatly improve the performance of VASP for DFT.     |
|      The default, NPAR=number of cores might be grossly inefficient         |
|      on modern multi-core architectures or massively parallel machines.     |
|      Do your own testing !!!!                                               |
|      Unfortunately you need to use the default for GW and RPA calculations. |
|      (for HF NCORE is supported but not extensively tested yet)             |
|                                                                             |
 ----------------------------------------------------------------------------- 

 POTCAR:   PAW_PBE C 08Apr2002                    
   VRHFIN =C: s2p2                                                              
   LEXCH  = PE                                                                  
   EATOM  =   147.1560 eV,   10.8157 Ry                                         
                                                                                
   TITEL  = PAW_PBE C 08Apr2002                                                 
   LULTRA =        F    use ultrasoft PP ?                                      
   IUNSCR =        0    unscreen: 0-lin 1-nonlin 2-no                           
   RPACOR =     .000    partial core radius                                     
   POMASS =   12.011; ZVAL   =    4.000    mass and valenz                      
   RCORE  =    1.500    outmost cutoff radius                                   
   RWIGS  =    1.630; RWIGS  =     .863    wigner-seitz radius (au A)           
   ENMAX  =  400.000; ENMIN  =  300.000 eV                                      
   ICORE  =        2    local potential                                         
   LCOR   =        T    correct aug charges                                     
   LPAW   =        T    paw PP                                                  
   EAUG   =  644.873                                                            
   DEXC   =     .000                                                            
   RMAX   =    2.266    core radius for proj-oper                               
   RAUG   =    1.300    factor for augmentation sphere                          
   RDEP   =    1.501    radius for radial grids                                 
   RDEPT  =    1.300    core radius for aug-charge                              
   QCUT   =   -5.516; QGAM   =   11.032    optimization parameters              
                                                                                
   Description                                                                  
     l     E      TYP  RCUT    TYP  RCUT                                        
     0   .000     23  1.200                                                     
     0   .000     23  1.200                                                     
     1   .000     23  1.500                                                     
     1  2.500     23  1.500                                                     
     2   .000      7  1.500                                                     
  local pseudopotential read in
  atomic valenz-charges read in
  non local Contribution for L=           0  read in
    real space projection operators read in
  non local Contribution for L=           0  read in
    real space projection operators read in
  non local Contribution for L=           1  read in
    real space projection operators read in
  non local Contribution for L=           1  read in
    real space projection operators read in
    PAW grid and wavefunctions read in
 
   number of l-projection  operators is LMAX  =           4
   number of lm-projection operators is LMMAX =           8
 

 ----------------------------------------------------------------------------- 
|                                                                             |
|  ADVICE TO THIS USER RUNNING 'VASP/VAMP'   (HEAR YOUR MASTER'S VOICE ...):  |
|                                                                             |
|      You have a (more or less) 'large supercell' and for larger cells       |
|      it might be more efficient to use real space projection operators      |
|      So try LREAL= Auto  in the INCAR   file.                               |
|      Mind: If you want to do a very accurate calculations keep the          |
|      reciprocal projection scheme          (i.e. LREAL=.FALSE.)             |
|                                                                             |
 ----------------------------------------------------------------------------- 

 PAW_PBE C 08Apr2002                    :
 energy of atom  1       EATOM= -147.1560
 kinetic energy error for atom=    0.0057 (will be added to EATOM!!)
 
 
 POSCAR: C                                       
  positions in direct lattice
  No initial velocities read in
 exchange correlation table for  LEXCH =        8
   RHO(1)=    0.500       N(1)  =     2000
   RHO(2)=  100.500       N(2)  =     4000
 


--------------------------------------------------------------------------------------------------------


 ion  position               nearest neighbor table
   1  0.500  0.000  0.125-  20 1.42  18 1.42  19 1.42
   2  1.000  0.000  0.125-  19 1.42  20 1.42  17 1.42
   3  0.500  0.500  0.125-  18 1.42  20 1.42  17 1.43
   4  1.000  0.500  0.125-  17 1.42  19 1.42  18 1.42
   5  0.500  0.000  0.625-  24 1.42  22 1.42  23 1.42
   6  1.000  0.000  0.625-  23 1.42  21 1.42  24 1.42
   7  0.500  0.500  0.625-  22 1.42  24 1.42  21 1.42
   8  1.000  0.500  0.625-  21 1.42  23 1.42  22 1.42
   9  0.000  0.500  0.375-  28 1.42  27 1.42  26 1.42
  10  0.500  0.500  0.375-  27 1.42  28 1.42  25 1.42
  11  0.000  1.000  0.375-  26 1.42  25 1.42  28 1.42
  12  0.500  1.000  0.375-  25 1.42  26 1.42  27 1.42
  13  0.000  0.500  0.875-  32 1.42  31 1.42  30 1.42
  14  0.500  0.500  0.875-  31 1.42  32 1.42  29 1.42
  15  0.000  1.000  0.875-  30 1.42  29 1.42  32 1.42
  16  0.500  1.000  0.875-  29 1.42  30 1.42  31 1.42
  17  0.166  0.333  0.124-   4 1.42   2 1.42   3 1.43
  18  0.667  0.333  0.125-   3 1.42   1 1.42   4 1.42
  19  0.167  0.833  0.125-   2 1.42   4 1.42   1 1.42
  20  0.667  0.833  0.125-   1 1.42   3 1.42   2 1.42
  21  0.167  0.333  0.625-   8 1.42   6 1.42   7 1.42
  22  0.667  0.333  0.625-   7 1.42   5 1.42   8 1.42
  23  0.167  0.833  0.625-   6 1.42   8 1.42   5 1.42
  24  0.667  0.833  0.625-   5 1.42   7 1.42   6 1.42
  25  0.333  0.167  0.375-  12 1.42  11 1.42  10 1.42
  26  0.833  0.167  0.375-  11 1.42  12 1.42   9 1.42
  27  0.333  0.667  0.375-  10 1.42   9 1.42  12 1.42
  28  0.833  0.667  0.375-   9 1.42  10 1.42  11 1.42
  29  0.333  0.167  0.875-  16 1.42  15 1.42  14 1.42
  30  0.833  0.167  0.875-  15 1.42  16 1.42  13 1.42
  31  0.333  0.667  0.875-  14 1.42  13 1.42  16 1.42
  32  0.833  0.667  0.875-  13 1.42  14 1.42  15 1.42
 
  LATTYP: Found a base centered orthorhombic cell.
 ALAT       =     4.9339256766
 B/A-ratio  =     1.7322311103
 C/A-ratio  =     2.4536924461
  
  Lattice vectors:
  
 A1 = (   4.9343108848,  -0.0002224000,   0.0000000000)
 A2 = (  -2.4673480464,   4.2731273763,   0.0000000000)
 A3 = (   0.0000000000,   0.0000000000,  12.1063361620)


Analysis of symmetry for initial positions (statically):
=====================================================================
 Subroutine PRICEL returns:
 Original cell was already a primitive cell.
 

 Routine SETGRP: Setting up the symmetry group for a 
 base centered orthorhombic supercell.


 Subroutine GETGRP returns: Found  1 space group operations
 (whereof  1 operations were pure point group operations)
 out of a pool of  8 trial point group operations.


The static configuration has the point symmetry C_1 .


Analysis of symmetry for dynamics (positions and initial velocities):
=====================================================================
 Subroutine PRICEL returns:
 Original cell was already a primitive cell.
 

 Routine SETGRP: Setting up the symmetry group for a 
 base centered orthorhombic supercell.


 Subroutine GETGRP returns: Found  1 space group operations
 (whereof  1 operations were pure point group operations)
 out of a pool of  8 trial point group operations.


The dynamic configuration has the point symmetry C_1 .
 
 
 KPOINTS: B4C B11C-CBC                            

Automatic generation of k-mesh.
Space group operators:
 irot       det(A)        alpha          n_x          n_y          n_z        tau_x        tau_y        tau_z
    1     1.000000     0.000000     1.000000     0.000000     0.000000     0.000000     0.000000     0.000000
 
 Subroutine IBZKPT returns following result:
 ===========================================
 
 Found    163 irreducible k-points:
 
 Following reciprocal coordinates:
            Coordinates               Weight
  0.000000  0.000000  0.000000      1.000000
  0.111111 -0.000000  0.000000      2.000000
  0.222222 -0.000000  0.000000      2.000000
  0.333333 -0.000000  0.000000      2.000000
  0.444444 -0.000000  0.000000      2.000000
 -0.000000  0.111111  0.000000      2.000000
  0.111111  0.111111  0.000000      2.000000
  0.222222  0.111111  0.000000      2.000000
  0.333333  0.111111  0.000000      2.000000
  0.444444  0.111111  0.000000      2.000000
 -0.444444  0.111111  0.000000      2.000000
 -0.333333  0.111111  0.000000      2.000000
 -0.222222  0.111111  0.000000      2.000000
 -0.111111  0.111111  0.000000      2.000000
 -0.000000  0.222222  0.000000      2.000000
  0.111111  0.222222  0.000000      2.000000
  0.222222  0.222222  0.000000      2.000000
  0.333333  0.222222  0.000000      2.000000
  0.444444  0.222222  0.000000      2.000000
 -0.444444  0.222222  0.000000      2.000000
 -0.333333  0.222222  0.000000      2.000000
 -0.222222  0.222222  0.000000      2.000000
 -0.111111  0.222222  0.000000      2.000000
  0.000000  0.333333  0.000000      2.000000
  0.111111  0.333333  0.000000      2.000000
  0.222222  0.333333  0.000000      2.000000
  0.333333  0.333333  0.000000      2.000000
  0.444444  0.333333  0.000000      2.000000
 -0.444444  0.333333  0.000000      2.000000
 -0.333333  0.333333  0.000000      2.000000
 -0.222222  0.333333  0.000000      2.000000
 -0.111111  0.333333  0.000000      2.000000
 -0.000000  0.444444  0.000000      2.000000
  0.111111  0.444444  0.000000      2.000000
  0.222222  0.444444  0.000000      2.000000
  0.333333  0.444444  0.000000      2.000000
  0.444444  0.444444  0.000000      2.000000
 -0.444444  0.444444  0.000000      2.000000
 -0.333333  0.444444  0.000000      2.000000
 -0.222222  0.444444  0.000000      2.000000
 -0.111111  0.444444  0.000000      2.000000
  0.000000  0.000000  0.250000      2.000000
  0.111111 -0.000000  0.250000      2.000000
  0.222222 -0.000000  0.250000      2.000000
  0.333333 -0.000000  0.250000      2.000000
  0.444444 -0.000000  0.250000      2.000000
 -0.444444  0.000000  0.250000      2.000000
 -0.333333  0.000000  0.250000      2.000000
 -0.222222  0.000000  0.250000      2.000000
 -0.111111  0.000000  0.250000      2.000000
 -0.000000  0.111111  0.250000      2.000000
  0.111111  0.111111  0.250000      2.000000
  0.222222  0.111111  0.250000      2.000000
  0.333333  0.111111  0.250000      2.000000
  0.444444  0.111111  0.250000      2.000000
 -0.444444  0.111111  0.250000      2.000000
 -0.333333  0.111111  0.250000      2.000000
 -0.222222  0.111111  0.250000      2.000000
 -0.111111  0.111111  0.250000      2.000000
 -0.000000  0.222222  0.250000      2.000000
  0.111111  0.222222  0.250000      2.000000
  0.222222  0.222222  0.250000      2.000000
  0.333333  0.222222  0.250000      2.000000
  0.444444  0.222222  0.250000      2.000000
 -0.444444  0.222222  0.250000      2.000000
 -0.333333  0.222222  0.250000      2.000000
 -0.222222  0.222222  0.250000      2.000000
 -0.111111  0.222222  0.250000      2.000000
  0.000000  0.333333  0.250000      2.000000
  0.111111  0.333333  0.250000      2.000000
  0.222222  0.333333  0.250000      2.000000
  0.333333  0.333333  0.250000      2.000000
  0.444444  0.333333  0.250000      2.000000
 -0.444444  0.333333  0.250000      2.000000
 -0.333333  0.333333  0.250000      2.000000
 -0.222222  0.333333  0.250000      2.000000
 -0.111111  0.333333  0.250000      2.000000
 -0.000000  0.444444  0.250000      2.000000
  0.111111  0.444444  0.250000      2.000000
  0.222222  0.444444  0.250000      2.000000
  0.333333  0.444444  0.250000      2.000000
  0.444444  0.444444  0.250000      2.000000
 -0.444444  0.444444  0.250000      2.000000
 -0.333333  0.444444  0.250000      2.000000
 -0.222222  0.444444  0.250000      2.000000
 -0.111111  0.444444  0.250000      2.000000
  0.000000 -0.444444  0.250000      2.000000
  0.111111 -0.444444  0.250000      2.000000
  0.222222 -0.444444  0.250000      2.000000
  0.333333 -0.444444  0.250000      2.000000
  0.444444 -0.444444  0.250000      2.000000
 -0.444444 -0.444444  0.250000      2.000000
 -0.333333 -0.444444  0.250000      2.000000
 -0.222222 -0.444444  0.250000      2.000000
 -0.111111 -0.444444  0.250000      2.000000
  0.000000 -0.333333  0.250000      2.000000
  0.111111 -0.333333  0.250000      2.000000
  0.222222 -0.333333  0.250000      2.000000
  0.333333 -0.333333  0.250000      2.000000
  0.444444 -0.333333  0.250000      2.000000
 -0.444444 -0.333333  0.250000      2.000000
 -0.333333 -0.333333  0.250000      2.000000
 -0.222222 -0.333333  0.250000      2.000000
 -0.111111 -0.333333  0.250000      2.000000
  0.000000 -0.222222  0.250000      2.000000
  0.111111 -0.222222  0.250000      2.000000
  0.222222 -0.222222  0.250000      2.000000
  0.333333 -0.222222  0.250000      2.000000
  0.444444 -0.222222  0.250000      2.000000
 -0.444444 -0.222222  0.250000      2.000000
 -0.333333 -0.222222  0.250000      2.000000
 -0.222222 -0.222222  0.250000      2.000000
 -0.111111 -0.222222  0.250000      2.000000
  0.000000 -0.111111  0.250000      2.000000
  0.111111 -0.111111  0.250000      2.000000
  0.222222 -0.111111  0.250000      2.000000
  0.333333 -0.111111  0.250000      2.000000
  0.444444 -0.111111  0.250000      2.000000
 -0.444444 -0.111111  0.250000      2.000000
 -0.333333 -0.111111  0.250000      2.000000
 -0.222222 -0.111111  0.250000      2.000000
 -0.111111 -0.111111  0.250000      2.000000
  0.000000  0.000000  0.500000      1.000000
  0.111111 -0.000000  0.500000      2.000000
  0.222222 -0.000000  0.500000      2.000000
  0.333333 -0.000000  0.500000      2.000000
  0.444444 -0.000000  0.500000      2.000000
 -0.000000  0.111111  0.500000      2.000000
  0.111111  0.111111  0.500000      2.000000
  0.222222  0.111111  0.500000      2.000000
  0.333333  0.111111  0.500000      2.000000
  0.444444  0.111111  0.500000      2.000000
 -0.444444  0.111111  0.500000      2.000000
 -0.333333  0.111111  0.500000      2.000000
 -0.222222  0.111111  0.500000      2.000000
 -0.111111  0.111111  0.500000      2.000000
 -0.000000  0.222222  0.500000      2.000000
  0.111111  0.222222  0.500000      2.000000
  0.222222  0.222222  0.500000      2.000000
  0.333333  0.222222  0.500000      2.000000
  0.444444  0.222222  0.500000      2.000000
 -0.444444  0.222222  0.500000      2.000000
 -0.333333  0.222222  0.500000      2.000000
 -0.222222  0.222222  0.500000      2.000000
 -0.111111  0.222222  0.500000      2.000000
  0.000000  0.333333  0.500000      2.000000
  0.111111  0.333333  0.500000      2.000000
  0.222222  0.333333  0.500000      2.000000
  0.333333  0.333333  0.500000      2.000000
  0.444444  0.333333  0.500000      2.000000
 -0.444444  0.333333  0.500000      2.000000
 -0.333333  0.333333  0.500000      2.000000
 -0.222222  0.333333  0.500000      2.000000
 -0.111111  0.333333  0.500000      2.000000
 -0.000000  0.444444  0.500000      2.000000
  0.111111  0.444444  0.500000      2.000000
  0.222222  0.444444  0.500000      2.000000
  0.333333  0.444444  0.500000      2.000000
  0.444444  0.444444  0.500000      2.000000
 -0.444444  0.444444  0.500000      2.000000
 -0.333333  0.444444  0.500000      2.000000
 -0.222222  0.444444  0.500000      2.000000
 -0.111111  0.444444  0.500000      2.000000
 
 Following cartesian coordinates:
            Coordinates               Weight
  0.000000  0.000000  0.000000      1.000000
  0.022519  0.013002  0.000000      2.000000
  0.045037  0.026005  0.000000      2.000000
  0.067556  0.039007  0.000000      2.000000
  0.090075  0.052010  0.000000      2.000000
  0.000001  0.026003  0.000000      2.000000
  0.022520  0.039005  0.000000      2.000000
  0.045038  0.052008  0.000000      2.000000
  0.067557  0.065010  0.000000      2.000000
  0.090076  0.078013  0.000000      2.000000
 -0.090073 -0.026007  0.000000      2.000000
 -0.067555 -0.013005  0.000000      2.000000
 -0.045036 -0.000002  0.000000      2.000000
 -0.022517  0.013000  0.000000      2.000000
  0.000002  0.052006  0.000000      2.000000
  0.022521  0.065008  0.000000      2.000000
  0.045040  0.078011  0.000000      2.000000
  0.067558  0.091013  0.000000      2.000000
  0.090077  0.104016  0.000000      2.000000
 -0.090072 -0.000004  0.000000      2.000000
 -0.067554  0.012998  0.000000      2.000000
 -0.045035  0.026001  0.000000      2.000000
 -0.022516  0.039003  0.000000      2.000000
  0.000004  0.078009  0.000000      2.000000
  0.022522  0.091011  0.000000      2.000000
  0.045041  0.104014  0.000000      2.000000
  0.067559  0.117016  0.000000      2.000000
  0.090078  0.130019  0.000000      2.000000
 -0.090071  0.025999  0.000000      2.000000
 -0.067552  0.039001  0.000000      2.000000
 -0.045034  0.052004  0.000000      2.000000
 -0.022515  0.065006  0.000000      2.000000
  0.000005  0.104012  0.000000      2.000000
  0.022523  0.117014  0.000000      2.000000
  0.045042  0.130017  0.000000      2.000000
  0.067561  0.143019  0.000000      2.000000
  0.090079  0.156022  0.000000      2.000000
 -0.090070  0.052002  0.000000      2.000000
 -0.067551  0.065004  0.000000      2.000000
 -0.045033  0.078007  0.000000      2.000000
 -0.022514  0.091009  0.000000      2.000000
  0.000000  0.000000  0.020650      2.000000
  0.022519  0.013002  0.020650      2.000000
  0.045037  0.026005  0.020650      2.000000
  0.067556  0.039007  0.020650      2.000000
  0.090075  0.052010  0.020650      2.000000
 -0.090075 -0.052010  0.020650      2.000000
 -0.067556 -0.039007  0.020650      2.000000
 -0.045037 -0.026005  0.020650      2.000000
 -0.022519 -0.013002  0.020650      2.000000
  0.000001  0.026003  0.020650      2.000000
  0.022520  0.039005  0.020650      2.000000
  0.045038  0.052008  0.020650      2.000000
  0.067557  0.065010  0.020650      2.000000
  0.090076  0.078013  0.020650      2.000000
 -0.090073 -0.026007  0.020650      2.000000
 -0.067555 -0.013005  0.020650      2.000000
 -0.045036 -0.000002  0.020650      2.000000
 -0.022517  0.013000  0.020650      2.000000
  0.000002  0.052006  0.020650      2.000000
  0.022521  0.065008  0.020650      2.000000
  0.045040  0.078011  0.020650      2.000000
  0.067558  0.091013  0.020650      2.000000
  0.090077  0.104016  0.020650      2.000000
 -0.090072 -0.000004  0.020650      2.000000
 -0.067554  0.012998  0.020650      2.000000
 -0.045035  0.026001  0.020650      2.000000
 -0.022516  0.039003  0.020650      2.000000
  0.000004  0.078009  0.020650      2.000000
  0.022522  0.091011  0.020650      2.000000
  0.045041  0.104014  0.020650      2.000000
  0.067559  0.117016  0.020650      2.000000
  0.090078  0.130019  0.020650      2.000000
 -0.090071  0.025999  0.020650      2.000000
 -0.067552  0.039001  0.020650      2.000000
 -0.045034  0.052004  0.020650      2.000000
 -0.022515  0.065006  0.020650      2.000000
  0.000005  0.104012  0.020650      2.000000
  0.022523  0.117014  0.020650      2.000000
  0.045042  0.130017  0.020650      2.000000
  0.067561  0.143019  0.020650      2.000000
  0.090079  0.156022  0.020650      2.000000
 -0.090070  0.052002  0.020650      2.000000
 -0.067551  0.065004  0.020650      2.000000
 -0.045033  0.078007  0.020650      2.000000
 -0.022514  0.091009  0.020650      2.000000
 -0.000005 -0.104012  0.020650      2.000000
  0.022514 -0.091009  0.020650      2.000000
  0.045033 -0.078007  0.020650      2.000000
  0.067551 -0.065004  0.020650      2.000000
  0.090070 -0.052002  0.020650      2.000000
 -0.090079 -0.156022  0.020650      2.000000
 -0.067561 -0.143019  0.020650      2.000000
 -0.045042 -0.130017  0.020650      2.000000
 -0.022523 -0.117014  0.020650      2.000000
 -0.000004 -0.078009  0.020650      2.000000
  0.022515 -0.065006  0.020650      2.000000
  0.045034 -0.052004  0.020650      2.000000
  0.067552 -0.039001  0.020650      2.000000
  0.090071 -0.025999  0.020650      2.000000
 -0.090078 -0.130019  0.020650      2.000000
 -0.067559 -0.117016  0.020650      2.000000
 -0.045041 -0.104014  0.020650      2.000000
 -0.022522 -0.091011  0.020650      2.000000
 -0.000002 -0.052006  0.020650      2.000000
  0.022516 -0.039003  0.020650      2.000000
  0.045035 -0.026001  0.020650      2.000000
  0.067554 -0.012998  0.020650      2.000000
  0.090072  0.000004  0.020650      2.000000
 -0.090077 -0.104016  0.020650      2.000000
 -0.067558 -0.091013  0.020650      2.000000
 -0.045040 -0.078011  0.020650      2.000000
 -0.022521 -0.065008  0.020650      2.000000
 -0.000001 -0.026003  0.020650      2.000000
  0.022517 -0.013000  0.020650      2.000000
  0.045036  0.000002  0.020650      2.000000
  0.067555  0.013005  0.020650      2.000000
  0.090073  0.026007  0.020650      2.000000
 -0.090076 -0.078013  0.020650      2.000000
 -0.067557 -0.065010  0.020650      2.000000
 -0.045038 -0.052008  0.020650      2.000000
 -0.022520 -0.039005  0.020650      2.000000
  0.000000  0.000000  0.041301      1.000000
  0.022519  0.013002  0.041301      2.000000
  0.045037  0.026005  0.041301      2.000000
  0.067556  0.039007  0.041301      2.000000
  0.090075  0.052010  0.041301      2.000000
  0.000001  0.026003  0.041301      2.000000
  0.022520  0.039005  0.041301      2.000000
  0.045038  0.052008  0.041301      2.000000
  0.067557  0.065010  0.041301      2.000000
  0.090076  0.078013  0.041301      2.000000
 -0.090073 -0.026007  0.041301      2.000000
 -0.067555 -0.013005  0.041301      2.000000
 -0.045036 -0.000002  0.041301      2.000000
 -0.022517  0.013000  0.041301      2.000000
  0.000002  0.052006  0.041301      2.000000
  0.022521  0.065008  0.041301      2.000000
  0.045040  0.078011  0.041301      2.000000
  0.067558  0.091013  0.041301      2.000000
  0.090077  0.104016  0.041301      2.000000
 -0.090072 -0.000004  0.041301      2.000000
 -0.067554  0.012998  0.041301      2.000000
 -0.045035  0.026001  0.041301      2.000000
 -0.022516  0.039003  0.041301      2.000000
  0.000004  0.078009  0.041301      2.000000
  0.022522  0.091011  0.041301      2.000000
  0.045041  0.104014  0.041301      2.000000
  0.067559  0.117016  0.041301      2.000000
  0.090078  0.130019  0.041301      2.000000
 -0.090071  0.025999  0.041301      2.000000
 -0.067552  0.039001  0.041301      2.000000
 -0.045034  0.052004  0.041301      2.000000
 -0.022515  0.065006  0.041301      2.000000
  0.000005  0.104012  0.041301      2.000000
  0.022523  0.117014  0.041301      2.000000
  0.045042  0.130017  0.041301      2.000000
  0.067561  0.143019  0.041301      2.000000
  0.090079  0.156022  0.041301      2.000000
 -0.090070  0.052002  0.041301      2.000000
 -0.067551  0.065004  0.041301      2.000000
 -0.045033  0.078007  0.041301      2.000000
 -0.022514  0.091009  0.041301      2.000000
 
 TETIRR: Found    970 inequivalent tetrahedra from     1944


--------------------------------------------------------------------------------------------------------




 Dimension of arrays:
   k-points           NKPTS =    163   k-points in BZ     NKDIM =    163   number of bands    NBANDS=     84
   number of dos      NEDOS =    301   number of ions     NIONS =     32
   non local maximal  LDIM  =      4   non local SUM 2l+1 LMDIM =      8
   total plane-waves  NPLWV = 156800
   max r-space proj   IRMAX =      1   max aug-charges    IRDMAX=   7448
   dimension x,y,z NGX =    40 NGY =   40 NGZ =   98
   dimension x,y,z NGXF=    80 NGYF=   80 NGZF=  196
   support grid    NGXF=    80 NGYF=   80 NGZF=  196
   ions per type =              32
 NGX,Y,Z   is equivalent  to a cutoff of  13.48, 13.48, 13.46 a.u.
 NGXF,Y,Z  is equivalent  to a cutoff of  26.95, 26.95, 26.91 a.u.


 I would recommend the setting:
   dimension x,y,z NGX =    39 NGY =   39 NGZ =   97
 SYSTEM =  graphite                                
 POSCAR =  C                                       

 Startparameter for this run:
   NWRITE =      2    write-flag & timer
   PREC   = accura    normal or accurate (medium, high low for compatibility)
   ISTART =      0    job   : 0-new  1-cont  2-samecut
   ICHARG =      2    charge: 1-file 2-atom 10-const
   ISPIN  =      1    spin polarized calculation?
   LNONCOLLINEAR =      F non collinear calculations
   LSORBIT =      F    spin-orbit coupling
   INIWAV =      1    electr: 0-lowe 1-rand  2-diag
   LASPH  =      F    aspherical Exc in radial PAW
   METAGGA=      F    non-selfconsistent MetaGGA calc.

 Electronic Relaxation 1
   ENCUT  =  600.0 eV  44.10 Ry    6.64 a.u.   9.86  9.86 24.18*2*pi/ulx,y,z
   ENINI  =  600.0     initial cutoff
   ENAUG  =  644.9 eV  augmentation charge cutoff
   NELM   =    200;   NELMIN=  2; NELMDL=  0     # of ELM steps 
   EDIFF  = 0.1E-05   stopping-criterion for ELM
   LREAL  =      F    real-space projection
   NLSPLINE    = F    spline interpolate recip. space projectors
   LCOMPAT=      F    compatible to vasp.4.4
   GGA_COMPAT  = T    GGA compatible to vasp.4.4-vasp.4.6
   LMAXPAW     = -100 max onsite density
   LMAXMIX     =    2 max onsite mixed and CHGCAR
   VOSKOWN=      0    Vosko Wilk Nusair interpolation
   ROPT   =    0.00000
 Ionic relaxation
   EDIFFG = 0.1E-02   stopping-criterion for IOM
   NSW    =      0    number of steps for IOM
   NBLOCK =      1;   KBLOCK =      1    inner block; outer block 
   IBRION =     -1    ionic relax: 0-MD 1-quasi-New 2-CG
   NFREE  =      0    steps in history (QN), initial steepest desc. (CG)
   ISIF   =      2    stress and relaxation
   IWAVPR =     10    prediction:  0-non 1-charg 2-wave 3-comb
   ISYM   =      2    0-nonsym 1-usesym 2-fastsym
   LCORR  =      T    Harris-Foulkes like correction to forces

   POTIM  = 0.5000    time-step for ionic-motion
   TEIN   =    0.0    initial temperature
   TEBEG  =    0.0;   TEEND  =   0.0 temperature during run
   SMASS  =  -3.00    Nose mass-parameter (am)
   estimated Nose-frequenzy (Omega)   =  0.10E-29 period in steps =****** mass=  -0.556E-27a.u.
   SCALEE = 1.0000    scale energy and forces
   NPACO  =    256;   APACO  = 16.0  distance and # of slots for P.C.
   PSTRESS=    0.0 pullay stress

  Mass of Ions in am
   POMASS =  12.01
  Ionic Valenz
   ZVAL   =   4.00
  Atomic Wigner-Seitz radii
   RWIGS  =  -1.00
  virtual crystal weights 
   VCA    =   1.00
   NELECT =     128.0000    total number of electrons
   NUPDOWN=      -1.0000    fix difference up-down

 DOS related values:
   EMIN   =  10.00;   EMAX   =-10.00  energy-range for DOS
   EFERMI =   0.00
   ISMEAR =    -5;   SIGMA  =   0.20  broadening in eV -4-tet -1-fermi 0-gaus

 Electronic relaxation 2 (details)
   IALGO  =     38    algorithm
   LDIAG  =      T    sub-space diagonalisation (order eigenvalues)
   LSUBROT=      F    optimize rotation matrix (better conditioning)
   TURBO    =      0    0=normal 1=particle mesh
   IRESTART =      0    0=no restart 2=restart with 2 vectors
   NREBOOT  =      0    no. of reboots
   NMIN     =      0    reboot dimension
   EREF     =   0.00    reference energy to select bands
   IMIX   =      4    mixing-type and parameters
     AMIX     =   0.40;   BMIX     =  1.00
     AMIX_MAG =   1.60;   BMIX_MAG =  1.00
     AMIN     =   0.10
     WC   =   100.;   INIMIX=   1;  MIXPRE=   1;  MAXMIX= -45

 Intra band minimization:
   WEIMIN = 0.0000     energy-eigenvalue tresh-hold
   EBREAK =  0.30E-08  absolut break condition
   DEPER  =   0.30     relativ break condition  

   TIME   =   0.40     timestep for ELM

  volume/ion in A,a.u.               =       7.98        53.83
  Fermi-wavevector in a.u.,A,eV,Ry     =   1.300629  2.457833 23.016116  1.691637
  Thomas-Fermi vector in A             =   2.431816
 
 Write flags
   LWAVE  =      F    write WAVECAR
   LCHARG =      F    write CHGCAR
   LVTOT  =      F    write LOCPOT, total local potential
   LVHAR  =      F    write LOCPOT, Hartree potential only
   LELF   =      F    write electronic localiz. function (ELF)
   LORBIT =      0    0 simple, 1 ext, 2 COOP (PROOUT)


 Dipole corrections
   LMONO  =      F    monopole corrections only (constant potential shift)
   LDIPOL =      F    correct potential (dipole corrections)
   IDIPOL =      0    1-x, 2-y, 3-z, 4-all directions 
   EPSILON=  1.0000000 bulk dielectric constant

 Exchange correlation treatment:
   GGA     =    PE    GGA type
   LEXCH   =     8    internal setting for exchange type
   VOSKOWN=      0    Vosko Wilk Nusair interpolation
   LHFCALC =     F    Hartree Fock is set to
   LHFONE  =     F    Hartree Fock one center treatment
   AEXX    =    0.0000 exact exchange contribution

 Linear response parameters
   LEPSILON=     F    determine dielectric tensor
   LRPA    =     F    only Hartree local field effects (RPA)
   LNABLA  =     F    use nabla operator in PAW spheres
   LVEL    =     F    velocity operator in full k-point grid
   LINTERFAST=   F  fast interpolation
   KINTER  =     0    interpolate to denser k-point grid
   CSHIFT  =0.1000    complex shift for real part using Kramers Kronig
   OMEGAMAX=  -1.0    maximum frequency
   DEG_THRESHOLD= 0.2000000E-02 threshold for treating states as degnerate
   RTIME   =    0.100 relaxation time in fs

 Orbital magnetization related:
   ORBITALMAG=     F  switch on orbital magnetization
   LCHIMAG   =     F  perturbation theory with respect to B field
   DQ        =  0.001000  dq finite difference perturbation B field



--------------------------------------------------------------------------------------------------------


 Static calculation
 charge density and potential will be updated during run
 non-spin polarized calculation
 Variant of blocked Davidson
 Davidson routine will perform the subspace rotation
 perform sub-space diagonalisation
    after iterative eigenvector-optimisation
 modified Broyden-mixing scheme, WC =      100.0
 initial mixing is a Kerker type mixing with AMIX =  0.4000 and BMIX =      1.0000
 Hartree-type preconditioning will be used
 using additional bands           20
 reciprocal scheme for non local part
 calculate Harris-corrections to forces 
   (improved forces if not selfconsistent)
 use gradient corrections 
 use of overlap-Matrix (Vanderbilt PP)
 Fermi weights with tetrahedron method with Bloechl corrections


--------------------------------------------------------------------------------------------------------


  energy-cutoff  :      600.00
  volume of cell :      255.25
      direct lattice vectors                 reciprocal lattice vectors
     4.934310885 -0.000222400  0.000000000     0.202667819  0.117022500  0.000000000
    -2.467348046  4.273127376  0.000000000     0.000010548  0.234026730  0.000000000
     0.000000000  0.000000000 12.106336162     0.000000000  0.000000000  0.082601374

  length of vectors
     4.934310890  4.934310890 12.106336162     0.234026730  0.234026730  0.082601374


 
 k-points in units of 2pi/SCALE and weight: B4C B11C-CBC                            
   0.00000000  0.00000000  0.00000000       0.003
   0.02251865  0.01300250  0.00000000       0.006
   0.04503729  0.02600500  0.00000000       0.006
   0.06755594  0.03900750  0.00000000       0.006
   0.09007459  0.05201000  0.00000000       0.006
   0.00000117  0.02600297  0.00000000       0.006
   0.02251982  0.03900547  0.00000000       0.006
   0.04503847  0.05200797  0.00000000       0.006
   0.06755711  0.06501047  0.00000000       0.006
   0.09007576  0.07801297  0.00000000       0.006
  -0.09007341 -0.02600703  0.00000000       0.006
  -0.06755477 -0.01300453  0.00000000       0.006
  -0.04503612 -0.00000203  0.00000000       0.006
  -0.02251747  0.01300047  0.00000000       0.006
   0.00000234  0.05200594  0.00000000       0.006
   0.02252099  0.06500844  0.00000000       0.006
   0.04503964  0.07801094  0.00000000       0.006
   0.06755828  0.09101344  0.00000000       0.006
   0.09007693  0.10401594  0.00000000       0.006
  -0.09007224 -0.00000406  0.00000000       0.006
  -0.06755360  0.01299844  0.00000000       0.006
  -0.04503495  0.02600094  0.00000000       0.006
  -0.02251630  0.03900344  0.00000000       0.006
   0.00000352  0.07800891  0.00000000       0.006
   0.02252216  0.09101141  0.00000000       0.006
   0.04504081  0.10401391  0.00000000       0.006
   0.06755946  0.11701641  0.00000000       0.006
   0.09007810  0.13001891  0.00000000       0.006
  -0.09007107  0.02599891  0.00000000       0.006
  -0.06755242  0.03900141  0.00000000       0.006
  -0.04503378  0.05200391  0.00000000       0.006
  -0.02251513  0.06500641  0.00000000       0.006
   0.00000469  0.10401188  0.00000000       0.006
   0.02252333  0.11701438  0.00000000       0.006
   0.04504198  0.13001688  0.00000000       0.006
   0.06756063  0.14301938  0.00000000       0.006
   0.09007927  0.15602188  0.00000000       0.006
  -0.09006990  0.05200188  0.00000000       0.006
  -0.06755125  0.06500438  0.00000000       0.006
  -0.04503261  0.07800688  0.00000000       0.006
  -0.02251396  0.09100938  0.00000000       0.006
   0.00000000  0.00000000  0.02065034       0.006
   0.02251865  0.01300250  0.02065034       0.006
   0.04503729  0.02600500  0.02065034       0.006
   0.06755594  0.03900750  0.02065034       0.006
   0.09007459  0.05201000  0.02065034       0.006
  -0.09007459 -0.05201000  0.02065034       0.006
  -0.06755594 -0.03900750  0.02065034       0.006
  -0.04503729 -0.02600500  0.02065034       0.006
  -0.02251865 -0.01300250  0.02065034       0.006
   0.00000117  0.02600297  0.02065034       0.006
   0.02251982  0.03900547  0.02065034       0.006
   0.04503847  0.05200797  0.02065034       0.006
   0.06755711  0.06501047  0.02065034       0.006
   0.09007576  0.07801297  0.02065034       0.006
  -0.09007341 -0.02600703  0.02065034       0.006
  -0.06755477 -0.01300453  0.02065034       0.006
  -0.04503612 -0.00000203  0.02065034       0.006
  -0.02251747  0.01300047  0.02065034       0.006
   0.00000234  0.05200594  0.02065034       0.006
   0.02252099  0.06500844  0.02065034       0.006
   0.04503964  0.07801094  0.02065034       0.006
   0.06755828  0.09101344  0.02065034       0.006
   0.09007693  0.10401594  0.02065034       0.006
  -0.09007224 -0.00000406  0.02065034       0.006
  -0.06755360  0.01299844  0.02065034       0.006
  -0.04503495  0.02600094  0.02065034       0.006
  -0.02251630  0.03900344  0.02065034       0.006
   0.00000352  0.07800891  0.02065034       0.006
   0.02252216  0.09101141  0.02065034       0.006
   0.04504081  0.10401391  0.02065034       0.006
   0.06755946  0.11701641  0.02065034       0.006
   0.09007810  0.13001891  0.02065034       0.006
  -0.09007107  0.02599891  0.02065034       0.006
  -0.06755242  0.03900141  0.02065034       0.006
  -0.04503378  0.05200391  0.02065034       0.006
  -0.02251513  0.06500641  0.02065034       0.006
   0.00000469  0.10401188  0.02065034       0.006
   0.02252333  0.11701438  0.02065034       0.006
   0.04504198  0.13001688  0.02065034       0.006
   0.06756063  0.14301938  0.02065034       0.006
   0.09007927  0.15602188  0.02065034       0.006
  -0.09006990  0.05200188  0.02065034       0.006
  -0.06755125  0.06500438  0.02065034       0.006
  -0.04503261  0.07800688  0.02065034       0.006
  -0.02251396  0.09100938  0.02065034       0.006
  -0.00000469 -0.10401188  0.02065034       0.006
   0.02251396 -0.09100938  0.02065034       0.006
   0.04503261 -0.07800688  0.02065034       0.006
   0.06755125 -0.06500438  0.02065034       0.006
   0.09006990 -0.05200188  0.02065034       0.006
  -0.09007927 -0.15602188  0.02065034       0.006
  -0.06756063 -0.14301938  0.02065034       0.006
  -0.04504198 -0.13001688  0.02065034       0.006
  -0.02252333 -0.11701438  0.02065034       0.006
  -0.00000352 -0.07800891  0.02065034       0.006
   0.02251513 -0.06500641  0.02065034       0.006
   0.04503378 -0.05200391  0.02065034       0.006
   0.06755242 -0.03900141  0.02065034       0.006
   0.09007107 -0.02599891  0.02065034       0.006
  -0.09007810 -0.13001891  0.02065034       0.006
  -0.06755946 -0.11701641  0.02065034       0.006
  -0.04504081 -0.10401391  0.02065034       0.006
  -0.02252216 -0.09101141  0.02065034       0.006
  -0.00000234 -0.05200594  0.02065034       0.006
   0.02251630 -0.03900344  0.02065034       0.006
   0.04503495 -0.02600094  0.02065034       0.006
   0.06755360 -0.01299844  0.02065034       0.006
   0.09007224  0.00000406  0.02065034       0.006
  -0.09007693 -0.10401594  0.02065034       0.006
  -0.06755828 -0.09101344  0.02065034       0.006
  -0.04503964 -0.07801094  0.02065034       0.006
  -0.02252099 -0.06500844  0.02065034       0.006
  -0.00000117 -0.02600297  0.02065034       0.006
   0.02251747 -0.01300047  0.02065034       0.006
   0.04503612  0.00000203  0.02065034       0.006
   0.06755477  0.01300453  0.02065034       0.006
   0.09007341  0.02600703  0.02065034       0.006
  -0.09007576 -0.07801297  0.02065034       0.006
  -0.06755711 -0.06501047  0.02065034       0.006
  -0.04503847 -0.05200797  0.02065034       0.006
  -0.02251982 -0.03900547  0.02065034       0.006
   0.00000000  0.00000000  0.04130069       0.003
   0.02251865  0.01300250  0.04130069       0.006
   0.04503729  0.02600500  0.04130069       0.006
   0.06755594  0.03900750  0.04130069       0.006
   0.09007459  0.05201000  0.04130069       0.006
   0.00000117  0.02600297  0.04130069       0.006
   0.02251982  0.03900547  0.04130069       0.006
   0.04503847  0.05200797  0.04130069       0.006
   0.06755711  0.06501047  0.04130069       0.006
   0.09007576  0.07801297  0.04130069       0.006
  -0.09007341 -0.02600703  0.04130069       0.006
  -0.06755477 -0.01300453  0.04130069       0.006
  -0.04503612 -0.00000203  0.04130069       0.006
  -0.02251747  0.01300047  0.04130069       0.006
   0.00000234  0.05200594  0.04130069       0.006
   0.02252099  0.06500844  0.04130069       0.006
   0.04503964  0.07801094  0.04130069       0.006
   0.06755828  0.09101344  0.04130069       0.006
   0.09007693  0.10401594  0.04130069       0.006
  -0.09007224 -0.00000406  0.04130069       0.006
  -0.06755360  0.01299844  0.04130069       0.006
  -0.04503495  0.02600094  0.04130069       0.006
  -0.02251630  0.03900344  0.04130069       0.006
   0.00000352  0.07800891  0.04130069       0.006
   0.02252216  0.09101141  0.04130069       0.006
   0.04504081  0.10401391  0.04130069       0.006
   0.06755946  0.11701641  0.04130069       0.006
   0.09007810  0.13001891  0.04130069       0.006
  -0.09007107  0.02599891  0.04130069       0.006
  -0.06755242  0.03900141  0.04130069       0.006
  -0.04503378  0.05200391  0.04130069       0.006
  -0.02251513  0.06500641  0.04130069       0.006
   0.00000469  0.10401188  0.04130069       0.006
   0.02252333  0.11701438  0.04130069       0.006
   0.04504198  0.13001688  0.04130069       0.006
   0.06756063  0.14301938  0.04130069       0.006
   0.09007927  0.15602188  0.04130069       0.006
  -0.09006990  0.05200188  0.04130069       0.006
  -0.06755125  0.06500438  0.04130069       0.006
  -0.04503261  0.07800688  0.04130069       0.006
  -0.02251396  0.09100938  0.04130069       0.006
 
 k-points in reciprocal lattice and weights: B4C B11C-CBC                            
   0.00000000  0.00000000  0.00000000       0.003
   0.11111111 -0.00000000  0.00000000       0.006
   0.22222222 -0.00000000  0.00000000       0.006
   0.33333333 -0.00000000  0.00000000       0.006
   0.44444444 -0.00000000  0.00000000       0.006
  -0.00000000  0.11111111  0.00000000       0.006
   0.11111111  0.11111111  0.00000000       0.006
   0.22222222  0.11111111  0.00000000       0.006
   0.33333333  0.11111111  0.00000000       0.006
   0.44444444  0.11111111  0.00000000       0.006
  -0.44444444  0.11111111  0.00000000       0.006
  -0.33333333  0.11111111  0.00000000       0.006
  -0.22222222  0.11111111  0.00000000       0.006
  -0.11111111  0.11111111  0.00000000       0.006
  -0.00000000  0.22222222  0.00000000       0.006
   0.11111111  0.22222222  0.00000000       0.006
   0.22222222  0.22222222  0.00000000       0.006
   0.33333333  0.22222222  0.00000000       0.006
   0.44444444  0.22222222  0.00000000       0.006
  -0.44444444  0.22222222  0.00000000       0.006
  -0.33333333  0.22222222  0.00000000       0.006
  -0.22222222  0.22222222  0.00000000       0.006
  -0.11111111  0.22222222  0.00000000       0.006
   0.00000000  0.33333333  0.00000000       0.006
   0.11111111  0.33333333  0.00000000       0.006
   0.22222222  0.33333333  0.00000000       0.006
   0.33333333  0.33333333  0.00000000       0.006
   0.44444444  0.33333333  0.00000000       0.006
  -0.44444444  0.33333333  0.00000000       0.006
  -0.33333333  0.33333333  0.00000000       0.006
  -0.22222222  0.33333333  0.00000000       0.006
  -0.11111111  0.33333333  0.00000000       0.006
  -0.00000000  0.44444444  0.00000000       0.006
   0.11111111  0.44444444  0.00000000       0.006
   0.22222222  0.44444444  0.00000000       0.006
   0.33333333  0.44444444  0.00000000       0.006
   0.44444444  0.44444444  0.00000000       0.006
  -0.44444444  0.44444444  0.00000000       0.006
  -0.33333333  0.44444444  0.00000000       0.006
  -0.22222222  0.44444444  0.00000000       0.006
  -0.11111111  0.44444444  0.00000000       0.006
   0.00000000  0.00000000  0.25000000       0.006
   0.11111111 -0.00000000  0.25000000       0.006
   0.22222222 -0.00000000  0.25000000       0.006
   0.33333333 -0.00000000  0.25000000       0.006
   0.44444444 -0.00000000  0.25000000       0.006
  -0.44444444  0.00000000  0.25000000       0.006
  -0.33333333  0.00000000  0.25000000       0.006
  -0.22222222  0.00000000  0.25000000       0.006
  -0.11111111  0.00000000  0.25000000       0.006
  -0.00000000  0.11111111  0.25000000       0.006
   0.11111111  0.11111111  0.25000000       0.006
   0.22222222  0.11111111  0.25000000       0.006
   0.33333333  0.11111111  0.25000000       0.006
   0.44444444  0.11111111  0.25000000       0.006
  -0.44444444  0.11111111  0.25000000       0.006
  -0.33333333  0.11111111  0.25000000       0.006
  -0.22222222  0.11111111  0.25000000       0.006
  -0.11111111  0.11111111  0.25000000       0.006
  -0.00000000  0.22222222  0.25000000       0.006
   0.11111111  0.22222222  0.25000000       0.006
   0.22222222  0.22222222  0.25000000       0.006
   0.33333333  0.22222222  0.25000000       0.006
   0.44444444  0.22222222  0.25000000       0.006
  -0.44444444  0.22222222  0.25000000       0.006
  -0.33333333  0.22222222  0.25000000       0.006
  -0.22222222  0.22222222  0.25000000       0.006
  -0.11111111  0.22222222  0.25000000       0.006
   0.00000000  0.33333333  0.25000000       0.006
   0.11111111  0.33333333  0.25000000       0.006
   0.22222222  0.33333333  0.25000000       0.006
   0.33333333  0.33333333  0.25000000       0.006
   0.44444444  0.33333333  0.25000000       0.006
  -0.44444444  0.33333333  0.25000000       0.006
  -0.33333333  0.33333333  0.25000000       0.006
  -0.22222222  0.33333333  0.25000000       0.006
  -0.11111111  0.33333333  0.25000000       0.006
  -0.00000000  0.44444444  0.25000000       0.006
   0.11111111  0.44444444  0.25000000       0.006
   0.22222222  0.44444444  0.25000000       0.006
   0.33333333  0.44444444  0.25000000       0.006
   0.44444444  0.44444444  0.25000000       0.006
  -0.44444444  0.44444444  0.25000000       0.006
  -0.33333333  0.44444444  0.25000000       0.006
  -0.22222222  0.44444444  0.25000000       0.006
  -0.11111111  0.44444444  0.25000000       0.006
   0.00000000 -0.44444444  0.25000000       0.006
   0.11111111 -0.44444444  0.25000000       0.006
   0.22222222 -0.44444444  0.25000000       0.006
   0.33333333 -0.44444444  0.25000000       0.006
   0.44444444 -0.44444444  0.25000000       0.006
  -0.44444444 -0.44444444  0.25000000       0.006
  -0.33333333 -0.44444444  0.25000000       0.006
  -0.22222222 -0.44444444  0.25000000       0.006
  -0.11111111 -0.44444444  0.25000000       0.006
   0.00000000 -0.33333333  0.25000000       0.006
   0.11111111 -0.33333333  0.25000000       0.006
   0.22222222 -0.33333333  0.25000000       0.006
   0.33333333 -0.33333333  0.25000000       0.006
   0.44444444 -0.33333333  0.25000000       0.006
  -0.44444444 -0.33333333  0.25000000       0.006
  -0.33333333 -0.33333333  0.25000000       0.006
  -0.22222222 -0.33333333  0.25000000       0.006
  -0.11111111 -0.33333333  0.25000000       0.006
   0.00000000 -0.22222222  0.25000000       0.006
   0.11111111 -0.22222222  0.25000000       0.006
   0.22222222 -0.22222222  0.25000000       0.006
   0.33333333 -0.22222222  0.25000000       0.006
   0.44444444 -0.22222222  0.25000000       0.006
  -0.44444444 -0.22222222  0.25000000       0.006
  -0.33333333 -0.22222222  0.25000000       0.006
  -0.22222222 -0.22222222  0.25000000       0.006
  -0.11111111 -0.22222222  0.25000000       0.006
   0.00000000 -0.11111111  0.25000000       0.006
   0.11111111 -0.11111111  0.25000000       0.006
   0.22222222 -0.11111111  0.25000000       0.006
   0.33333333 -0.11111111  0.25000000       0.006
   0.44444444 -0.11111111  0.25000000       0.006
  -0.44444444 -0.11111111  0.25000000       0.006
  -0.33333333 -0.11111111  0.25000000       0.006
  -0.22222222 -0.11111111  0.25000000       0.006
  -0.11111111 -0.11111111  0.25000000       0.006
   0.00000000  0.00000000  0.50000000       0.003
   0.11111111 -0.00000000  0.50000000       0.006
   0.22222222 -0.00000000  0.50000000       0.006
   0.33333333 -0.00000000  0.50000000       0.006
   0.44444444 -0.00000000  0.50000000       0.006
  -0.00000000  0.11111111  0.50000000       0.006
   0.11111111  0.11111111  0.50000000       0.006
   0.22222222  0.11111111  0.50000000       0.006
   0.33333333  0.11111111  0.50000000       0.006
   0.44444444  0.11111111  0.50000000       0.006
  -0.44444444  0.11111111  0.50000000       0.006
  -0.33333333  0.11111111  0.50000000       0.006
  -0.22222222  0.11111111  0.50000000       0.006
  -0.11111111  0.11111111  0.50000000       0.006
  -0.00000000  0.22222222  0.50000000       0.006
   0.11111111  0.22222222  0.50000000       0.006
   0.22222222  0.22222222  0.50000000       0.006
   0.33333333  0.22222222  0.50000000       0.006
   0.44444444  0.22222222  0.50000000       0.006
  -0.44444444  0.22222222  0.50000000       0.006
  -0.33333333  0.22222222  0.50000000       0.006
  -0.22222222  0.22222222  0.50000000       0.006
  -0.11111111  0.22222222  0.50000000       0.006
   0.00000000  0.33333333  0.50000000       0.006
   0.11111111  0.33333333  0.50000000       0.006
   0.22222222  0.33333333  0.50000000       0.006
   0.33333333  0.33333333  0.50000000       0.006
   0.44444444  0.33333333  0.50000000       0.006
  -0.44444444  0.33333333  0.50000000       0.006
  -0.33333333  0.33333333  0.50000000       0.006
  -0.22222222  0.33333333  0.50000000       0.006
  -0.11111111  0.33333333  0.50000000       0.006
  -0.00000000  0.44444444  0.50000000       0.006
   0.11111111  0.44444444  0.50000000       0.006
   0.22222222  0.44444444  0.50000000       0.006
   0.33333333  0.44444444  0.50000000       0.006
   0.44444444  0.44444444  0.50000000       0.006
  -0.44444444  0.44444444  0.50000000       0.006
  -0.33333333  0.44444444  0.50000000       0.006
  -0.22222222  0.44444444  0.50000000       0.006
  -0.11111111  0.44444444  0.50000000       0.006
 
 position of ions in fractional coordinates (direct lattice) 
   0.49999985  0.00000017  0.12500000
   0.99999985  0.00000017  0.12500000
   0.49999985  0.50000017  0.12500000
   0.99999985  0.50000017  0.12500000
   0.49999985  0.00000017  0.62500000
   0.99999985  0.00000017  0.62500000
   0.49999985  0.50000017  0.62500000
   0.99999985  0.50000017  0.62500000
   0.00000017  0.49999985  0.37500000
   0.50000017  0.49999985  0.37500000
   0.00000017  0.99999985  0.37500000
   0.50000017  0.99999985  0.37500000
   0.00000017  0.49999985  0.87500000
   0.50000017  0.49999985  0.87500000
   0.00000017  0.99999985  0.87500000
   0.50000017  0.99999985  0.87500000
   0.16588455  0.33335053  0.12423508
   0.66664946  0.33335053  0.12500000
   0.16664946  0.83335053  0.12500000
   0.66664946  0.83335053  0.12500000
   0.16664946  0.33335053  0.62500000
   0.66664946  0.33335053  0.62500000
   0.16664946  0.83335053  0.62500000
   0.66664946  0.83335053  0.62500000
   0.33335053  0.16664946  0.37500000
   0.83335053  0.16664946  0.37500000
   0.33335053  0.66664946  0.37500000
   0.83335053  0.66664946  0.37500000
   0.33335053  0.16664946  0.87500000
   0.83335053  0.16664946  0.87500000
   0.33335053  0.66664946  0.87500000
   0.83335053  0.66664946  0.87500000
 
 position of ions in cartesian coordinates  (Angst):
   2.46715426 -0.00011045  1.51329202
   4.93430971 -0.00022165  1.51329202
   1.23348024  2.13645323  1.51329202
   3.70063568  2.13634203  1.51329202
   2.46715426 -0.00011045  7.56646010
   4.93430971 -0.00022165  7.56646010
   1.23348024  2.13645323  7.56646010
   3.70063568  2.13634203  7.56646010
  -1.23367279  2.13656304  4.53987606
   1.23348265  2.13645184  4.53987606
  -2.46734681  4.27312673  4.53987606
  -0.00019137  4.27301553  4.53987606
  -1.23367279  2.13656304 10.59304414
   1.23348265  2.13645184 10.59304414
  -2.46734681  4.27312673 10.59304414
  -0.00019137  4.27301553 10.59304414
  -0.00396585  1.42441237  1.50403166
   2.46696394  1.42430100  1.51329202
  -1.23386552  3.56097589  1.51329202
   1.23328992  3.56086469  1.51329202
  -0.00019150  1.42441220  7.56646010
   2.46696394  1.42430100  7.56646010
  -1.23386552  3.56097589  7.56646010
   1.23328992  3.56086469  7.56646010
   1.23367290  0.71204025  4.53987606
   3.70082834  0.71192905  4.53987606
  -0.00000112  2.84860394  4.53987606
   2.46715432  2.84849274  4.53987606
   1.23367290  0.71204025 10.59304414
   3.70082834  0.71192905 10.59304414
  -0.00000112  2.84860394 10.59304414
   2.46715432  2.84849274 10.59304414
 


--------------------------------------------------------------------------------------------------------


 k-point  1 :   0.0000 0.0000 0.0000  plane waves:    8401
 k-point  2 :   0.1111-0.0000 0.0000  plane waves:    8497
 k-point  3 :   0.2222-0.0000 0.0000  plane waves:    8503
 k-point  4 :   0.3333-0.0000 0.0000  plane waves:    8533
 k-point  5 :   0.4444-0.0000 0.0000  plane waves:    8525
 k-point  6 :  -0.0000 0.1111 0.0000  plane waves:    8497
 k-point  7 :   0.1111 0.1111 0.0000  plane waves:    8518
 k-point  8 :   0.2222 0.1111 0.0000  plane waves:    8500
 k-point  9 :   0.3333 0.1111 0.0000  plane waves:    8518
 k-point 10 :   0.4444 0.1111 0.0000  plane waves:    8528
 k-point 11 :  -0.4444 0.1111 0.0000  plane waves:    8518
 k-point 12 :  -0.3333 0.1111 0.0000  plane waves:    8500
 k-point 13 :  -0.2222 0.1111 0.0000  plane waves:    8518
 k-point 14 :  -0.1111 0.1111 0.0000  plane waves:    8497
 k-point 15 :  -0.0000 0.2222 0.0000  plane waves:    8503
 k-point 16 :   0.1111 0.2222 0.0000  plane waves:    8500
 k-point 17 :   0.2222 0.2222 0.0000  plane waves:    8526
 k-point 18 :   0.3333 0.2222 0.0000  plane waves:    8522
 k-point 19 :   0.4444 0.2222 0.0000  plane waves:    8522
 k-point 20 :  -0.4444 0.2222 0.0000  plane waves:    8526
 k-point 21 :  -0.3333 0.2222 0.0000  plane waves:    8504
 k-point 22 :  -0.2222 0.2222 0.0000  plane waves:    8507
 k-point 23 :  -0.1111 0.2222 0.0000  plane waves:    8518
 k-point 24 :   0.0000 0.3333 0.0000  plane waves:    8533
 k-point 25 :   0.1111 0.3333 0.0000  plane waves:    8518
 k-point 26 :   0.2222 0.3333 0.0000  plane waves:    8522
 k-point 27 :   0.3333 0.3333 0.0000  plane waves:    8570
 k-point 28 :   0.4444 0.3333 0.0000  plane waves:    8522
 k-point 29 :  -0.4444 0.3333 0.0000  plane waves:    8520
 k-point 30 :  -0.3333 0.3333 0.0000  plane waves:    8533
 k-point 31 :  -0.2222 0.3333 0.0000  plane waves:    8504
 k-point 32 :  -0.1111 0.3333 0.0000  plane waves:    8500
 k-point 33 :  -0.0000 0.4444 0.0000  plane waves:    8525
 k-point 34 :   0.1111 0.4444 0.0000  plane waves:    8528
 k-point 35 :   0.2222 0.4444 0.0000  plane waves:    8522
 k-point 36 :   0.3333 0.4444 0.0000  plane waves:    8522
 k-point 37 :   0.4444 0.4444 0.0000  plane waves:    8528
 k-point 38 :  -0.4444 0.4444 0.0000  plane waves:    8525
 k-point 39 :  -0.3333 0.4444 0.0000  plane waves:    8520
 k-point 40 :  -0.2222 0.4444 0.0000  plane waves:    8526
 k-point 41 :  -0.1111 0.4444 0.0000  plane waves:    8518
 k-point 42 :   0.0000 0.0000 0.2500  plane waves:    8484
 k-point 43 :   0.1111-0.0000 0.2500  plane waves:    8484
 k-point 44 :   0.2222-0.0000 0.2500  plane waves:    8511
 k-point 45 :   0.3333-0.0000 0.2500  plane waves:    8529
 k-point 46 :   0.4444-0.0000 0.2500  plane waves:    8538
 k-point 47 :  -0.4444 0.0000 0.2500  plane waves:    8538
 k-point 48 :  -0.3333 0.0000 0.2500  plane waves:    8529
 k-point 49 :  -0.2222 0.0000 0.2500  plane waves:    8511
 k-point 50 :  -0.1111 0.0000 0.2500  plane waves:    8484
 k-point 51 :  -0.0000 0.1111 0.2500  plane waves:    8484
 k-point 52 :   0.1111 0.1111 0.2500  plane waves:    8491
 k-point 53 :   0.2222 0.1111 0.2500  plane waves:    8522
 k-point 54 :   0.3333 0.1111 0.2500  plane waves:    8522
 k-point 55 :   0.4444 0.1111 0.2500  plane waves:    8538
 k-point 56 :  -0.4444 0.1111 0.2500  plane waves:    8522
 k-point 57 :  -0.3333 0.1111 0.2500  plane waves:    8521
 k-point 58 :  -0.2222 0.1111 0.2500  plane waves:    8494
 k-point 59 :  -0.1111 0.1111 0.2500  plane waves:    8483
 k-point 60 :  -0.0000 0.2222 0.2500  plane waves:    8511
 k-point 61 :   0.1111 0.2222 0.2500  plane waves:    8522
 k-point 62 :   0.2222 0.2222 0.2500  plane waves:    8526
 k-point 63 :   0.3333 0.2222 0.2500  plane waves:    8523
 k-point 64 :   0.4444 0.2222 0.2500  plane waves:    8524
 k-point 65 :  -0.4444 0.2222 0.2500  plane waves:    8526
 k-point 66 :  -0.3333 0.2222 0.2500  plane waves:    8522
 k-point 67 :  -0.2222 0.2222 0.2500  plane waves:    8511
 k-point 68 :  -0.1111 0.2222 0.2500  plane waves:    8494
 k-point 69 :   0.0000 0.3333 0.2500  plane waves:    8529
 k-point 70 :   0.1111 0.3333 0.2500  plane waves:    8522
 k-point 71 :   0.2222 0.3333 0.2500  plane waves:    8523
 k-point 72 :   0.3333 0.3333 0.2500  plane waves:    8532
 k-point 73 :   0.4444 0.3333 0.2500  plane waves:    8523
 k-point 74 :  -0.4444 0.3333 0.2500  plane waves:    8522
 k-point 75 :  -0.3333 0.3333 0.2500  plane waves:    8529
 k-point 76 :  -0.2222 0.3333 0.2500  plane waves:    8522
 k-point 77 :  -0.1111 0.3333 0.2500  plane waves:    8521
 k-point 78 :  -0.0000 0.4444 0.2500  plane waves:    8538
 k-point 79 :   0.1111 0.4444 0.2500  plane waves:    8538
 k-point 80 :   0.2222 0.4444 0.2500  plane waves:    8524
 k-point 81 :   0.3333 0.4444 0.2500  plane waves:    8523
 k-point 82 :   0.4444 0.4444 0.2500  plane waves:    8538
 k-point 83 :  -0.4444 0.4444 0.2500  plane waves:    8538
 k-point 84 :  -0.3333 0.4444 0.2500  plane waves:    8522
 k-point 85 :  -0.2222 0.4444 0.2500  plane waves:    8526
 k-point 86 :  -0.1111 0.4444 0.2500  plane waves:    8522
 k-point 87 :   0.0000-0.4444 0.2500  plane waves:    8538
 k-point 88 :   0.1111-0.4444 0.2500  plane waves:    8522
 k-point 89 :   0.2222-0.4444 0.2500  plane waves:    8526
 k-point 90 :   0.3333-0.4444 0.2500  plane waves:    8522
 k-point 91 :   0.4444-0.4444 0.2500  plane waves:    8538
 k-point 92 :  -0.4444-0.4444 0.2500  plane waves:    8538
 k-point 93 :  -0.3333-0.4444 0.2500  plane waves:    8523
 k-point 94 :  -0.2222-0.4444 0.2500  plane waves:    8524
 k-point 95 :  -0.1111-0.4444 0.2500  plane waves:    8538
 k-point 96 :   0.0000-0.3333 0.2500  plane waves:    8529
 k-point 97 :   0.1111-0.3333 0.2500  plane waves:    8521
 k-point 98 :   0.2222-0.3333 0.2500  plane waves:    8522
 k-point 99 :   0.3333-0.3333 0.2500  plane waves:    8529
 k-point ** :   0.4444-0.3333 0.2500  plane waves:    8522
 k-point ** :  -0.4444-0.3333 0.2500  plane waves:    8523
 k-point ** :  -0.3333-0.3333 0.2500  plane waves:    8532
 k-point ** :  -0.2222-0.3333 0.2500  plane waves:    8523
 k-point ** :  -0.1111-0.3333 0.2500  plane waves:    8522
 k-point ** :   0.0000-0.2222 0.2500  plane waves:    8511
 k-point ** :   0.1111-0.2222 0.2500  plane waves:    8494
 k-point ** :   0.2222-0.2222 0.2500  plane waves:    8511
 k-point ** :   0.3333-0.2222 0.2500  plane waves:    8522
 k-point ** :   0.4444-0.2222 0.2500  plane waves:    8526
 k-point ** :  -0.4444-0.2222 0.2500  plane waves:    8524
 k-point ** :  -0.3333-0.2222 0.2500  plane waves:    8523
 k-point ** :  -0.2222-0.2222 0.2500  plane waves:    8526
 k-point ** :  -0.1111-0.2222 0.2500  plane waves:    8522
 k-point ** :   0.0000-0.1111 0.2500  plane waves:    8484
 k-point ** :   0.1111-0.1111 0.2500  plane waves:    8483
 k-point ** :   0.2222-0.1111 0.2500  plane waves:    8494
 k-point ** :   0.3333-0.1111 0.2500  plane waves:    8521
 k-point ** :   0.4444-0.1111 0.2500  plane waves:    8522
 k-point ** :  -0.4444-0.1111 0.2500  plane waves:    8538
 k-point ** :  -0.3333-0.1111 0.2500  plane waves:    8522
 k-point ** :  -0.2222-0.1111 0.2500  plane waves:    8522
 k-point ** :  -0.1111-0.1111 0.2500  plane waves:    8491
 k-point ** :   0.0000 0.0000 0.5000  plane waves:    8448
 k-point ** :   0.1111-0.0000 0.5000  plane waves:    8504
 k-point ** :   0.2222-0.0000 0.5000  plane waves:    8528
 k-point ** :   0.3333-0.0000 0.5000  plane waves:    8530
 k-point ** :   0.4444-0.0000 0.5000  plane waves:    8530
 k-point ** :  -0.0000 0.1111 0.5000  plane waves:    8504
 k-point ** :   0.1111 0.1111 0.5000  plane waves:    8488
 k-point ** :   0.2222 0.1111 0.5000  plane waves:    8534
 k-point ** :   0.3333 0.1111 0.5000  plane waves:    8506
 k-point ** :   0.4444 0.1111 0.5000  plane waves:    8540
 k-point ** :  -0.4444 0.1111 0.5000  plane waves:    8506
 k-point ** :  -0.3333 0.1111 0.5000  plane waves:    8536
 k-point ** :  -0.2222 0.1111 0.5000  plane waves:    8488
 k-point ** :  -0.1111 0.1111 0.5000  plane waves:    8504
 k-point ** :  -0.0000 0.2222 0.5000  plane waves:    8528
 k-point ** :   0.1111 0.2222 0.5000  plane waves:    8534
 k-point ** :   0.2222 0.2222 0.5000  plane waves:    8512
 k-point ** :   0.3333 0.2222 0.5000  plane waves:    8520
 k-point ** :   0.4444 0.2222 0.5000  plane waves:    8520
 k-point ** :  -0.4444 0.2222 0.5000  plane waves:    8506
 k-point ** :  -0.3333 0.2222 0.5000  plane waves:    8536
 k-point ** :  -0.2222 0.2222 0.5000  plane waves:    8526
 k-point ** :  -0.1111 0.2222 0.5000  plane waves:    8488
 k-point ** :   0.0000 0.3333 0.5000  plane waves:    8530
 k-point ** :   0.1111 0.3333 0.5000  plane waves:    8506
 k-point ** :   0.2222 0.3333 0.5000  plane waves:    8520
 k-point ** :   0.3333 0.3333 0.5000  plane waves:    8526
 k-point ** :   0.4444 0.3333 0.5000  plane waves:    8518
 k-point ** :  -0.4444 0.3333 0.5000  plane waves:    8504
 k-point ** :  -0.3333 0.3333 0.5000  plane waves:    8530
 k-point ** :  -0.2222 0.3333 0.5000  plane waves:    8536
 k-point ** :  -0.1111 0.3333 0.5000  plane waves:    8536
 k-point ** :  -0.0000 0.4444 0.5000  plane waves:    8530
 k-point ** :   0.1111 0.4444 0.5000  plane waves:    8540
 k-point ** :   0.2222 0.4444 0.5000  plane waves:    8520
 k-point ** :   0.3333 0.4444 0.5000  plane waves:    8518
 k-point ** :   0.4444 0.4444 0.5000  plane waves:    8538
 k-point ** :  -0.4444 0.4444 0.5000  plane waves:    8532
 k-point ** :  -0.3333 0.4444 0.5000  plane waves:    8504
 k-point ** :  -0.2222 0.4444 0.5000  plane waves:    8506
 k-point ** :  -0.1111 0.4444 0.5000  plane waves:    8506

 maximum and minimum number of plane-waves per node :      8570     8401

 maximum number of plane-waves:      8570
 maximum index in each direction: 
   IXMAX=   10   IYMAX=   10   IZMAX=   24
   IXMIN=  -10   IYMIN=  -10   IZMIN=  -24

 WARNING: aliasing errors must be expected set NGX to  42 to avoid them
 WARNING: aliasing errors must be expected set NGY to  42 to avoid them
 NGZ is ok and might be reduce to  98
 aliasing errors are usually negligible using standard VASP settings
 and one can safely disregard these warnings

 serial   3D FFT for wavefunctions
 parallel 3D FFT for charge:
    minimum data exchange during FFTs selected (reduces bandwidth)


 total amount of memory used by VASP on root node   471290. kBytes
========================================================================

   base      :      30000. kBytes
   nonl-proj :      93833. kBytes
   fftplans  :       7980. kBytes
   grid      :      16906. kBytes
   one-center:         98. kBytes
   wavefun   :     322473. kBytes
 
     INWAV:  cpu time    0.00: real time    0.00
 Broyden mixing: mesh for mixing (old mesh)
   NGX = 19   NGY = 19   NGZ = 49
  (NGX  = 80   NGY  = 80   NGZ  =196)
  gives a total of  17689 points

 initial charge density was supplied:
 charge density of overlapping atoms calculated
 number of electron     128.0000000 magnetization 
 keeping initial charge density in first step


--------------------------------------------------------------------------------------------------------


 Maximum index for augmentation-charges         1432 (set IRDMAX)


--------------------------------------------------------------------------------------------------------


 First call to EWALD:  gamma=   0.279
 Maximum number of real-space cells 4x 4x 2
 Maximum number of reciprocal cells 2x 2x 5

 FEWALD executed in parallel
    FEWALD:  cpu time    0.00: real time    0.00


----------------------------------------- Iteration    1(   1)  ---------------------------------------


    POTLOK:  cpu time    0.18: real time    0.19
    SETDIJ:  cpu time    0.02: real time    0.02
     EDDAV:  cpu time  153.95: real time  154.04
 BZINTS: Fermi energy: 16.862426;128.000000 electrons
         Band energy: 164.132739;  BLOECHL correction: -0.136561
       DOS:  cpu time    0.22: real time    0.22
    --------------------------------------------
      LOOP:  cpu time  154.37: real time  154.46

 eigenvalue-minimisations  : 27384
 total energy-change (2. order) : 0.5479451E+03  (-0.7289824E+04)
 number of electron     128.0000000 magnetization 
 augmentation part      128.0000000 magnetization 

 Free energy of the ion-electron system (eV)
  ---------------------------------------------------
  alpha Z        PSCENC =       326.87226881
  Ewald energy   TEWEN  =     -4167.64655989
  -Hartree energ DENC   =      -892.23766581
  -exchange      EXHF   =         0.00000000
  -V(xc)+E(xc)   XCENC  =       444.83050583
  PAW double counting   =      1210.60617908    -1247.42152856
  entropy T*S    EENTRO =         0.00000000
  eigenvalues    EBANDS =       164.13273866
  atomic energy  EATOM  =      4708.80920826
  ---------------------------------------------------
  free energy    TOTEN  =       547.94514638 eV

  energy without entropy =      547.94514638  energy(sigma->0) =      547.94514638


--------------------------------------------------------------------------------------------------------




----------------------------------------- Iteration    1(   2)  ---------------------------------------


     EDDAV:  cpu time  179.01: real time  179.11
 BZINTS: Fermi energy:  5.000299;128.000000 electrons
         Band energy:-650.242554;  BLOECHL correction: -0.001095
       DOS:  cpu time    0.18: real time    0.18
    --------------------------------------------
      LOOP:  cpu time  179.19: real time  179.29

 eigenvalue-minimisations  : 34020
 total energy-change (2. order) :-0.8143753E+03  (-0.7840063E+03)
 number of electron     128.0000000 magnetization 
 augmentation part      128.0000000 magnetization 

 Free energy of the ion-electron system (eV)
  ---------------------------------------------------
  alpha Z        PSCENC =       326.87226881
  Ewald energy   TEWEN  =     -4167.64655989
  -Hartree energ DENC   =      -892.23766581
  -exchange      EXHF   =         0.00000000
  -V(xc)+E(xc)   XCENC  =       444.83050583
  PAW double counting   =      1210.60617908    -1247.42152856
  entropy T*S    EENTRO =         0.00000000
  eigenvalues    EBANDS =      -650.24255411
  atomic energy  EATOM  =      4708.80920826
  ---------------------------------------------------
  free energy    TOTEN  =      -266.43014639 eV

  energy without entropy =     -266.43014639  energy(sigma->0) =     -266.43014639


--------------------------------------------------------------------------------------------------------




----------------------------------------- Iteration    1(   3)  ---------------------------------------


     EDDAV:  cpu time  176.82: real time  176.91
 BZINTS: Fermi energy:  4.341897;128.000000 electrons
         Band energy:-694.649135;  BLOECHL correction: -0.000022
       DOS:  cpu time    0.12: real time    0.12
    --------------------------------------------
      LOOP:  cpu time  176.95: real time  177.04

 eigenvalue-minimisations  : 33360
 total energy-change (2. order) :-0.4440658E+02  (-0.4395898E+02)
 number of electron     128.0000000 magnetization 
 augmentation part      128.0000000 magnetization 

 Free energy of the ion-electron system (eV)
  ---------------------------------------------------
  alpha Z        PSCENC =       326.87226881
  Ewald energy   TEWEN  =     -4167.64655989
  -Hartree energ DENC   =      -892.23766581
  -exchange      EXHF   =         0.00000000
  -V(xc)+E(xc)   XCENC  =       444.83050583
  PAW double counting   =      1210.60617908    -1247.42152856
  entropy T*S    EENTRO =         0.00000000
  eigenvalues    EBANDS =      -694.64913475
  atomic energy  EATOM  =      4708.80920826
  ---------------------------------------------------
  free energy    TOTEN  =      -310.83672703 eV

  energy without entropy =     -310.83672703  energy(sigma->0) =     -310.83672703


--------------------------------------------------------------------------------------------------------




----------------------------------------- Iteration    1(   4)  ---------------------------------------


     EDDAV:  cpu time  171.78: real time  171.87
 BZINTS: Fermi energy:  4.331685;128.000000 electrons
         Band energy:-695.435586;  BLOECHL correction: -0.000030
       DOS:  cpu time    0.13: real time    0.14
    --------------------------------------------
      LOOP:  cpu time  171.92: real time  172.01

 eigenvalue-minimisations  : 33900
 total energy-change (2. order) :-0.7864514E+00  (-0.7848940E+00)
 number of electron     128.0000000 magnetization 
 augmentation part      128.0000000 magnetization 

 Free energy of the ion-electron system (eV)
  ---------------------------------------------------
  alpha Z        PSCENC =       326.87226881
  Ewald energy   TEWEN  =     -4167.64655989
  -Hartree energ DENC   =      -892.23766581
  -exchange      EXHF   =         0.00000000
  -V(xc)+E(xc)   XCENC  =       444.83050583
  PAW double counting   =      1210.60617908    -1247.42152856
  entropy T*S    EENTRO =         0.00000000
  eigenvalues    EBANDS =      -695.43558614
  atomic energy  EATOM  =      4708.80920826
  ---------------------------------------------------
  free energy    TOTEN  =      -311.62317843 eV

  energy without entropy =     -311.62317843  energy(sigma->0) =     -311.62317843


--------------------------------------------------------------------------------------------------------




----------------------------------------- Iteration    1(   5)  ---------------------------------------


     EDDAV:  cpu time  177.90: real time  177.99
 BZINTS: Fermi energy:  4.331646;128.000000 electrons
         Band energy:-695.457985;  BLOECHL correction: -0.000030
       DOS:  cpu time    0.14: real time    0.14
    CHARGE:  cpu time    8.16: real time    8.17
    MIXING:  cpu time    0.01: real time    0.01
    --------------------------------------------
      LOOP:  cpu time  186.22: real time  186.31

 eigenvalue-minimisations  : 33924
 total energy-change (2. order) :-0.2239901E-01  (-0.2238892E-01)
 number of electron     127.9999991 magnetization 
 augmentation part        3.3867466 magnetization 

 Broyden mixing:
  rms(total) = 0.22015E+01    rms(broyden)= 0.22012E+01
  rms(prec ) = 0.26683E+01
  weight for this iteration     100.00

 Free energy of the ion-electron system (eV)
  ---------------------------------------------------
  alpha Z        PSCENC =       326.87226881
  Ewald energy   TEWEN  =     -4167.64655989
  -Hartree energ DENC   =      -892.23766581
  -exchange      EXHF   =         0.00000000
  -V(xc)+E(xc)   XCENC  =       444.83050583
  PAW double counting   =      1210.60617908    -1247.42152856
  entropy T*S    EENTRO =         0.00000000
  eigenvalues    EBANDS =      -695.45798515
  atomic energy  EATOM  =      4708.80920826
  ---------------------------------------------------
  free energy    TOTEN  =      -311.64557743 eV

  energy without entropy =     -311.64557743  energy(sigma->0) =     -311.64557743


--------------------------------------------------------------------------------------------------------




----------------------------------------- Iteration    1(   6)  ---------------------------------------


    POTLOK:  cpu time    0.60: real time    0.60
    SETDIJ:  cpu time    0.02: real time    0.02
     EDDAV:  cpu time  168.15: real time  168.24
 BZINTS: Fermi energy:  4.983885;128.000000 electrons
         Band energy:-569.156593;  BLOECHL correction:  0.000000
       DOS:  cpu time    0.08: real time    0.08
    CHARGE:  cpu time    8.56: real time    8.56
    MIXING:  cpu time    0.01: real time    0.01
    --------------------------------------------
      LOOP:  cpu time  177.41: real time  177.50

 eigenvalue-minimisations  : 31284
 total energy-change (2. order) : 0.1384272E+02  (-0.1423257E+01)
 number of electron     127.9999993 magnetization 
 augmentation part        3.2352726 magnetization 

 Broyden mixing:
  rms(total) = 0.11539E+01    rms(broyden)= 0.11539E+01
  rms(prec ) = 0.13854E+01
  weight for this iteration     100.00

 eigenvalues of (default mixing * dielectric matrix)
  average eigenvalue GAMMA=   2.0369
  2.0369

 Free energy of the ion-electron system (eV)
  ---------------------------------------------------
  alpha Z        PSCENC =       326.87226881
  Ewald energy   TEWEN  =     -4167.64655989
  -Hartree energ DENC   =     -1009.90587005
  -exchange      EXHF   =         0.00000000
  -V(xc)+E(xc)   XCENC  =       452.94129599
  PAW double counting   =      1639.17579713    -1678.89240723
  entropy T*S    EENTRO =         0.00000000
  eigenvalues    EBANDS =      -569.15659287
  atomic energy  EATOM  =      4708.80920826
  ---------------------------------------------------
  free energy    TOTEN  =      -297.80285984 eV

  energy without entropy =     -297.80285984  energy(sigma->0) =     -297.80285984


--------------------------------------------------------------------------------------------------------




----------------------------------------- Iteration    1(   7)  ---------------------------------------


    POTLOK:  cpu time    0.40: real time    0.40
    SETDIJ:  cpu time    0.01: real time    0.02
     EDDAV:  cpu time  163.94: real time  164.02
 BZINTS: Fermi energy:  5.612067;128.000000 electrons
         Band energy:-441.940280;  BLOECHL correction: -0.000000
       DOS:  cpu time    0.05: real time    0.05
    CHARGE:  cpu time    8.15: real time    8.16
    MIXING:  cpu time    0.01: real time    0.01
    --------------------------------------------
      LOOP:  cpu time  172.57: real time  172.66

 eigenvalue-minimisations  : 31164
 total energy-change (2. order) : 0.4304560E+01  (-0.1442840E+01)
 number of electron     127.9999994 magnetization 
 augmentation part        3.0752737 magnetization 

 Broyden mixing:
  rms(total) = 0.18610E+00    rms(broyden)= 0.18604E+00
  rms(prec ) = 0.20146E+00
  weight for this iteration     100.00

 eigenvalues of (default mixing * dielectric matrix)
  average eigenvalue GAMMA=   2.1488
  2.0482  2.2495

 Free energy of the ion-electron system (eV)
  ---------------------------------------------------
  alpha Z        PSCENC =       326.87226881
  Ewald energy   TEWEN  =     -4167.64655989
  -Hartree energ DENC   =     -1139.59506766
  -exchange      EXHF   =         0.00000000
  -V(xc)+E(xc)   XCENC  =       462.09253366
  PAW double counting   =      2174.90537830    -2216.99578156
  entropy T*S    EENTRO =         0.00000000
  eigenvalues    EBANDS =      -441.94027983
  atomic energy  EATOM  =      4708.80920826
  ---------------------------------------------------
  free energy    TOTEN  =      -293.49829991 eV

  energy without entropy =     -293.49829991  energy(sigma->0) =     -293.49829991


--------------------------------------------------------------------------------------------------------




----------------------------------------- Iteration    1(   8)  ---------------------------------------


    POTLOK:  cpu time    0.20: real time    0.21
    SETDIJ:  cpu time    0.02: real time    0.02
     EDDAV:  cpu time  167.71: real time  167.79
 BZINTS: Fermi energy:  5.586765;128.000000 electrons
         Band energy:-445.135058;  BLOECHL correction:  0.000000
       DOS:  cpu time    0.05: real time    0.05
    CHARGE:  cpu time    8.67: real time    8.67
    MIXING:  cpu time    0.01: real time    0.01
    --------------------------------------------
      LOOP:  cpu time  176.66: real time  176.75

 eigenvalue-minimisations  : 31044
 total energy-change (2. order) :-0.4377046E-01  (-0.3231208E-01)
 number of electron     127.9999994 magnetization 
 augmentation part        3.0702298 magnetization 

 Broyden mixing:
  rms(total) = 0.26540E-01    rms(broyden)= 0.26527E-01
  rms(prec ) = 0.32579E-01
  weight for this iteration     100.00

 eigenvalues of (default mixing * dielectric matrix)
  average eigenvalue GAMMA=   1.7784
  0.9005  2.4740  1.9605

 Free energy of the ion-electron system (eV)
  ---------------------------------------------------
  alpha Z        PSCENC =       326.87226881
  Ewald energy   TEWEN  =     -4167.64655989
  -Hartree energ DENC   =     -1137.02788196
  -exchange      EXHF   =         0.00000000
  -V(xc)+E(xc)   XCENC  =       461.96321070
  PAW double counting   =      2212.36310312    -2253.74036165
  entropy T*S    EENTRO =         0.00000000
  eigenvalues    EBANDS =      -445.13505777
  atomic energy  EATOM  =      4708.80920826
  ---------------------------------------------------
  free energy    TOTEN  =      -293.54207037 eV

  energy without entropy =     -293.54207037  energy(sigma->0) =     -293.54207037


--------------------------------------------------------------------------------------------------------




----------------------------------------- Iteration    1(   9)  ---------------------------------------


    POTLOK:  cpu time    0.41: real time    0.41
    SETDIJ:  cpu time    0.02: real time    0.02
     EDDAV:  cpu time  175.54: real time  175.63
 BZINTS: Fermi energy:  5.588634;128.000000 electrons
         Band energy:-443.676567;  BLOECHL correction:  0.000000
       DOS:  cpu time    0.06: real time    0.06
    CHARGE:  cpu time    7.93: real time    7.93
    MIXING:  cpu time    0.01: real time    0.01
    --------------------------------------------
      LOOP:  cpu time  183.97: real time  184.06

 eigenvalue-minimisations  : 32904
 total energy-change (2. order) :-0.1753486E-02  (-0.1119386E-02)
 number of electron     127.9999994 magnetization 
 augmentation part        3.0673854 magnetization 

 Broyden mixing:
  rms(total) = 0.11207E-01    rms(broyden)= 0.11205E-01
  rms(prec ) = 0.14888E-01
  weight for this iteration     100.00

 eigenvalues of (default mixing * dielectric matrix)
  average eigenvalue GAMMA=   1.6949
  2.4776  1.9972  1.0396  1.2652

 Free energy of the ion-electron system (eV)
  ---------------------------------------------------
  alpha Z        PSCENC =       326.87226881
  Ewald energy   TEWEN  =     -4167.64655989
  -Hartree energ DENC   =     -1138.65009198
  -exchange      EXHF   =         0.00000000
  -V(xc)+E(xc)   XCENC  =       462.09042406
  PAW double counting   =      2221.90353037    -2263.24603625
  entropy T*S    EENTRO =         0.00000000
  eigenvalues    EBANDS =      -443.67656724
  atomic energy  EATOM  =      4708.80920826
  ---------------------------------------------------
  free energy    TOTEN  =      -293.54382386 eV

  energy without entropy =     -293.54382386  energy(sigma->0) =     -293.54382386


--------------------------------------------------------------------------------------------------------




----------------------------------------- Iteration    1(  10)  ---------------------------------------


    POTLOK:  cpu time    0.20: real time    0.20
    SETDIJ:  cpu time    0.02: real time    0.02
     EDDAV:  cpu time  188.76: real time  188.85
 BZINTS: Fermi energy:  5.593787;128.000000 electrons
         Band energy:-443.371326;  BLOECHL correction:  0.000000
       DOS:  cpu time    0.05: real time    0.05
    CHARGE:  cpu time    8.14: real time    8.15
    MIXING:  cpu time    0.01: real time    0.01
    --------------------------------------------
      LOOP:  cpu time  197.18: real time  197.28

 eigenvalue-minimisations  : 39216
 total energy-change (2. order) :-0.7334566E-03  (-0.7090209E-03)
 number of electron     127.9999994 magnetization 
 augmentation part        3.0669342 magnetization 

 Broyden mixing:
  rms(total) = 0.79532E-02    rms(broyden)= 0.79496E-02
  rms(prec ) = 0.12015E-01
  weight for this iteration     100.00

 eigenvalues of (default mixing * dielectric matrix)
  average eigenvalue GAMMA=   1.5734
  2.5918  1.9203  1.7488  0.8029  0.8029

 Free energy of the ion-electron system (eV)
  ---------------------------------------------------
[...]
     80      13.5531      0.00000
     81      13.7823      0.00000
     82      13.7878      0.00000
     83      13.9290      0.00000
     84      13.9305      0.00000

 k-point   162 :      -0.2222    0.4444    0.5000
  band No.  band energies     occupation 
      1     -13.1858      2.00000
      2     -13.1853      2.00000
      3     -12.7584      2.00000
      4     -12.7578      2.00000
      5     -11.2405      2.00000
      6     -11.2376      2.00000
      7     -11.2370      2.00000
      8     -11.2342      2.00000
      9     -10.8596      2.00000
     10     -10.8567      2.00000
     11     -10.8562      2.00000
     12     -10.8532      2.00000
     13      -7.9490      2.00000
     14      -7.9472      2.00000
     15      -7.7832      2.00000
     16      -7.7816      2.00000
     17      -6.9191      2.00000
     18      -6.9156      2.00000
     19      -6.8280      2.00000
     20      -6.8241      2.00000
     21      -3.9647      2.00000
     22      -3.9605      2.00000
     23      -3.9588      2.00000
     24      -3.9561      2.00000
     25      -3.7610      2.00000
     26      -3.7570      2.00000
     27      -3.7552      2.00000
     28      -3.7523      2.00000
     29      -3.6472      2.00000
     30      -3.6450      2.00000
     31      -3.4737      2.00000
     32      -3.4715      2.00000
     33      -1.9271      2.00000
     34      -1.9256      2.00000
     35      -1.0134      2.00000
     36      -1.0111      2.00000
     37      -1.0084      2.00000
     38      -1.0049      2.00000
     39      -0.8927      2.00000
     40      -0.8908      2.00000
     41      -0.8881      2.00000
     42      -0.8841      2.00000
     43      -0.0644      2.00000
     44      -0.0594      2.00000
     45       0.0090      2.00000
     46       0.0134      2.00000
     47       0.2305      2.00000
     48       0.2322      2.00000
     49       0.3592      2.00000
     50       0.3615      2.00000
     51       0.3618      2.00000
     52       0.3645      2.00000
     53       0.9190      2.00000
     54       0.9235      2.00000
     55       0.9701      2.00000
     56       0.9757      2.00000
     57       2.2807      2.00000
     58       2.2835      2.00000
     59       2.2838      2.00000
     60       2.2869      2.00000
     61       3.7986      2.00000
     62       3.8014      2.00000
     63       4.6044      2.00000
     64       4.6064      2.00000
     65       6.8886      0.00000
     66       6.8923      0.00000
     67       6.9685      0.00000
     68       6.9722      0.00000
     69       9.8666      0.00000
     70       9.8704      0.00000
     71       9.8717      0.00000
     72       9.8740      0.00000
     73      10.7958      0.00000
     74      10.7992      0.00000
     75      10.8002      0.00000
     76      10.8028      0.00000
     77      13.0015      0.00000
     78      13.0065      0.00000
     79      14.0526      0.00000
     80      14.0563      0.00000
     81      14.3101      0.00000
     82      14.3141      0.00000
     83      14.3191      0.00000
     84      14.3223      0.00000

 k-point   163 :      -0.1111    0.4444    0.5000
  band No.  band energies     occupation 
      1     -13.1126      2.00000
      2     -13.1120      2.00000
      3     -12.6868      2.00000
      4     -12.6862      2.00000
      5     -11.8077      2.00000
      6     -11.8072      2.00000
      7     -11.4129      2.00000
      8     -11.4123      2.00000
      9     -10.5355      2.00000
     10     -10.5350      2.00000
     11     -10.1722      2.00000
     12     -10.1717      2.00000
     13      -8.7275      2.00000
     14      -8.7271      2.00000
     15      -8.4221      2.00000
     16      -8.4216      2.00000
     17      -6.2114      2.00000
     18      -6.2093      2.00000
     19      -5.9948      2.00000
     20      -5.9929      2.00000
     21      -4.5474      2.00000
     22      -4.5457      2.00000
     23      -4.3494      2.00000
     24      -4.3478      2.00000
     25      -3.5367      2.00000
     26      -3.5349      2.00000
     27      -3.3729      2.00000
     28      -3.3710      2.00000
     29      -3.2948      2.00000
     30      -3.2943      2.00000
     31      -3.0969      2.00000
     32      -3.0964      2.00000
     33      -2.0837      2.00000
     34      -2.0818      2.00000
     35      -1.9469      2.00000
     36      -1.9448      2.00000
     37      -1.8400      2.00000
     38      -1.8385      2.00000
     39      -0.4149      2.00000
     40      -0.4131      2.00000
     41      -0.3042      2.00000
     42      -0.3013      2.00000
     43      -0.2919      2.00000
     44      -0.2908      2.00000
     45      -0.1494      2.00000
     46      -0.1491      2.00000
     47      -0.0486      2.00000
     48      -0.0483      2.00000
     49       0.3094      2.00000
     50       0.3113      2.00000
     51       0.9873      2.00000
     52       0.9891      2.00000
     53       1.0665      2.00000
     54       1.0679      2.00000
     55       1.1701      2.00000
     56       1.1715      2.00000
     57       1.6982      2.00000
     58       1.6999      2.00000
     59       2.9844      2.00000
     60       2.9860      2.00000
     61       3.1436      2.00000
     62       3.1448      2.00000
     63       4.4751      2.00000
     64       4.4769      2.00000
     65       7.0135      0.00000
     66       7.0168      0.00000
     67       7.7278      0.00000
     68       7.7294      0.00000
     69       8.9509      0.00000
     70       8.9533      0.00000
     71       9.7970      0.00000
     72       9.7985      0.00000
     73      10.7622      0.00000
     74      10.7650      0.00000
     75      11.7230      0.00000
     76      11.7248      0.00000
     77      13.0444      0.00000
     78      13.0508      0.00000
     79      13.5460      0.00000
     80      13.5473      0.00000
     81      13.7824      0.00000
     82      13.7872      0.00000
     83      13.9242      0.00000
     84      13.9253      0.00000


--------------------------------------------------------------------------------------------------------


 soft charge-density along one line, spin component           1
         0         1         2         3         4         5         6         7         8         9
 total charge-density along one line
 
 pseudopotential strength for first ion, spin component:           1
  9.715   0.003  -0.000   0.000   0.000   0.000  -0.000  -0.000
  0.003  -0.002  -0.000   0.000   0.000   0.000  -0.000  -0.000
 -0.000  -0.000  -3.893  -0.000   0.000  -0.015  -0.000   0.000
  0.000   0.000  -0.000  -3.888  -0.000  -0.000  -0.011   0.000
  0.000   0.000   0.000  -0.000  -3.893   0.000   0.000  -0.015
  0.000   0.000  -0.015  -0.000   0.000  -0.762  -0.000   0.000
 -0.000  -0.000  -0.000  -0.011   0.000  -0.000  -0.762  -0.000
 -0.000  -0.000   0.000   0.000  -0.015   0.000  -0.000  -0.762
 total augmentation occupancy for first ion, spin component:           1
  1.472  -1.104  -0.000   0.000   0.000  -0.000  -0.000   0.000
 -1.104   1.037   0.000   0.000  -0.000   0.000   0.000  -0.000
 -0.000   0.000   1.224  -0.000  -0.000   0.224   0.000  -0.000
  0.000   0.000  -0.000   0.923  -0.000   0.000   0.102  -0.000
  0.000  -0.000  -0.000  -0.000   1.224  -0.000  -0.000   0.224
 -0.000   0.000   0.224   0.000  -0.000   0.047   0.000  -0.000
 -0.000   0.000   0.000   0.102  -0.000   0.000   0.013   0.000
  0.000  -0.000  -0.000  -0.000   0.224  -0.000   0.000   0.047


------------------------ aborting loop because EDIFF is reached ----------------------------------------


    CHARGE:  cpu time    8.12: real time    8.12
    FORLOC:  cpu time    0.05: real time    0.05
    FORNL :  cpu time   48.43: real time   48.45
    STRESS:  cpu time   89.55: real time   89.60
    FORHAR:  cpu time    0.28: real time    0.28
    MIXING:  cpu time    0.01: real time    0.01
    OFIELD:  cpu time    0.00: real time    0.00

 ---------------------------------------------------------------------------------------------

         DFTD3 V3.0 Rev 1        
 IVDW         = 11
 DF pbe       
 parameters
 VDW_S6       =    1.0000
 VDW_S8       =    0.7220
 VDW_SR       =    1.2170
 rs18     =    1.0000
 alpha6   =   14.0000
 alpha8   =   16.0000
 k1-k3    =   16.0000    1.3333   -4.0000
 VDW_RADIUS   =   50.2022 A
 VDW_CNRADIUS =   21.1671 A
 Edisp (eV)   -3.45775

 E6    (eV) :    -2.0423
 E8    (eV) :    -1.4155
 % E8        : 40.94
    FORVDW:  cpu time    0.57: real time    0.57

  FORCE on cell =-STRESS in cart. coord.  units (eV):
  Direction    XX          YY          ZZ          XY          YZ          ZX
  --------------------------------------------------------------------------------------
  Alpha Z   326.87227   326.87227   326.87227
  Ewald     135.58482   135.18644 -4438.43800    -1.17291     0.00005    -0.00863
  Hartree   959.70810   959.65984  -779.88549    -0.15707    -0.00001    -0.00178
  E(xc)    -468.60180  -468.60394  -484.10106    -0.00498    -0.00000    -0.00001
  Local   -2752.85537 -2752.48286  3295.00521     1.10816    -0.00000     0.00834
  n-local  -112.01220  -112.02751  -103.41920    -0.01979     0.00001    -0.00003
  augment   -12.36892   -12.36824   -11.33483     0.00188    -0.00000     0.00002
  Kinetic  1922.21693  1922.35092  2211.66296     0.23465    -0.00008     0.00149
  Fock        0.00000     0.00000     0.00000     0.00000     0.00000     0.00000
  vdW        -0.33347    -0.33270    -3.14517     0.00092    -0.00000    -0.00001
  -------------------------------------------------------------------------------------
  Total      -1.78963    -1.74580    13.21669    -0.00914    -0.00003    -0.00061
  in kB     -11.23312   -10.95799    82.95824    -0.05739    -0.00019    -0.00382
  external pressure =       20.26 kB  Pullay stress =        0.00 kB


 VOLUME and BASIS-vectors are now :
 -----------------------------------------------------------------------------
  energy-cutoff  :      600.00
  volume of cell :      255.25
      direct lattice vectors                 reciprocal lattice vectors
     4.934310885 -0.000222400  0.000000000     0.202667819  0.117022500  0.000000000
    -2.467348046  4.273127376  0.000000000     0.000010548  0.234026730  0.000000000
     0.000000000  0.000000000 12.106336162     0.000000000  0.000000000  0.082601374

  length of vectors
     4.934310890  4.934310890 12.106336162     0.234026730  0.234026730  0.082601374


 FORCES acting on ions
    electron-ion (+dipol)            ewald-force                    non-local-force                 convergence-correction
 -----------------------------------------------------------------------------------------------
   0.818E-01 0.780E-03 -.301E+00   -.865E-01 0.125E-02 0.306E+00   -.347E-02 0.120E-02 -.739E-02   -.350E-04 0.405E-05 -.684E-02
   -.259E+00 -.706E-02 -.818E+00   0.252E+00 0.993E-02 0.854E+00   -.311E-01 0.978E-03 -.711E-01   0.289E-04 0.136E-04 -.683E-02
   0.362E+00 0.358E+00 -.813E+00   -.428E+00 -.390E+00 0.849E+00   -.212E-01 0.686E-02 -.708E-01   -.210E-04 -.214E-04 -.683E-02
   0.352E+00 -.353E+00 -.822E+00   -.418E+00 0.389E+00 0.859E+00   -.223E-01 -.398E-02 -.713E-01   -.954E-05 0.182E-04 -.683E-02
   -.293E-03 0.424E-03 0.998E-01   -.285E-02 0.154E-02 -.104E+00   -.202E-02 0.121E-02 0.341E-02   -.863E-04 0.198E-04 0.474E-02
   -.593E-03 0.433E-03 0.101E+00   -.254E-02 0.153E-02 -.105E+00   -.203E-02 0.121E-02 0.325E-02   -.101E-03 0.165E-04 0.474E-02
   -.447E-03 0.505E-03 0.101E+00   -.269E-02 0.145E-02 -.105E+00   -.202E-02 0.122E-02 0.325E-02   -.873E-04 0.295E-04 0.474E-02
   -.427E-03 0.320E-03 0.101E+00   -.270E-02 0.163E-02 -.105E+00   -.202E-02 0.121E-02 0.325E-02   -.995E-04 0.259E-04 0.474E-02
   -.311E-01 0.141E-01 0.990E-01   0.344E-01 -.160E-01 -.101E+00   0.204E-02 -.121E-02 -.443E-02   0.263E-04 -.142E-04 0.140E-02
   0.336E-01 0.225E-01 0.125E+00   -.305E-01 -.246E-01 -.127E+00   0.195E-02 -.123E-02 -.448E-02   0.207E-04 -.190E-04 0.140E-02
   -.599E-02 -.377E-01 0.112E+00   0.940E-02 0.359E-01 -.114E+00   0.200E-02 -.114E-02 -.445E-02   0.346E-04 -.501E-05 0.140E-02
   0.617E-02 -.375E-03 0.741E-01   -.320E-02 -.158E-02 -.760E-01   0.212E-02 -.119E-02 -.275E-02   0.222E-04 -.890E-05 0.140E-02
   0.342E-01 -.236E-01 0.126E+00   -.309E-01 0.219E-01 -.127E+00   0.199E-02 -.116E-02 -.449E-02   -.107E-04 -.122E-04 0.667E-03
   -.313E-01 -.150E-01 0.994E-01   0.348E-01 0.130E-01 -.100E+00   0.208E-02 -.117E-02 -.444E-02   0.255E-04 0.108E-05 0.667E-03
   -.597E-02 0.374E-01 0.113E+00   0.960E-02 -.395E-01 -.114E+00   0.204E-02 -.125E-02 -.447E-02   -.425E-05 -.220E-04 0.667E-03
   0.645E-02 -.382E-03 0.744E-01   -.336E-02 -.157E-02 -.756E-01   0.219E-02 -.120E-02 -.274E-02   0.208E-04 -.127E-06 0.669E-03
   -.824E+00 0.335E-02 0.138E+01   0.955E+00 -.613E-02 -.142E+01   0.106E+00 -.134E-02 0.186E+00   0.790E-04 -.105E-04 -.690E-02
   0.221E+00 -.876E-04 -.361E+00   -.236E+00 -.157E-02 0.352E+00   -.179E-01 -.120E-02 0.221E-01   -.871E-05 -.127E-04 -.680E-02
   0.285E-01 -.111E+00 -.361E+00   -.178E-01 0.124E+00 0.352E+00   -.579E-02 0.586E-02 0.221E-01   0.286E-04 0.248E-04 -.680E-02
   0.286E-01 0.111E+00 -.361E+00   -.178E-01 -.127E+00 0.352E+00   -.589E-02 -.803E-02 0.221E-01   0.205E-04 -.248E-04 -.681E-02
   -.138E-02 0.492E-03 0.102E+00   0.308E-02 -.158E-02 -.107E+00   0.156E-02 -.916E-03 -.951E-03   0.229E-03 -.115E-03 0.477E-02
   -.716E-03 0.488E-03 0.999E-01   0.246E-02 -.158E-02 -.105E+00   0.155E-02 -.917E-03 -.533E-03   0.238E-03 -.107E-03 0.477E-02
   -.104E-02 0.306E-03 0.999E-01   0.277E-02 -.140E-02 -.105E+00   0.156E-02 -.911E-03 -.533E-03   0.230E-03 -.119E-03 0.477E-02
   -.104E-02 0.674E-03 0.999E-01   0.277E-02 -.176E-02 -.105E+00   0.156E-02 -.918E-03 -.533E-03   0.237E-03 -.109E-03 0.477E-02
   0.347E-01 -.236E-01 0.125E+00   -.359E-01 0.246E-01 -.127E+00   -.191E-02 0.116E-02 0.498E-03   -.118E-03 0.625E-04 0.137E-02
   -.313E-01 -.149E-01 0.991E-01   0.290E-01 0.160E-01 -.101E+00   -.129E-02 0.120E-02 -.190E-03   -.109E-03 0.695E-04 0.137E-02
   -.586E-02 0.379E-01 0.112E+00   0.397E-02 -.359E-01 -.114E+00   -.163E-02 0.640E-03 0.157E-03   -.113E-03 0.504E-04 0.137E-02
   0.683E-02 -.222E-03 0.745E-01   -.864E-02 0.163E-02 -.760E-01   -.139E-02 0.100E-02 0.774E-03   -.105E-03 0.552E-04 0.137E-02
   -.318E-01 0.146E-01 0.995E-01   0.293E-01 -.129E-01 -.100E+00   -.129E-02 0.799E-03 -.227E-03   -.658E-04 0.526E-04 0.638E-03
   0.350E-01 0.236E-01 0.126E+00   -.364E-01 -.218E-01 -.127E+00   -.192E-02 0.840E-03 0.551E-03   -.986E-04 0.455E-04 0.635E-03
   -.610E-02 -.388E-01 0.113E+00   0.416E-02 0.396E-01 -.114E+00   -.164E-02 0.137E-02 0.170E-03   -.764E-04 0.642E-04 0.638E-03
   0.693E-02 -.204E-03 0.748E-01   -.879E-02 0.163E-02 -.756E-01   -.137E-02 0.100E-02 0.816E-03   -.868E-04 0.455E-04 0.636E-03
 -----------------------------------------------------------------------------------------------
   -.228E-03 -.178E-05 -.128E-01   0.661E-14 -.169E-13 0.362E-13   0.188E-03 0.121E-04 0.131E-01   0.694E-05 -.290E-05 -.307E-03
 
 
 POSITION                                       TOTAL-FORCE (eV/Angst)
 -----------------------------------------------------------------------------------
      2.46715     -0.00011      1.51329        -0.008212      0.003231     -0.009167
      4.93431     -0.00022      1.51329        -0.038438      0.003858     -0.041256
      1.23348      2.13645      1.51329        -0.087220     -0.024859     -0.041732
      3.70064      2.13634      1.51329        -0.087908      0.031865     -0.040729
      2.46715     -0.00011      7.56646        -0.005244      0.003195      0.003651
      4.93431     -0.00022      7.56646        -0.005255      0.003196      0.003584
      1.23348      2.13645      7.56646        -0.005243      0.003201      0.003584
      3.70064      2.13634      7.56646        -0.005241      0.003186      0.003585
     -1.23367      2.13656      4.53988         0.005477     -0.003174     -0.004686
      1.23348      2.13645      4.53988         0.005002     -0.003416     -0.005397
     -2.46735      4.27313      4.53988         0.005448     -0.002892     -0.005042
     -0.00019      4.27302      4.53988         0.005109     -0.003158     -0.003269
     -1.23367      2.13656     10.59304         0.005151     -0.002856     -0.005467
      1.23348      2.13645     10.59304         0.005635     -0.003184     -0.004739
     -2.46735      4.27313     10.59304         0.005676     -0.003427     -0.005101
     -0.00019      4.27302     10.59304         0.005281     -0.003152     -0.003288
     -0.00397      1.42441      1.50403         0.238302     -0.004130      0.139453
      2.46696      1.42430      1.51329        -0.033777     -0.002868      0.006360
     -1.23387      3.56098      1.51329         0.004676      0.019313      0.006296
      1.23329      3.56086      1.51329         0.004799     -0.025170      0.006440
     -0.00019      1.42441      7.56646         0.003498     -0.002123     -0.000755
      2.46696      1.42430      7.56646         0.003539     -0.002122     -0.000410
     -1.23387      3.56098      7.56646         0.003527     -0.002130     -0.000410
      1.23329      3.56086      7.56646         0.003528     -0.002117     -0.000411
      1.23367      0.71204      4.53988        -0.003346      0.002296     -0.000314
      3.70083      0.71193      4.53988        -0.003692      0.002424     -0.000424
     -0.00000      2.84860      4.53988        -0.003632      0.002656     -0.000366
      2.46715      2.84849      4.53988        -0.003313      0.002460      0.000615
      1.23367      0.71204     10.59304        -0.003745      0.002526     -0.000494
      3.70083      0.71193     10.59304        -0.003404      0.002621     -0.000324
     -0.00000      2.84860     10.59304        -0.003657      0.002278     -0.000402
      2.46715      2.84849     10.59304        -0.003324      0.002471      0.000616
 -----------------------------------------------------------------------------------
    total drift:                               -0.000033      0.000007      0.000022


--------------------------------------------------------------------------------------------------------



  FREE ENERGIE OF THE ION-ELECTRON SYSTEM (eV)
  ---------------------------------------------------
  free  energy   TOTEN  =      -297.00224934 eV

  energy  without entropy=     -297.00224934  energy(sigma->0) =     -297.00224934
 


--------------------------------------------------------------------------------------------------------


    POTLOK:  cpu time    0.21: real time    0.21


--------------------------------------------------------------------------------------------------------


     LOOP+:  cpu time 3804.20: real time 3806.21
    4ORBIT:  cpu time    0.00: real time    0.00
 BZINTS: Fermi energy:  5.594921;128.000000 electrons
         Band energy:-442.926701;  BLOECHL correction: -0.000001

 total amount of memory used by VASP on root node   471290. kBytes
========================================================================

   base      :      30000. kBytes
   nonl-proj :      93833. kBytes
   fftplans  :       7980. kBytes
   grid      :      16906. kBytes
   one-center:         98. kBytes
   wavefun   :     322473. kBytes
 
  
  
 General timing and accounting informations for this job:
 ========================================================
  
                  Total CPU time used (sec):     3840.800
                            User time (sec):     3237.272
                          System time (sec):      603.528
                         Elapsed time (sec):     3843.003
  
                   Maximum memory used (kb):      586968.
                   Average memory used (kb):           0.
  
                          Minor page faults:     72007667
                          Major page faults:            0
                 Voluntary context switches:         1272
