    4    4  200    1
  0.5760957E+01  0.2467155E-09  0.2467155E-09  0.4371733E-09  0.5000000E-15
  1.000000000000000E-004
  CAR 
 graphite                                
     16    455     12
 
  0.0000000E+00  0.0000000E+00  0.0000000E+00  0.3858025E-03
    1      -12.074211
    2       -8.153096
    3       -2.171942
    4        6.041139
    5        6.046057
    6        6.686486
    7        6.690987
    8        8.529817
    9       17.199027
   10       17.201742
   11       18.177656
   12       18.181414
 
  0.5555556E-01 -0.6938894E-17  0.0000000E+00  0.1543210E-02
    1      -11.996807
    2       -8.085588
    3       -2.080661
    4        5.666515
    5        5.831087
    6        6.462758
    7        6.591154
    8        8.590096
    9       17.149734
   10       17.493772
   11       18.224596
   12       18.514394
 
  0.1111111E+00 -0.1387779E-16  0.0000000E+00  0.1543210E-02
    1      -11.764827
    2       -7.883648
    3       -1.807955
    4        4.676603
    5        5.314706
    6        5.795299
    7        6.285454
    8        8.766846
    9       16.895255
   10       17.877081
   11       18.340827
   12       18.416458
 
  0.1666667E+00 -0.4163336E-16  0.0000000E+00  0.1543210E-02
    1      -11.379348
    2       -7.548297
    3       -1.355675
    4        3.314520
    5        4.669052
    6        4.788520
    7        5.818730
    8        9.043424
    9       16.447599
   10       16.621834
   11       18.682407
   12       19.648947
 
  0.2222222E+00 -0.1387779E-16  0.0000000E+00  0.1543210E-02
    1      -10.841933
    2       -7.081569
    3       -0.727761
    4        1.764861
    5        3.576893
    6        4.012916
    7        5.288998
    8        9.377237
    9       15.122616
   10       15.942420
   11       18.882988
   12       19.171976
 
  0.2777778E+00  0.0000000E+00  0.0000000E+00  0.1543210E-02
    1      -10.155512
    2       -6.487338
    3        0.068430
    4        0.149617
    5        2.266987
    6        3.417147
    7        4.778164
    8        9.640921
    9       13.641332
   10       15.469562
   11       18.098052
   12       18.982571
 
  0.3333333E+00 -0.2775558E-16  0.0000000E+00  0.1543210E-02
    1       -9.324689
    2       -5.773482
    3       -1.448986
    4        0.932705
    5        1.018599
    6        2.924157
    7        4.340847
    8        9.450088
    9       12.677338
   10       15.074877
   11       17.062258
   12       19.009975
 
  0.3888889E+00 -0.5551115E-16  0.0000000E+00  0.1543210E-02
    1       -8.357398
    2       -4.972989
    3       -2.953055
    4       -0.374829
    5        2.089604
    6        2.558351
    7        4.009981
    8        8.465111
    9       12.658250
   10       14.781785
   11       16.081084
   12       19.002975
 
  0.4444444E+00 -0.2775558E-16  0.0000000E+00  0.1543210E-02
    1       -7.277852
    2       -4.709401
    3       -3.699198
    4       -1.616287
    5        2.334112
    6        3.173843
    7        3.804886
    8        7.211292
    9       13.157321
   10       14.602209
   11       15.195254
   12       18.988738
 
  0.5000000E+00  0.0000000E+00  0.0000000E+00  0.7716049E-03
    1       -6.396439
    2       -5.575109
    3       -2.907912
    4       -2.641000
    5        2.258329
    6        3.735344
    7        3.782378
    8        6.520873
    9       13.558635
   10       14.541907
   11       14.689573
   12       18.982366
 
  0.5555556E-01  0.5555556E-01  0.0000000E+00  0.7716049E-03
    1      -11.842100
    2       -7.950863
    3       -1.898644
    4        5.056396
    5        5.363724
    6        6.105348
    7        6.328396
    8        8.708722
    9       17.172078
   10       17.740636
   11       18.152013
   12       18.532667
 
  0.1111111E+00  0.5555556E-01  0.0000000E+00  0.1543210E-02
    1      -11.533359
    2       -7.682199
    3       -1.536117
    4        3.958132
    5        4.639605
    6        5.389182
    7        5.883014
    8        8.936765
    9       16.983120
   10       17.122365
   11       18.224381
   12       19.180081
 
  0.1666667E+00  0.5555556E-01  0.0000000E+00  0.1543210E-02
    1      -11.071894
    2       -7.281120
    3       -0.995842
    4        2.536456
    5        3.830371
    6        4.425556
    7        5.358674
    8        9.248413
    9       15.763811
   10       16.540685
   11       18.849120
   12       19.518130
 
  0.2222222E+00  0.5555556E-01  0.0000000E+00  0.1543210E-02
    1      -10.459977
    2       -6.750568
    3       -0.283285
    4        0.971254
    5        2.810958
    6        3.551561
    7        4.823986
    8        9.574575
    9       14.263140
   10       16.061659
   11       18.432029
   12       19.171470
 
  0.2777778E+00  0.5555556E-01  0.0000000E+00  0.1543210E-02
    1       -9.701115
    2       -6.095768
    3       -0.627063
    4        0.591417
    5        1.573550
    6        2.918949
    7        4.341838
    8        9.691589
    9       12.962595
   10       15.631775
   11       17.389971
   12       19.285088
 
  0.3333333E+00  0.5555556E-01  0.0000000E+00  0.1543210E-02
    1       -8.801569
    2       -5.331636
    3       -2.181237
    4        0.282949
    5        1.607192
    6        2.457552
    7        3.953487
    8        9.098363
    9       12.461027
   10       15.289431
   11       16.414164
   12       19.308548
 
  0.3888889E+00  0.5555556E-01  0.0000000E+00  0.1543210E-02
    1       -7.773992
    2       -4.575570
    3       -3.530991
    4       -0.979077
    5        2.149032
    6        2.707228
    7        3.683441
    8        7.886812
    9       12.746791
   10       15.053585
   11       15.525199
   12       19.300634
 
  0.4444444E+00  0.5555556E-01  0.0000000E+00  0.1543210E-02
    1       -6.680863
    2       -5.177751
    3       -3.264058
    4       -2.162502
    5        1.994048
    6        3.545321
    7        3.664121
    8        6.781839
    9       13.225840
   10       14.835010
   11       14.933771
   12       19.290531
 
  0.5000000E+00  0.5555556E-01  0.0000000E+00  0.1543210E-02
    1       -6.681049
    2       -5.177561
    3       -3.264250
    4       -2.162294
    5        1.994024
    6        3.545284
    7        3.664057
    8        6.781907
    9       13.225806
   10       14.834968
   11       14.933851
   12       19.290630
 
 -0.4444444E+00  0.5555556E-01  0.0000000E+00  0.1543210E-02
    1       -7.774189
    2       -4.575670
    3       -3.530841
    4       -0.978890
    5        2.148981
    6        2.707118
    7        3.683334
    8        7.886936
    9       12.746680
   10       15.053825
   11       15.525078
   12       19.300948
 
 -0.3888889E+00  0.5555556E-01  0.0000000E+00  0.1543210E-02
    1       -8.801745
    2       -5.331801
    3       -2.181001
    4        0.283032
    5        1.607080
    6        2.457554
    7        3.953326
    8        9.098513
    9       12.460813
   10       15.289833
   11       16.413974
   12       19.309140
 
 -0.3333333E+00  0.5555556E-01  0.0000000E+00  0.1543210E-02
    1       -9.701265
    2       -6.095914
    3       -0.626852
    4        0.591315
    5        1.573321
    6        2.919226
    7        4.341656
    8        9.691723
    9       12.962289
   10       15.632341
   11       17.389737
   12       19.286112
 
 -0.2777778E+00  0.5555556E-01  0.0000000E+00  0.1543210E-02
    1      -10.460101
    2       -6.750689
    3       -0.283373
    4        0.971372
    5        2.809835
    6        3.552727
    7        4.823851
    8        9.574649
    9       14.262755
   10       16.062393
   11       18.431793
   12       19.173323
 
 -0.2222222E+00  0.5555556E-01  0.0000000E+00  0.1543210E-02
    1      -11.071991
    2       -7.281215
    3       -0.995912
    4        2.536336
    5        3.828320
    6        4.427697
    7        5.358734
    8        9.248448
    9       15.763314
   10       16.541615
   11       18.852584
   12       19.517684
 
 -0.1666667E+00  0.5555556E-01  0.0000000E+00  0.1543210E-02
    1      -11.533428
    2       -7.682267
    3       -1.536168
    4        3.957337
    5        4.638368
    6        5.390637
    7        5.883677
    8        8.936782
    9       16.984429
   10       17.121797
   11       18.228160
   12       19.179304
 
 -0.1111111E+00  0.5555556E-01  0.0000000E+00  0.1543210E-02
    1      -11.842142
    2       -7.950904
    3       -1.898676
    4        5.053595
    5        5.365246
    6        6.104150
    7        6.331008
    8        8.708728
    9       17.174728
   10       17.741069
   11       18.151545
   12       18.533668
 
 -0.5555556E-01  0.5555556E-01  0.0000000E+00  0.7716049E-03
    1      -11.996821
    2       -8.085602
    3       -2.080672
    4        5.662939
    5        5.834652
    6        6.459469
    7        6.594526
    8        8.590098
    9       17.152233
   10       17.491696
   11       18.227307
   12       18.511636
 
  0.1111111E+00  0.1111111E+00  0.0000000E+00  0.7716049E-03
    1      -11.148658
    2       -7.347809
    3       -1.085485
    4        3.012204
    5        3.623015
    6        4.801364
    7        5.206492
    8        9.203858
    9       16.014017
   10       17.419081
   11       18.124651
   12       19.591925
 
  0.1666667E+00  0.1111111E+00  0.0000000E+00  0.1543210E-02
    1      -10.612626
    2       -6.882826
    3       -0.460046
    4        1.719017
    5        2.708279
    6        3.880535
    7        4.564468
    8        9.531632
    9       14.668917
   10       17.246811
   11       18.485157
   12       18.883864
 
  0.2222222E+00  0.1111111E+00  0.0000000E+00  0.1543210E-02
    1       -9.928232
    2       -6.291188
    3        0.220681
    4        0.332679
    5        1.851464
    6        2.864520
    7        4.018371
    8        9.813424
    9       13.267648
   10       16.838956
   11       17.423936
   12       19.776162
 
  0.2777778E+00  0.1111111E+00  0.0000000E+00  0.1543210E-02
    1       -9.100283
    2       -5.581704
    3       -1.316231
    4        0.842377
    5        1.278271
    6        2.073776
    7        3.567445
    8        9.679414
    9       12.265831
   10       16.466992
   11       16.477567
   12       20.101691
 
  0.3333333E+00  0.1111111E+00  0.0000000E+00  0.1543210E-02
    1       -8.137753
    2       -4.787170
    3       -2.784332
    4       -0.320121
    5        1.584489
    6        2.343330
    7        3.231399
    8        8.704212
    9       12.165605
   10       15.665387
   11       16.182715
   12       20.159476
 
  0.3888889E+00  0.1111111E+00  0.0000000E+00  0.1543210E-02
    1       -7.064674
    2       -4.518371
    3       -3.523097
    4       -1.497747
    5        1.314604
    6        3.024655
    7        3.420132
    8        7.448452
    9       12.483107
   10       15.035315
   11       16.006340
   12       20.159801
 
  0.4444444E+00  0.1111111E+00  0.0000000E+00  0.1543210E-02
    1       -6.194370
    2       -5.367262
    3       -2.736346
    4       -2.504619
    5        1.227217
    6        2.955013
    7        4.022914
    8        6.761689
    9       12.674522
   10       14.765005
   11       15.946776
   12       20.156069
 
  0.5000000E+00  0.1111111E+00  0.0000000E+00  0.1543210E-02
    1       -7.065076
    2       -4.518076
    3       -3.523331
    4       -1.497379
    5        1.314591
    6        3.024534
    7        3.419943
    8        7.448646
    9       12.482956
   10       15.035194
   11       16.006626
   12       20.160202
 
 -0.4444444E+00  0.1111111E+00  0.0000000E+00  0.1543210E-02
    1       -8.138126
    2       -4.787493
    3       -2.783901
    4       -0.319952
    5        1.584605
    6        2.343110
    7        3.231180
    8        8.704474
    9       12.165258
   10       15.665165
   11       16.183295
   12       20.160425
 
 -0.3888889E+00  0.1111111E+00  0.0000000E+00  0.1543210E-02
    1       -9.100609
    2       -5.582016
    3       -1.315822
    4        0.841954
    5        1.278060
    6        2.074424
    7        3.567187
    8        9.679733
    9       12.265221
   10       16.467887
   11       16.477289
   12       20.103713
 
 -0.3333333E+00  0.1111111E+00  0.0000000E+00  0.1543210E-02
    1       -9.928506
    2       -6.291455
    3        0.220895
    4        0.332492
    5        1.850143
    6        2.866051
    7        4.018215
    8        9.813638
    9       13.266870
   10       16.840225
   11       17.423675
   12       19.780681
 
 -0.2777778E+00  0.1111111E+00  0.0000000E+00  0.1543210E-02
    1      -10.612847
    2       -6.883042
    3       -0.460202
    4        1.718627
    5        2.706907
    6        3.882181
    7        4.564816
    8        9.531739
    9       14.667938
   10       17.248687
   11       18.484986
   12       18.889170
 
 -0.2222222E+00  0.1111111E+00  0.0000000E+00  0.1543210E-02
    1      -11.148824
    2       -7.347971
    3       -1.085606
    4        3.010173
    5        3.622907
    6        4.801784
    7        5.208494
    8        9.203909
    9       16.012860
   10       17.423065
   11       18.127395
   12       19.606726
 
 -0.1666667E+00  0.1111111E+00  0.0000000E+00  0.1543210E-02
    1      -11.533470
    2       -7.682307
    3       -1.536199
    4        3.954892
    5        4.640816
    6        5.388323
    7        5.886261
    8        8.936788
    9       16.987238
   10       17.121246
   11       18.226486
   12       19.180399
 
 -0.1111111E+00  0.1111111E+00  0.0000000E+00  0.7716049E-03
    1      -11.764883
    2       -7.883702
    3       -1.807997
    4        4.673239
    5        5.318116
    6        5.792188
    7        6.288814
    8        8.766854
    9       16.898495
   10       17.876358
   11       18.338693
   12       18.419199
 
  0.1666667E+00  0.1666667E+00  0.0000000E+00  0.7716049E-03
    1      -10.004068
    2       -6.356611
    3        0.246082
    4        0.782307
    5        1.562230
    6        3.167679
    7        3.664159
    8        9.847933
    9       13.407584
   10       17.387311
   11       18.191217
   12       18.799479
 
  0.2222222E+00  0.1666667E+00  0.0000000E+00  0.1543210E-02
    1       -9.250395
    2       -5.708805
    3       -0.483070
    4        0.704154
    5        1.111939
    6        2.185997
    7        3.011501
    8       10.051916
    9       12.136096
   10       16.421702
   11       18.077231
   12       19.943128
 
  0.2777778E+00  0.1666667E+00  0.0000000E+00  0.1543210E-02
    1       -8.358535
    2       -4.955253
    3       -1.901000
    4       -0.023425
    5        1.201050
    6        2.115837
    7        2.576635
    8        9.575829
    9       11.465321
   10       15.670519
   11       17.772263
   12       21.181351
 
  0.3333333E+00  0.1666667E+00  0.0000000E+00  0.1543210E-02
    1       -7.342342
    2       -4.210497
    3       -3.188954
    4       -0.905950
    5        0.552834
    6        2.290856
    7        3.200171
    8        8.351241
    9       11.537050
   10       15.150910
   11       17.545907
   12       21.446891
 
  0.3888889E+00  0.1666667E+00  0.0000000E+00  0.1543210E-02
    1       -6.267766
    2       -4.778548
    3       -2.942422
    4       -1.932906
    5        0.281320
    6        2.147771
    7        4.138412
    8        7.254221
    9       11.680630
   10       14.878448
   11       17.428318
   12       21.456357
 
  0.4444444E+00  0.1666667E+00  0.0000000E+00  0.1543210E-02
    1       -6.268308
    2       -4.778005
    3       -2.942969
    4       -1.932416
    5        0.281404
    6        2.147704
    7        4.138242
    8        7.254375
    9       11.680537
   10       14.878381
   11       17.428500
   12       21.456638
 
  0.5000000E+00  0.1666667E+00  0.0000000E+00  0.1543210E-02
    1       -7.342925
    2       -4.210792
    3       -3.188563
    4       -0.905845
    5        0.553287
    6        2.290680
    7        3.199872
    8        8.351522
    9       11.536721
   10       15.150738
   11       17.546468
   12       21.448072
 
 -0.4444444E+00  0.1666667E+00  0.0000000E+00  0.1543210E-02
    1       -8.359058
    2       -4.955738
    3       -1.900476
    4       -0.024071
    5        1.202221
    6        2.115527
    7        2.576446
    8        9.576277
    9       11.464537
   10       15.670318
   11       17.773267
   12       21.186453
 
 -0.3888889E+00  0.1666667E+00  0.0000000E+00  0.1543210E-02
    1       -9.250844
    2       -5.709239
    3       -0.482992
    4        0.703294
    5        1.111651
    6        2.187395
    7        3.011624
    8       10.052368
    9       12.134904
   10       16.421575
   11       18.078921
   12       19.949194
 
 -0.3333333E+00  0.1666667E+00  0.0000000E+00  0.1543210E-02
    1      -10.004438
    2       -6.356972
    3        0.245832
    4        0.780984
    5        1.562194
    6        3.168174
    7        3.665692
    8        9.848158
    9       13.406161
   10       17.387335
   11       18.196027
   12       18.802429
 
 -0.2777778E+00  0.1666667E+00  0.0000000E+00  0.1543210E-02
    1      -10.612915
    2       -6.883109
    3       -0.460248
    4        1.716562
    5        2.708555
    6        3.880695
    7        4.567166
    8        9.531741
    9       14.667243
   10       17.252077
   11       18.485323
   12       18.886931
 
 -0.2222222E+00  0.1666667E+00  0.0000000E+00  0.1543210E-02
    1      -11.072101
    2       -7.281323
    3       -0.995990
    4        2.533589
    5        3.830022
    6        4.426387
    7        5.361791
    8        9.248464
    9       15.762093
   10       16.545108
   11       18.853442
   12       19.518438
 
 -0.1666667E+00  0.1666667E+00  0.0000000E+00  0.7716049E-03
    1      -11.379472
    2       -7.548419
    3       -1.355766
    4        3.311453
    5        4.672341
    6        4.785663
    7        5.822016
    8        9.043446
    9       16.451287
   10       16.620454
   11       18.685603
   12       19.646778
 
  0.2222222E+00  0.2222222E+00  0.0000000E+00  0.7716049E-03
    1       -8.432435
    2       -5.014660
    3       -1.278475
    4       -0.393724
    5        1.507938
    6        2.038694
    7        2.044159
    8       10.201959
    9       10.901886
   10       15.654565
   11       19.452894
   12       19.798938
 
  0.2777778E+00  0.2222222E+00  0.0000000E+00  0.1543210E-02
    1       -7.484393
    2       -4.241735
    3       -2.403231
    4       -1.080217
    5        0.573561
    6        1.504561
    7        3.077408
    8        9.376434
    9       10.489148
   10       15.194451
   11       19.348520
   12       21.245164
 
  0.3333333E+00  0.2222222E+00  0.0000000E+00  0.1543210E-02
    1       -6.435118
    2       -3.953067
    3       -3.092268
    4       -1.600940
    5       -0.283761
    6        1.252462
    7        4.117380
    8        8.117682
    9       10.536767
   10       14.981572
   11       19.175818
   12       22.771923
 
  0.3888889E+00  0.2222222E+00  0.0000000E+00  0.1543210E-02
    1       -5.602280
    2       -4.754382
    3       -2.410881
    4       -2.235988
    5       -0.615672
    6        1.172886
    7        4.688817
    8        7.461529
    9       10.554193
   10       14.924229
   11       19.115619
   12       22.994000
 
  0.4444444E+00  0.2222222E+00  0.0000000E+00  0.1543210E-02
    1       -6.435894
    2       -3.952532
    3       -3.092751
    4       -1.601062
    5       -0.282849
    6        1.252399
    7        4.117085
    8        8.117806
    9       10.536667
   10       14.981442
   11       19.176218
   12       22.777083
 
  0.5000000E+00  0.2222222E+00  0.0000000E+00  0.1543210E-02
    1       -7.485125
    2       -4.242351
    3       -2.402850
    4       -1.080587
    5        0.574831
    6        1.504649
    7        3.077038
    8        9.376584
    9       10.488750
   10       15.194281
   11       19.349451
   12       21.251056
 
 -0.4444444E+00  0.2222222E+00  0.0000000E+00  0.1543210E-02
    1       -8.433079
    2       -5.015271
    3       -1.279193
    4       -0.393410
    5        1.508396
    6        2.038324
    7        2.045431
    8       10.202673
    9       10.900445
   10       15.654508
   11       19.457731
   12       19.801430
 
 -0.3888889E+00  0.2222222E+00  0.0000000E+00  0.1543210E-02
    1       -9.250938
    2       -5.709333
    3       -0.484805
    4        0.704687
    5        1.111600
    6        2.186150
    7        3.013805
    8       10.052186
    9       12.134511
   10       16.421865
   11       18.083018
   12       19.945743
 
 -0.3333333E+00  0.2222222E+00  0.0000000E+00  0.1543210E-02
    1       -9.928669
    2       -6.291617
    3        0.218527
    4        0.332392
    5        1.850908
    6        2.865772
    7        4.021062
    8        9.813568
    9       13.265702
   10       16.844147
   11       17.424275
   12       19.781506
 
 -0.2777778E+00  0.2222222E+00  0.0000000E+00  0.1543210E-02
    1      -10.460306
    2       -6.750891
    3       -0.283509
    4        0.968776
    5        2.808934
    6        3.554290
    7        4.826998
    8        9.574652
    9       14.261042
   10       16.066207
   11       18.432456
   12       19.176203
 
 -0.2222222E+00  0.2222222E+00  0.0000000E+00  0.7716049E-03
    1      -10.842153
    2       -7.081785
    3       -0.727914
    4        1.762121
    5        3.574344
    6        4.016113
    7        5.292214
    8        9.377276
    9       15.120708
   10       15.946377
   11       18.886636
   12       19.172478
 
  0.2777778E+00  0.2777778E+00  0.0000000E+00  0.7716049E-03
    1       -6.497953
    2       -3.534268
    3       -3.011554
    4       -1.926753
    5        0.058468
    6        0.577225
    7        4.095900
    8        8.902210
    9        9.663514
   10       15.018966
   11       20.996228
   12       21.034738
 
  0.3333333E+00  0.2777778E+00  0.0000000E+00  0.1543210E-02
    1       -5.478307
    2       -4.020972
    3       -3.037097
    4       -1.981388
    5       -0.674426
    6        0.231499
    7        4.938383
    8        8.111643
    9        9.423307
   10       14.984886
   11       20.885144
   12       22.566177
 
  0.3888889E+00  0.2777778E+00  0.0000000E+00  0.1543210E-02
    1       -5.479107
    2       -4.020301
    3       -3.037322
    4       -1.981961
    5       -0.673562
    6        0.231613
    7        4.938242
    8        8.111300
    9        9.423649
   10       14.984810
   11       20.885280
   12       22.570913
 
  0.4444444E+00  0.2777778E+00  0.0000000E+00  0.1543210E-02
    1       -6.498879
    2       -3.534762
    3       -3.011829
    4       -1.926515
    5        0.058944
    6        0.578364
    7        4.095578
    8        8.900691
    9        9.664884
   10       15.018786
   11       20.997951
   12       21.039116
 
  0.5000000E+00  0.2777778E+00  0.0000000E+00  0.1543210E-02
    1       -7.485241
    2       -4.242488
    3       -2.404370
    4       -1.079375
    5        0.573686
    6        1.506621
    7        3.077018
    8        9.375189
    9       10.489839
   10       15.194321
   11       19.354209
   12       21.246433
 
 -0.4444444E+00  0.2777778E+00  0.0000000E+00  0.1543210E-02
    1       -8.359271
    2       -4.955955
    3       -1.902513
    4       -0.023485
    5        1.202125
    6        2.115445
    7        2.579022
    8        9.575199
    9       11.464760
   10       15.670626
   11       17.777745
   12       21.187062
 
 -0.3888889E+00  0.2777778E+00  0.0000000E+00  0.1543210E-02
    1       -9.100893
    2       -5.582298
    3       -1.318052
    4        0.841038
    5        1.277915
    6        2.076115
    7        3.570129
    8        9.679131
    9       12.264315
   10       16.472082
   11       16.477906
   12       20.107157
 
 -0.3333333E+00  0.2777778E+00  0.0000000E+00  0.1543210E-02
    1       -9.701592
    2       -6.096236
    3       -0.629189
    4        0.591121
    5        1.571536
    6        2.921947
    7        4.344806
    8        9.691493
    9       12.960557
   10       15.636381
   11       17.390424
   12       19.289764
 
 -0.2777778E+00  0.2777778E+00  0.0000000E+00  0.7716049E-03
    1      -10.155854
    2       -6.487674
    3        0.068208
    4        0.147207
    5        2.264736
    6        3.420306
    7        4.781331
    8        9.640904
    9       13.639215
   10       15.473703
   11       18.098629
   12       18.986531
 
  0.3333333E+00  0.3333333E+00  0.0000000E+00  0.7716049E-03
    1       -4.880674
    2       -3.802537
    3       -3.801121
    4       -1.663303
    5       -0.552459
    6       -0.551257
    7        5.306245
    8        8.524304
    9        8.526661
   10       15.003056
   11       22.182118
   12       22.690743
 
  0.3888889E+00  0.3333333E+00  0.0000000E+00  0.1543210E-02
    1       -5.479218
    2       -4.021719
    3       -3.036354
    4       -1.982026
    5       -0.674459
    6        0.233570
    7        4.938330
    8        8.109694
    9        9.425000
   10       14.984732
   11       20.890235
   12       22.566649
 
  0.4444444E+00  0.3333333E+00  0.0000000E+00  0.1543210E-02
    1       -6.436134
    2       -3.953815
    3       -3.093381
    4       -1.600665
    5       -0.282891
    6        1.254630
    7        4.117147
    8        8.116047
    9       10.537922
   10       14.981345
   11       19.181187
   12       22.775033
 
  0.5000000E+00  0.3333333E+00  0.0000000E+00  0.1543210E-02
    1       -7.343271
    2       -4.211311
    3       -3.190298
    4       -0.906667
    5        0.554867
    6        2.293303
    7        3.199829
    8        8.349865
    9       11.537460
   10       15.150804
   11       17.551170
   12       21.452346
 
 -0.4444444E+00  0.3333333E+00  0.0000000E+00  0.1543210E-02
    1       -8.138549
    2       -4.787932
    3       -2.785882
    4       -0.321455
    5        1.587140
    6        2.342963
    7        3.234117
    8        8.703073
    9       12.165114
   10       15.665546
   11       16.187699
   12       20.164537
 
 -0.3888889E+00  0.3333333E+00  0.0000000E+00  0.1543210E-02
    1       -8.802215
    2       -5.332267
    3       -2.183056
    4        0.281242
    5        1.606853
    6        2.460547
    7        3.956455
    8        9.097511
    9       12.459802
   10       15.294051
   11       16.414491
   12       19.313150
 
 -0.3333333E+00  0.3333333E+00  0.0000000E+00  0.7716049E-03
    1       -9.325177
    2       -5.773962
    3       -1.451082
    4        0.930750
    5        1.018322
    6        2.927301
    7        4.343987
    8        9.449572
    9       12.675659
   10       15.079147
   11       17.062744
   12       19.014122
 
  0.3888889E+00  0.3888889E+00  0.0000000E+00  0.7716049E-03
    1       -5.602848
    2       -4.755688
    3       -2.411106
    4       -2.236842
    5       -0.614456
    6        1.175113
    7        4.688966
    8        7.459535
    9       10.555500
   10       14.924007
   11       19.120773
   12       22.997917
 
  0.4444444E+00  0.3888889E+00  0.0000000E+00  0.1543210E-02
    1       -6.268770
    2       -4.779549
    3       -2.943657
    4       -1.933677
    5        0.283629
    6        2.150288
    7        4.138392
    8        7.252352
    9       11.681511
   10       14.878157
   11       17.433394
   12       21.461265
 
  0.5000000E+00  0.3888889E+00  0.0000000E+00  0.1543210E-02
    1       -7.065640
    2       -4.519402
    3       -3.524361
    4       -1.498873
    5        1.317341
    6        3.027428
    7        3.419928
    8        7.446790
    9       12.483316
   10       15.035161
   11       16.011206
   12       20.164596
 
 -0.4444444E+00  0.3888889E+00  0.0000000E+00  0.1543210E-02
    1       -7.774815
    2       -4.576401
    3       -3.532535
    4       -0.980496
    5        2.152037
    6        2.706946
    7        3.686431
    8        7.885326
    9       12.746326
   10       15.058185
   11       15.525276
   12       19.305163
 
 -0.3888889E+00  0.3888889E+00  0.0000000E+00  0.7716049E-03
    1       -8.358050
    2       -4.973637
    3       -2.954864
    4       -0.376502
    5        2.089325
    6        2.561492
    7        4.013107
    8        8.463823
    9       12.657397
   10       14.786142
   11       16.081352
   12       19.007228
 
  0.4444444E+00  0.4444444E+00  0.0000000E+00  0.7716049E-03
    1       -6.195094
    2       -5.368683
    3       -2.737342
    4       -2.505860
    5        1.229992
    6        2.957849
    7        4.023086
    8        6.759568
    9       12.675101
   10       14.764660
   11       15.951509
   12       20.160663
 
  0.5000000E+00  0.4444444E+00  0.0000000E+00  0.1543210E-02
    1       -6.681786
    2       -5.179014
    3       -3.265220
    4       -2.163694
    5        1.997079
    6        3.548345
    7        3.664142
    8        6.779855
    9       13.225919
   10       14.834732
   11       14.938320
   12       19.294981
 
 -0.4444444E+00  0.4444444E+00  0.0000000E+00  0.7716049E-03
    1       -7.278662
    2       -4.710636
    3       -3.700372
    4       -1.617705
    5        2.337254
    6        3.173719
    7        3.808006
    8        7.209504
    9       13.157017
   10       14.606615
   11       15.195203
   12       18.993046
 
  0.5000000E+00  0.5000000E+00  0.0000000E+00  0.3858025E-03
    1       -6.397215
    2       -5.576566
    3       -2.908952
    4       -2.642314
    5        2.261472
    6        3.738463
    7        3.782544
    8        6.518710
    9       13.558707
   10       14.546330
   11       14.689191
   12       18.986692
 