   2   2   0   0
  0.5265935E+02  0.2466437E-09  0.2466437E-09  0.2000000E-08  0.5000000E-15
  1.000000000000000E-004
  CAR 
 graphite                                
     12.15036368    -24.26107707  301     -2.74466541      1.00000000
    -24.261  0.0000E+00  0.0000E+00
    -24.140  0.0000E+00  0.0000E+00
    -24.018  0.0000E+00  0.0000E+00
    -23.897  0.0000E+00  0.0000E+00
    -23.776  0.0000E+00  0.0000E+00
    -23.654  0.0000E+00  0.0000E+00
    -23.533  0.0000E+00  0.0000E+00
    -23.411  0.0000E+00  0.0000E+00
    -23.290  0.0000E+00  0.0000E+00
    -23.169  0.0000E+00  0.0000E+00
    -23.047  0.0000E+00  0.0000E+00
    -22.926  0.0000E+00  0.0000E+00
    -22.805  0.0000E+00  0.0000E+00
    -22.683  0.0000E+00  0.0000E+00
    -22.562  0.0000E+00  0.0000E+00
    -22.441  0.0000E+00  0.0000E+00
    -22.319  0.0000E+00  0.0000E+00
    -22.198  0.1958E+00  0.6199E-02
    -22.076  0.2599E+00  0.4695E-01
    -21.955  0.2915E+00  0.8042E-01
    -21.834  0.3231E+00  0.1177E+00
    -21.712  0.3217E+00  0.1579E+00
    -21.591  0.2896E+00  0.1947E+00
    -21.470  0.3009E+00  0.2305E+00
    -21.348  0.3122E+00  0.2677E+00
    -21.227  0.3235E+00  0.3063E+00
    -21.105  0.3088E+00  0.3459E+00
    -20.984  0.3069E+00  0.3833E+00
    -20.863  0.3050E+00  0.4204E+00
    -20.741  0.3065E+00  0.4574E+00
    -20.620  0.3125E+00  0.4949E+00
    -20.499  0.3184E+00  0.5332E+00
    -20.377  0.3243E+00  0.5722E+00
    -20.256  0.3212E+00  0.6117E+00
    -20.134  0.3104E+00  0.6499E+00
    -20.013  0.3121E+00  0.6877E+00
    -19.892  0.3137E+00  0.7257E+00
    -19.770  0.3154E+00  0.7638E+00
    -19.649  0.3175E+00  0.8022E+00
    -19.528  0.3215E+00  0.8410E+00
    -19.406  0.3254E+00  0.8803E+00
    -19.285  0.3293E+00  0.9200E+00
    -19.163  0.3242E+00  0.9598E+00
    -19.042  0.3232E+00  0.9991E+00
    -18.921  0.3221E+00  0.1038E+01
    -18.799  0.3242E+00  0.1077E+01
    -18.678  0.3272E+00  0.1117E+01
    -18.557  0.3302E+00  0.1157E+01
    -18.435  0.3331E+00  0.1197E+01
    -18.314  0.3361E+00  0.1238E+01
    -18.193  0.3420E+00  0.1279E+01
    -18.071  0.3490E+00  0.1321E+01
    -17.950  0.3553E+00  0.1364E+01
    -17.828  0.3590E+00  0.1407E+01
    -17.707  0.3750E+00  0.1451E+01
    -17.586  0.3910E+00  0.1498E+01
    -17.464  0.4071E+00  0.1546E+01
    -17.343  0.6487E+00  0.1616E+01
    -17.222  0.5146E+00  0.1686E+01
    -17.100  0.3804E+00  0.1741E+01
    -16.979  0.2813E+00  0.1779E+01
    -16.857  0.2528E+00  0.1812E+01
    -16.736  0.2242E+00  0.1841E+01
    -16.615  0.1957E+00  0.1866E+01
    -16.493  0.1300E+00  0.1925E+01
    -16.372  0.1164E+00  0.1940E+01
    -16.251  0.1027E+00  0.1953E+01
    -16.129  0.8906E-01  0.1965E+01
    -16.008  0.7539E-01  0.1975E+01
    -15.886  0.9352E-01  0.1984E+01
    -15.765  0.1232E+00  0.1998E+01
    -15.644  0.1529E+00  0.2014E+01
    -15.522  0.2852E+00  0.2038E+01
    -15.401  0.5417E+00  0.2088E+01
    -15.280  0.3191E+00  0.2154E+01
    -15.158  0.3897E+00  0.2197E+01
    -15.037  0.4603E+00  0.2249E+01
    -14.915  0.5310E+00  0.2309E+01
    -14.794  0.6016E+00  0.2378E+01
    -14.673  0.3657E+00  0.2449E+01
    -14.551  0.3541E+00  0.2493E+01
    -14.430  0.3435E+00  0.2535E+01
    -14.309  0.3348E+00  0.2576E+01
    -14.187  0.3262E+00  0.2617E+01
    -14.066  0.3168E+00  0.2656E+01
    -13.945  0.3071E+00  0.2693E+01
    -13.823  0.2974E+00  0.2730E+01
    -13.702  0.2878E+00  0.2766E+01
    -13.580  0.2781E+00  0.2800E+01
    -13.459  0.2684E+00  0.2833E+01
    -13.338  0.2585E+00  0.2865E+01
    -13.216  0.2682E+00  0.2897E+01
    -13.095  0.2917E+00  0.2931E+01
    -12.974  0.3152E+00  0.2967E+01
    -12.852  0.3387E+00  0.3007E+01
    -12.731  0.3623E+00  0.3050E+01
    -12.609  0.3858E+00  0.3095E+01
    -12.488  0.4093E+00  0.3143E+01
    -12.367  0.4156E+00  0.3194E+01
    -12.245  0.4148E+00  0.3244E+01
    -12.124  0.3825E+00  0.3291E+01
    -12.003  0.3823E+00  0.3338E+01
    -11.881  0.3822E+00  0.3384E+01
    -11.760  0.3820E+00  0.3430E+01
    -11.638  0.3855E+00  0.3477E+01
    -11.517  0.3937E+00  0.3524E+01
    -11.396  0.4018E+00  0.3572E+01
    -11.274  0.4100E+00  0.3622E+01
    -11.153  0.4150E+00  0.3672E+01
    -11.032  0.4192E+00  0.3722E+01
    -10.910  0.4314E+00  0.3774E+01
    -10.789  0.4517E+00  0.3827E+01
    -10.667  0.4561E+00  0.3882E+01
    -10.546  0.4597E+00  0.3938E+01
    -10.425  0.4663E+00  0.3994E+01
    -10.303  0.6028E+00  0.4055E+01
    -10.182  0.8970E+00  0.4145E+01
    -10.061  0.7663E+00  0.4238E+01
     -9.939  0.8196E+00  0.4334E+01
     -9.818  0.8729E+00  0.4437E+01
     -9.697  0.9254E+00  0.4546E+01
     -9.575  0.1111E+01  0.4670E+01
     -9.454  0.1074E+01  0.4802E+01
     -9.332  0.1037E+01  0.4930E+01
     -9.211  0.9576E+00  0.5052E+01
     -9.090  0.1035E+01  0.5158E+01
     -8.968  0.8695E+00  0.5292E+01
     -8.847  0.9080E+00  0.5400E+01
     -8.726  0.9465E+00  0.5512E+01
     -8.604  0.1180E+01  0.5652E+01
     -8.483  0.2249E+00  0.5721E+01
     -8.361  0.1968E+00  0.5747E+01
     -8.240  0.1687E+00  0.5769E+01
     -8.119  0.1406E+00  0.5787E+01
     -7.997  0.5223E+00  0.5819E+01
     -7.876  0.1299E+01  0.5921E+01
     -7.755  0.8574E+00  0.6113E+01
     -7.633  0.7796E+00  0.6212E+01
     -7.512  0.7018E+00  0.6302E+01
     -7.390  0.6257E+00  0.6383E+01
     -7.269  0.6034E+00  0.6457E+01
     -7.148  0.5922E+00  0.6529E+01
     -7.026  0.5811E+00  0.6600E+01
     -6.905  0.5720E+00  0.6670E+01
     -6.784  0.5998E+00  0.6741E+01
     -6.662  0.5845E+00  0.6813E+01
     -6.541  0.5693E+00  0.6883E+01
     -6.419  0.6068E+00  0.6952E+01
     -6.298  0.5747E+00  0.7024E+01
     -6.177  0.5427E+00  0.7092E+01
     -6.055  0.5935E+00  0.7161E+01
     -5.934  0.4958E+00  0.7227E+01
     -5.813  0.4063E+00  0.7282E+01
     -5.691  0.3854E+00  0.7329E+01
     -5.570  0.4031E+00  0.7377E+01
     -5.448  0.4223E+00  0.7427E+01
     -5.327  0.4685E+00  0.7480E+01
     -5.206  0.1364E+01  0.7546E+01
     -5.084  0.4039E+00  0.7644E+01
     -4.963  0.3627E+00  0.7690E+01
     -4.842  0.3215E+00  0.7732E+01
     -4.720  0.2803E+00  0.7768E+01
     -4.599  0.2391E+00  0.7800E+01
     -4.478  0.2128E+00  0.7827E+01
     -4.356  0.2294E+00  0.7854E+01
     -4.235  0.2459E+00  0.7882E+01
     -4.113  0.2624E+00  0.7913E+01
     -3.992  0.1134E+00  0.7929E+01
     -3.871  0.1023E+00  0.7943E+01
     -3.749  0.9127E-01  0.7954E+01
     -3.628  0.8020E-01  0.7965E+01
     -3.507  0.6914E-01  0.7974E+01
     -3.385  0.5808E-01  0.7981E+01
     -3.264  0.4701E-01  0.7988E+01
     -3.142  0.3595E-01  0.7993E+01
     -3.021  0.2489E-01  0.7997E+01
     -2.900  0.1382E-01  0.7999E+01
     -2.778  0.2759E-02  0.8000E+01
     -2.657  0.8711E-02  0.8000E+01
     -2.536  0.2078E-01  0.8002E+01
     -2.414  0.3284E-01  0.8005E+01
     -2.293  0.4491E-01  0.8010E+01
     -2.171  0.5698E-01  0.8016E+01
     -2.050  0.6905E-01  0.8024E+01
     -1.929  0.8111E-01  0.8033E+01
     -1.807  0.9318E-01  0.8044E+01
     -1.686  0.1052E+00  0.8056E+01
     -1.565  0.1173E+00  0.8069E+01
     -1.443  0.5754E+00  0.8087E+01
     -1.322  0.2683E+00  0.8138E+01
     -1.200  0.2531E+00  0.8166E+01
     -1.079  0.3219E+00  0.8201E+01
     -0.958  0.5717E+00  0.8254E+01
     -0.836  0.8410E+00  0.8340E+01
     -0.715  0.4512E+00  0.8415E+01
     -0.594  0.4203E+00  0.8468E+01
     -0.472  0.3894E+00  0.8517E+01
     -0.351  0.3585E+00  0.8562E+01
     -0.230  0.3277E+00  0.8604E+01
     -0.108  0.3047E+00  0.8642E+01
      0.013  0.2819E+00  0.8678E+01
      0.135  0.2707E+00  0.8711E+01
      0.256  0.2652E+00  0.8744E+01
      0.377  0.2597E+00  0.8776E+01
      0.499  0.2542E+00  0.8807E+01
      0.620  0.4095E+00  0.8845E+01
      0.741  0.6080E+00  0.8907E+01
      0.863  0.4410E+00  0.8961E+01
      0.984  0.4526E+00  0.9015E+01
      1.106  0.4648E+00  0.9070E+01
      1.227  0.4661E+00  0.9127E+01
      1.348  0.5304E+00  0.9185E+01
      1.470  0.7145E+00  0.9260E+01
      1.591  0.6217E+00  0.9342E+01
      1.712  0.6516E+00  0.9418E+01
      1.834  0.7743E+00  0.9504E+01
      1.955  0.9050E+00  0.9608E+01
      2.077  0.8917E+00  0.9719E+01
      2.198  0.8678E+00  0.9823E+01
      2.319  0.9642E+00  0.9933E+01
      2.441  0.1120E+01  0.1006E+02
      2.562  0.1183E+01  0.1020E+02
      2.683  0.1173E+01  0.1034E+02
      2.805  0.1116E+01  0.1048E+02
      2.926  0.1122E+01  0.1062E+02
      3.048  0.1148E+01  0.1076E+02
      3.169  0.1154E+01  0.1090E+02
      3.290  0.9773E+00  0.1101E+02
      3.412  0.9594E+00  0.1113E+02
      3.533  0.9178E+00  0.1125E+02
      3.654  0.8780E+00  0.1136E+02
      3.776  0.8882E+00  0.1146E+02
      3.897  0.8959E+00  0.1157E+02
      4.018  0.8932E+00  0.1168E+02
      4.140  0.9168E+00  0.1179E+02
      4.261  0.9666E+00  0.1190E+02
      4.383  0.1035E+01  0.1202E+02
      4.504  0.1067E+01  0.1215E+02
      4.625  0.1060E+01  0.1228E+02
      4.747  0.1223E+01  0.1242E+02
      4.868  0.1153E+01  0.1257E+02
      4.989  0.1093E+01  0.1270E+02
      5.111  0.1095E+01  0.1284E+02
      5.232  0.1033E+01  0.1297E+02
      5.354  0.9350E+00  0.1309E+02
      5.475  0.8573E+00  0.1319E+02
      5.596  0.8228E+00  0.1330E+02
      5.718  0.8060E+00  0.1339E+02
      5.839  0.7893E+00  0.1349E+02
      5.960  0.7726E+00  0.1359E+02
      6.082  0.7477E+00  0.1368E+02
      6.203  0.7361E+00  0.1377E+02
      6.325  0.7286E+00  0.1386E+02
      6.446  0.7212E+00  0.1394E+02
      6.567  0.7206E+00  0.1403E+02
      6.689  0.7236E+00  0.1412E+02
      6.810  0.7231E+00  0.1421E+02
      6.931  0.7229E+00  0.1430E+02
      7.053  0.7259E+00  0.1438E+02
      7.174  0.7324E+00  0.1447E+02
      7.296  0.7504E+00  0.1456E+02
      7.417  0.8884E+00  0.1466E+02
      7.538  0.8598E+00  0.1477E+02
      7.660  0.8322E+00  0.1487E+02
      7.781  0.8046E+00  0.1497E+02
      7.902  0.8487E+00  0.1506E+02
      8.024  0.1125E+01  0.1518E+02
      8.145  0.5925E+00  0.1533E+02
      8.266  0.8215E+00  0.1542E+02
      8.388  0.6406E+00  0.1551E+02
      8.509  0.4766E+00  0.1558E+02
      8.631  0.6740E+00  0.1565E+02
      8.752  0.4552E+00  0.1572E+02
      8.873  0.2480E+00  0.1576E+02
      8.995  0.2315E+00  0.1579E+02
      9.116  0.2393E+00  0.1582E+02
      9.237  0.2471E+00  0.1585E+02
      9.359  0.2549E+00  0.1588E+02
      9.480  0.2836E+00  0.1591E+02
      9.602  0.2252E+00  0.1594E+02
      9.723  0.1751E+00  0.1596E+02
      9.844  0.1251E+00  0.1598E+02
      9.966  0.7496E-01  0.1599E+02
     10.087  0.2487E-01  0.1600E+02
     10.208  0.0000E+00  0.1600E+02
     10.330  0.0000E+00  0.1600E+02
     10.451  0.0000E+00  0.1600E+02
     10.573  0.0000E+00  0.1600E+02
     10.694  0.0000E+00  0.1600E+02
     10.815  0.0000E+00  0.1600E+02
     10.937  0.0000E+00  0.1600E+02
     11.058  0.0000E+00  0.1600E+02
     11.179  0.0000E+00  0.1600E+02
     11.301  0.0000E+00  0.1600E+02
     11.422  0.0000E+00  0.1600E+02
     11.544  0.0000E+00  0.1600E+02
     11.665  0.0000E+00  0.1600E+02
     11.786  0.0000E+00  0.1600E+02
     11.908  0.0000E+00  0.1600E+02
     12.029  0.0000E+00  0.1600E+02
     12.150  0.0000E+00  0.1600E+02
