    2    2    1    1
  0.5265935E+02  0.2466437E-09  0.2466437E-09  0.2000000E-08  0.5000000E-15
  1.000000000000000E-004
  CAR 
 graphite                                
      8    215      8
 
  0.0000000E+00  0.0000000E+00  0.0000000E+00  0.8680556E-03
    1      -22.261069
    2      -10.362444
    3       -5.787631
    4       -5.763396
    5        0.523226
    6        1.321242
    7        1.681027
    8        2.591195
 
  0.8333333E-01  0.6938894E-17  0.0000000E+00  0.3472222E-02
    1      -22.096862
    2      -10.166562
    3       -6.421291
    4       -6.119866
    5        0.746034
    6        1.546904
    7        1.909466
    8        2.817568
 
  0.1666667E+00  0.1387779E-16  0.0000000E+00  0.3472222E-02
    1      -21.606127
    2       -9.584227
    3       -8.060857
    4       -6.912920
    5        1.414391
    6        2.222534
    7        2.594803
    8        3.495528
 
  0.2500000E+00  0.0000000E+00  0.0000000E+00  0.3472222E-02
    1      -20.794607
    2      -10.161237
    3       -8.634621
    4       -7.792775
    5        2.526089
    6        3.332285
    7        3.736670
    8        4.448805
 
  0.3333333E+00  0.2775558E-16  0.0000000E+00  0.3472222E-02
    1      -19.674759
    2      -12.366379
    3       -8.526036
    4       -7.368004
    5        2.163079
    6        4.068249
    7        4.937154
    8        4.957794
 
  0.4166667E+00  0.5551115E-16  0.0000000E+00  0.3472222E-02
    1      -18.278276
    2      -14.467756
    3       -8.998732
    4       -5.947384
    5        0.031375
    6        4.697198
    7        6.078383
    8        6.933735
 
  0.5000000E+00  0.0000000E+00  0.0000000E+00  0.1736111E-02
    1      -17.017806
    2      -15.970896
    3       -9.160883
    4       -5.104289
    5       -1.064441
    6        4.617459
    7        8.379088
    8        8.530821
 
  0.8333333E-01  0.8333333E-01  0.0000000E+00  0.1736111E-02
    1      -21.769154
    2       -9.777127
    3       -7.452767
    4       -6.801114
    5        1.192138
    6        1.997979
    7        2.366702
    8        3.270195
 
  0.1666667E+00  0.8333333E-01  0.0000000E+00  0.3472222E-02
    1      -21.117809
    2       -9.167201
    3       -9.009760
    4       -7.796838
    5        2.083374
    6        2.896350
    7        3.280854
    8        4.171641
 
  0.2500000E+00  0.8333333E-01  0.0000000E+00  0.3472222E-02
    1      -20.151670
    2      -11.243566
    3       -8.682011
    4       -7.895036
    5        3.172697
    6        3.415404
    7        4.262664
    8        4.651161
 
  0.3333333E+00  0.8333333E-01  0.0000000E+00  0.3472222E-02
    1      -18.890147
    2      -13.368450
    3       -9.316738
    4       -6.517222
    5        0.975775
    6        5.155467
    7        5.560037
    8        6.032289
 
  0.4166667E+00  0.8333333E-01  0.0000000E+00  0.3472222E-02
    1      -17.410959
    2      -15.309845
    3       -9.645561
    4       -5.210304
    5       -0.789782
    6        5.356415
    7        7.376881
    8        8.200228
 
  0.5000000E+00  0.8333333E-01  0.0000000E+00  0.3472222E-02
    1      -17.413087
    2      -15.307517
    3       -9.646116
    4       -5.211276
    5       -0.788990
    6        5.357384
    7        7.373284
    8        8.197380
 
 -0.4166667E+00  0.8333333E-01  0.0000000E+00  0.3472222E-02
    1      -18.892171
    2      -13.365935
    3       -9.318156
    4       -6.518789
    5        0.976636
    6        5.153186
    7        5.562373
    8        6.029696
 
 -0.3333333E+00  0.8333333E-01  0.0000000E+00  0.3472222E-02
    1      -20.153311
    2      -11.242180
    3       -8.683114
    4       -7.896473
    5        3.172512
    6        3.413278
    7        4.260563
    8        4.649010
 
 -0.2500000E+00  0.8333333E-01  0.0000000E+00  0.3472222E-02
    1      -21.118997
    2       -9.170233
    3       -9.010866
    4       -7.794018
    5        2.081867
    6        2.894875
    7        3.279315
    8        4.170158
 
 -0.1666667E+00  0.8333333E-01  0.0000000E+00  0.3472222E-02
    1      -21.769879
    2       -9.777818
    3       -7.467239
    4       -6.786830
    5        1.191241
    6        1.997082
    7        2.365779
    8        3.269292
 
 -0.8333333E-01  0.8333333E-01  0.0000000E+00  0.1736111E-02
    1      -22.097099
    2      -10.166784
    3       -6.439437
    4       -6.101641
    5        0.745736
    6        1.546605
    7        1.909158
    8        2.817267
 
  0.1666667E+00  0.1666667E+00  0.0000000E+00  0.1736111E-02
    1      -20.311743
    2      -10.499515
    3       -9.159201
    4       -8.073354
    5        3.196002
    6        3.627768
    7        4.013517
    8        4.423828
 
  0.2500000E+00  0.1666667E+00  0.0000000E+00  0.3472222E-02
    1      -19.202433
    2      -12.230196
    3      -10.214756
    4       -6.821662
    5        1.682140
    6        4.744229
    7        5.556391
    8        6.022754
 
  0.3333333E+00  0.1666667E+00  0.0000000E+00  0.3472222E-02
    1      -17.825647
    2      -14.142856
    3      -10.790810
    4       -5.397029
    5       -0.227562
    6        6.699065
    7        7.275013
    8        7.448914
 
  0.4166667E+00  0.1666667E+00  0.0000000E+00  0.3472222E-02
    1      -16.596138
    2      -15.572950
    3      -10.976241
    4       -4.507228
    5       -1.292947
    6        7.166774
    7        8.864425
    8        8.938710
 
  0.5000000E+00  0.1666667E+00  0.0000000E+00  0.3472222E-02
    1      -17.829923
    2      -14.138431
    3      -10.791569
    4       -5.399878
    5       -0.226067
    6        6.692953
    7        7.277631
    8        7.443989
 
 -0.4166667E+00  0.1666667E+00  0.0000000E+00  0.3472222E-02
    1      -19.206086
    2      -12.228719
    3      -10.213652
    4       -6.824688
    5        1.681897
    6        4.739287
    7        5.551844
    8        6.017819
 
 -0.3333333E+00  0.1666667E+00  0.0000000E+00  0.3472222E-02
    1      -20.314545
    2      -10.507800
    3       -9.149292
    4       -8.075880
    5        3.192350
    6        3.624665
    7        4.010011
    8        4.420131
 
 -0.2500000E+00  0.1666667E+00  0.0000000E+00  0.3472222E-02
    1      -21.119700
    2       -9.183622
    3       -9.011546
    4       -7.779159
    5        2.080971
    6        2.893964
    7        3.278394
    8        4.169216
 
 -0.1666667E+00  0.1666667E+00  0.0000000E+00  0.1736111E-02
    1      -21.607077
    2       -9.585145
    3       -8.079084
    4       -6.893588
    5        1.413197
    6        2.221335
    7        2.593575
    8        3.494318
 
  0.2500000E+00  0.2500000E+00  0.0000000E+00  0.1736111E-02
    1      -17.972876
    2      -13.268269
    3      -11.698204
    4       -5.480652
    5        0.068406
    6        6.492396
    7        7.162683
    8        7.848829
 
  0.3333333E+00  0.2500000E+00  0.0000000E+00  0.3472222E-02
    1      -16.550800
    2      -14.690887
    3      -12.405326
    4       -4.097561
    5       -1.450205
    6        8.132817
    7        8.584054
    8        9.439288
 
  0.4166667E+00  0.2500000E+00  0.0000000E+00  0.3472222E-02
    1      -16.556494
    2      -14.686690
    3      -12.403845
    4       -4.100679
    5       -1.448647
    6        8.132294
    7        8.572938
    8        9.440516
 
  0.5000000E+00  0.2500000E+00  0.0000000E+00  0.3472222E-02
    1      -17.978665
    2      -13.271346
    3      -11.689377
    4       -5.485105
    5        0.067971
    6        6.483911
    7        7.156800
    8        7.840489
 
 -0.4166667E+00  0.2500000E+00  0.0000000E+00  0.3472222E-02
    1      -19.207175
    2      -12.240913
    3      -10.199133
    4       -6.825767
    5        1.678043
    6        4.737816
    7        5.550580
    8        6.016299
 
 -0.3333333E+00  0.2500000E+00  0.0000000E+00  0.3472222E-02
    1      -20.155128
    2      -11.258063
    3       -8.663275
    4       -7.898227
    5        3.165578
    6        3.410931
    7        4.258344
    8        4.646585
 
 -0.2500000E+00  0.2500000E+00  0.0000000E+00  0.1736111E-02
    1      -20.796704
    2      -10.178155
    3       -8.636623
    4       -7.772375
    5        2.523424
    6        3.329482
    7        3.733921
    8        4.442419
 
  0.3333333E+00  0.3333333E+00  0.0000000E+00  0.1736111E-02
    1      -15.338040
    2      -15.337072
    3      -13.293577
    4       -2.748048
    5       -2.744560
    6        7.873652
    7       10.132082
    8       10.150334
 
  0.4166667E+00  0.3333333E+00  0.0000000E+00  0.3472222E-02
    1      -16.557307
    2      -14.697452
    3      -12.391450
    4       -4.102545
    5       -1.450659
    6        8.134930
    7        8.571502
    8        9.480331
 
  0.5000000E+00  0.3333333E+00  0.0000000E+00  0.3472222E-02
    1      -17.832193
    2      -14.152286
    3      -10.773314
    4       -5.402401
    5       -0.231994
    6        6.690602
    7        7.316848
    8        7.441893
 
 -0.4166667E+00  0.3333333E+00  0.0000000E+00  0.3472222E-02
    1      -18.895421
    2      -13.380649
    3       -9.296950
    4       -6.521902
    5        0.968103
    6        5.151980
    7        5.596628
    8        6.025599
 
 -0.3333333E+00  0.3333333E+00  0.0000000E+00  0.1736111E-02
    1      -19.678354
    2      -12.381228
    3       -8.504742
    4       -7.371378
    5        2.154040
    6        4.064210
    7        4.932546
    8        4.993217
 
  0.4166667E+00  0.4166667E+00  0.0000000E+00  0.1736111E-02
    1      -16.599147
    2      -15.586104
    3      -10.957779
    4       -4.511966
    5       -1.298205
    6        7.209354
    7        8.867971
    8        8.926343
 
  0.5000000E+00  0.4166667E+00  0.0000000E+00  0.3472222E-02
    1      -17.417097
    2      -15.321011
    3       -9.624817
    4       -5.215878
    5       -0.797447
    6        5.397281
    7        7.366004
    8        8.191827
 
 -0.4166667E+00  0.4166667E+00  0.0000000E+00  0.1736111E-02
    1      -18.283382
    2      -14.480570
    3       -8.976850
    4       -5.952158
    5        0.022220
    6        4.735883
    7        6.070954
    8        6.926820
 
  0.5000000E+00  0.5000000E+00  0.0000000E+00  0.8680556E-03
    1      -17.021612
    2      -15.984814
    3       -9.138803
    4       -5.109777
    5       -1.073325
    6        4.657004
    7        8.365961
    8        8.522039
 
  0.0000000E+00  0.0000000E+00  0.1250000E+00  0.1736111E-02
    1      -22.261072
    2      -10.362451
    3       -5.787647
    4       -5.763397
    5        0.523563
    6        1.311678
    7        1.704592
    8        2.528427
 
  0.8333333E-01  0.6938894E-17  0.1250000E+00  0.6944444E-02
    1      -22.096865
    2      -10.166567
    3       -6.421283
    4       -6.119872
    5        0.746363
    6        1.537505
    7        1.932832
    8        2.754913
 
  0.1666667E+00  0.1387779E-16  0.1250000E+00  0.6944444E-02
    1      -21.606115
    2       -9.584212
    3       -8.060851
    4       -6.912923
    5        1.414699
    6        2.213675
    7        2.617495
    8        3.433468
 
  0.2500000E+00  0.0000000E+00  0.1250000E+00  0.6944444E-02
    1      -20.794615
    2      -10.161252
    3       -8.634620
    4       -7.792780
    5        2.526360
    6        3.324970
    7        3.756863
    8        4.439055
 
  0.3333333E+00  0.2775558E-16  0.1250000E+00  0.6944444E-02
    1      -19.674754
    2      -12.366375
    3       -8.526024
    4       -7.368011
    5        2.163078
    6        4.068463
    7        4.929418
    8        4.958514
 
  0.4166667E+00  0.5551115E-16  0.1250000E+00  0.6944444E-02
    1      -18.278274
    2      -14.467760
    3       -8.998720
    4       -5.947379
    5        0.031375
    6        4.697204
    7        6.078564
    8        6.928374
 
  0.5000000E+00  0.0000000E+00  0.1250000E+00  0.3472222E-02
    1      -17.017812
    2      -15.970882
    3       -9.160881
    4       -5.104296
    5       -1.064436
    6        4.617464
    7        8.379175
    8        8.530961
 
  0.8333333E-01  0.8333333E-01  0.1250000E+00  0.3472222E-02
    1      -21.769153
    2       -9.777124
    3       -7.452758
    4       -6.801120
    5        1.192453
    6        1.988927
    7        2.389638
    8        3.207906
 
  0.1666667E+00  0.8333333E-01  0.1250000E+00  0.6944444E-02
    1      -21.117807
    2       -9.167193
    3       -9.009757
    4       -7.796818
    5        2.083661
    6        2.888104
    7        3.302732
    8        4.110893
 
  0.2500000E+00  0.8333333E-01  0.1250000E+00  0.6944444E-02
    1      -20.151661
    2      -11.243549
    3       -8.682001
    4       -7.895023
    5        3.172696
    6        3.415650
    7        4.254914
    8        4.672411
 
  0.3333333E+00  0.8333333E-01  0.1250000E+00  0.6944444E-02
    1      -18.890137
    2      -13.368453
    3       -9.316738
    4       -6.517215
    5        0.975774
    6        5.155628
    7        5.560109
    8        6.026570
 
  0.4166667E+00  0.8333333E-01  0.1250000E+00  0.6944444E-02
    1      -17.410954
    2      -15.309884
    3       -9.645554
    4       -5.210312
    5       -0.789789
    6        5.356407
    7        7.377020
    8        8.197098
 
  0.5000000E+00  0.8333333E-01  0.1250000E+00  0.6944444E-02
    1      -17.413077
    2      -15.307517
    3       -9.646114
    4       -5.211286
    5       -0.788997
    6        5.357379
    7        7.373423
    8        8.194242
 
 -0.4166667E+00  0.8333333E-01  0.1250000E+00  0.6944444E-02
    1      -18.892196
    2      -13.365947
    3       -9.318155
    4       -6.518781
    5        0.976635
    6        5.153348
    7        5.562444
    8        6.023971
 
 -0.3333333E+00  0.8333333E-01  0.1250000E+00  0.6944444E-02
    1      -20.153305
    2      -11.242178
    3       -8.683118
    4       -7.896462
    5        3.172510
    6        3.413523
    7        4.252810
    8        4.670264
 
 -0.2500000E+00  0.8333333E-01  0.1250000E+00  0.6944444E-02
    1      -21.118995
    2       -9.170233
    3       -9.010863
    4       -7.794005
    5        2.082154
    6        2.886626
    7        3.301197
    8        4.109402
 
 -0.1666667E+00  0.8333333E-01  0.1250000E+00  0.6944444E-02
    1      -21.769873
    2       -9.777816
    3       -7.467227
    4       -6.786832
    5        1.191556
    6        1.988029
    7        2.388717
    8        3.207001
 
 -0.8333333E-01  0.8333333E-01  0.1250000E+00  0.3472222E-02
    1      -22.097103
    2      -10.166800
    3       -6.439429
    4       -6.101648
    5        0.746065
    6        1.537205
    7        1.932525
    8        2.754611
 
  0.1666667E+00  0.1666667E+00  0.1250000E+00  0.3472222E-02
    1      -20.311753
    2      -10.499539
    3       -9.159213
    4       -8.073353
    5        3.196256
    6        3.627766
    7        4.006387
    8        4.444156
 
  0.2500000E+00  0.1666667E+00  0.1250000E+00  0.6944444E-02
    1      -19.202417
    2      -12.230198
    3      -10.214749
    4       -6.821663
    5        1.682139
    6        4.744437
    7        5.551145
    8        6.040139
 
  0.3333333E+00  0.1666667E+00  0.1250000E+00  0.6944444E-02
    1      -17.825635
    2      -14.142863
    3      -10.790815
    4       -5.397023
    5       -0.227564
    6        6.699203
    7        7.275057
    8        7.446629
 
  0.4166667E+00  0.1666667E+00  0.1250000E+00  0.6944444E-02
    1      -16.596123
    2      -15.572911
    3      -10.976224
    4       -4.507230
    5       -1.292946
    6        7.166780
    7        8.864395
    8        8.938767
 
  0.5000000E+00  0.1666667E+00  0.1250000E+00  0.6944444E-02
    1      -17.829907
    2      -14.138438
    3      -10.791564
    4       -5.399872
    5       -0.226069
    6        6.693091
    7        7.277676
    8        7.441690
 
 -0.4166667E+00  0.1666667E+00  0.1250000E+00  0.6944444E-02
    1      -19.206093
    2      -12.228728
    3      -10.213652
    4       -6.824699
    5        1.681895
    6        4.739495
    7        5.546588
    8        6.035226
 
 -0.3333333E+00  0.1666667E+00  0.1250000E+00  0.6944444E-02
    1      -20.314557
    2      -10.507817
    3       -9.149284
    4       -8.075888
    5        3.192604
    6        3.624663
    7        4.002874
    8        4.440470
 
 -0.2500000E+00  0.1666667E+00  0.1250000E+00  0.6944444E-02
    1      -21.119695
    2       -9.183614
    3       -9.011541
    4       -7.779138
    5        2.081258
    6        2.885714
    7        3.300276
    8        4.108474
 
 -0.1666667E+00  0.1666667E+00  0.1250000E+00  0.3472222E-02
    1      -21.607062
    2       -9.585126
    3       -8.079078
    4       -6.893590
    5        1.413504
    6        2.212474
    7        2.616268
    8        3.432260
 
  0.2500000E+00  0.2500000E+00  0.1250000E+00  0.3472222E-02
    1      -17.972840
    2      -13.268264
    3      -11.698201
    4       -5.480641
    5        0.068410
    6        6.492550
    7        7.160933
    8        7.857610
 
  0.3333333E+00  0.2500000E+00  0.1250000E+00  0.6944444E-02
    1      -16.550783
    2      -14.690886
    3      -12.405319
    4       -4.097555
    5       -1.450203
    6        8.132810
    7        8.584130
    8        9.439336
 
  0.4166667E+00  0.2500000E+00  0.1250000E+00  0.6944444E-02
    1      -16.556486
    2      -14.686703
    3      -12.403840
    4       -4.100674
    5       -1.448646
    6        8.132286
    7        8.573014
    8        9.440565
 
  0.5000000E+00  0.2500000E+00  0.1250000E+00  0.6944444E-02
    1      -17.978640
    2      -13.271343
    3      -11.689375
    4       -5.485091
    5        0.067977
    6        6.484065
    7        7.155030
    8        7.849353
 
 -0.4166667E+00  0.2500000E+00  0.1250000E+00  0.6944444E-02
    1      -19.207174
    2      -12.240910
    3      -10.199132
    4       -6.825770
    5        1.678043
    6        4.738024
    7        5.545317
    8        6.033718
 
 -0.3333333E+00  0.2500000E+00  0.1250000E+00  0.6944444E-02
    1      -20.155121
    2      -11.258060
    3       -8.663277
    4       -7.898215
    5        3.165577
    6        3.411177
    7        4.250581
    8        4.667853
 
 -0.2500000E+00  0.2500000E+00  0.1250000E+00  0.3472222E-02
    1      -20.796709
    2      -10.178184
    3       -8.636628
    4       -7.772387
    5        2.523696
    6        3.322170
    7        3.754103
    8        4.433148
 
  0.3333333E+00  0.3333333E+00  0.1250000E+00  0.3472222E-02
    1      -15.338042
    2      -15.337074
    3      -13.293577
    4       -2.748049
    5       -2.744565
    6        7.873652
    7       10.132085
    8       10.150337
 
  0.4166667E+00  0.3333333E+00  0.1250000E+00  0.6944444E-02
    1      -16.557300
    2      -14.697467
    3      -12.391451
    4       -4.102542
    5       -1.450662
    6        8.134921
    7        8.571577
    8        9.480380
 
  0.5000000E+00  0.3333333E+00  0.1250000E+00  0.6944444E-02
    1      -17.832179
    2      -14.152295
    3      -10.773310
    4       -5.402398
    5       -0.231996
    6        6.690742
    7        7.316893
    8        7.439578
 
 -0.4166667E+00  0.3333333E+00  0.1250000E+00  0.6944444E-02
    1      -18.895409
    2      -13.380649
    3       -9.296943
    4       -6.521893
    5        0.968102
    6        5.152146
    7        5.596700
    8        6.019860
 
 -0.3333333E+00  0.3333333E+00  0.1250000E+00  0.3472222E-02
    1      -19.678375
    2      -12.381224
    3       -8.504737
    4       -7.371386
    5        2.154038
    6        4.064425
    7        4.925002
    8        4.993807
 
  0.4166667E+00  0.4166667E+00  0.1250000E+00  0.3472222E-02
    1      -16.599154
    2      -15.586110
    3      -10.957783
    4       -4.511966
    5       -1.298205
    6        7.209357
    7        8.867940
    8        8.926399
 
  0.5000000E+00  0.4166667E+00  0.1250000E+00  0.6944444E-02
    1      -17.417088
    2      -15.321027
    3       -9.624834
    4       -5.215888
    5       -0.797453
    6        5.397278
    7        7.366143
    8        8.188659
 
 -0.4166667E+00  0.4166667E+00  0.1250000E+00  0.3472222E-02
    1      -18.283378
    2      -14.480563
    3       -8.976841
    4       -5.952149
    5        0.022222
    6        4.735902
    7        6.071135
    8        6.921438
 
  0.5000000E+00  0.5000000E+00  0.1250000E+00  0.1736111E-02
    1      -17.021608
    2      -15.984783
    3       -9.138798
    4       -5.109780
    5       -1.073319
    6        4.657010
    7        8.366048
    8        8.522180
 
  0.0000000E+00  0.0000000E+00  0.2500000E+00  0.1736111E-02
    1      -22.261077
    2      -10.362461
    3       -5.787655
    4       -5.763420
    5        0.524381
    6        1.291421
    7        1.764277
    8        2.406226
 
  0.8333333E-01  0.6938894E-17  0.2500000E+00  0.6944444E-02
    1      -22.096864
    2      -10.166568
    3       -6.421298
    4       -6.119881
    5        0.747162
    6        1.517551
    7        1.992107
    8        2.632955
 
  0.1666667E+00  0.1387779E-16  0.2500000E+00  0.6944444E-02
    1      -21.606117
    2       -9.584229
    3       -8.060853
    4       -6.912929
    5        1.415444
    6        2.194720
    7        2.675342
    8        3.312615
 
  0.2500000E+00  0.0000000E+00  0.2500000E+00  0.6944444E-02
    1      -20.794619
    2      -10.161239
    3       -8.634618
    4       -7.792772
    5        2.527019
    6        3.308947
    7        3.808701
    8        4.396773
 
  0.3333333E+00  0.2775558E-16  0.2500000E+00  0.6944444E-02
    1      -19.674747
    2      -12.366352
    3       -8.526012
    4       -7.368003
    5        2.163077
    6        4.068981
    7        4.913284
    8        4.959256
 
  0.4166667E+00  0.5551115E-16  0.2500000E+00  0.6944444E-02
    1      -18.278263
    2      -14.467747
    3       -8.998704
    4       -5.947391
    5        0.031377
    6        4.697203
    7        6.079003
    8        6.916308
 
  0.5000000E+00  0.0000000E+00  0.2500000E+00  0.3472222E-02
    1      -17.017795
    2      -15.970836
    3       -9.160883
    4       -5.104293
    5       -1.064433
    6        4.617478
    7        8.379388
    8        8.531301
 
  0.8333333E-01  0.8333333E-01  0.2500000E+00  0.3472222E-02
    1      -21.769153
    2       -9.777122
    3       -7.452750
    4       -6.801154
    5        1.193216
    6        1.969614
    7        2.448007
    8        3.086623
 
  0.1666667E+00  0.8333333E-01  0.2500000E+00  0.6944444E-02
    1      -21.117802
    2       -9.167185
    3       -9.009746
    4       -7.796821
    5        2.084357
    6        2.870300
    7        3.358790
    8        3.992083
 
  0.2500000E+00  0.8333333E-01  0.2500000E+00  0.6944444E-02
    1      -20.151661
    2      -11.243542
    3       -8.681996
    4       -7.895014
    5        3.172692
    6        3.416245
    7        4.238096
    8        4.727131
 
  0.3333333E+00  0.8333333E-01  0.2500000E+00  0.6944444E-02
    1      -18.890150
    2      -13.368437
    3       -9.316725
    4       -6.517228
    5        0.975773
    6        5.156018
    7        5.560294
    8        6.013745
 
  0.4166667E+00  0.8333333E-01  0.2500000E+00  0.6944444E-02
    1      -17.410943
    2      -15.309872
    3       -9.645539
    4       -5.210314
    5       -0.789783
    6        5.356414
    7        7.377355
    8        8.189816
 
  0.5000000E+00  0.8333333E-01  0.2500000E+00  0.6944444E-02
    1      -17.413067
    2      -15.307520
    3       -9.646106
    4       -5.211287
    5       -0.788991
    6        5.357385
    7        7.373758
    8        8.186942
 
 -0.4166667E+00  0.8333333E-01  0.2500000E+00  0.6944444E-02
    1      -18.892197
    2      -13.365924
    3       -9.318148
    4       -6.518796
    5        0.976634
    6        5.153739
    7        5.562628
    8        6.011135
 
 -0.3333333E+00  0.8333333E-01  0.2500000E+00  0.6944444E-02
    1      -20.153300
    2      -11.242155
    3       -8.683097
    4       -7.896455
    5        3.172507
    6        3.414119
    7        4.235987
    8        4.724992
 
 -0.2500000E+00  0.8333333E-01  0.2500000E+00  0.6944444E-02
    1      -21.118992
    2       -9.170231
    3       -9.010853
    4       -7.794009
    5        2.082850
    6        2.868816
    7        3.357265
    8        3.990577
 
 -0.1666667E+00  0.8333333E-01  0.2500000E+00  0.6944444E-02
    1      -21.769873
    2       -9.777812
    3       -7.467196
    4       -6.786863
    5        1.192320
    6        1.968713
    7        2.447090
    8        3.085714
 
 -0.8333333E-01  0.8333333E-01  0.2500000E+00  0.3472222E-02
    1      -22.097104
    2      -10.166800
    3       -6.439441
    4       -6.101660
    5        0.746864
    6        1.517250
    7        1.991801
    8        2.632652
 
  0.1666667E+00  0.1666667E+00  0.2500000E+00  0.3472222E-02
    1      -20.311755
    2      -10.499560
    3       -9.159210
    4       -8.073359
    5        3.196872
    6        3.627767
    7        3.990734
    8        4.496698
 
  0.2500000E+00  0.1666667E+00  0.2500000E+00  0.6944444E-02
    1      -19.202424
    2      -12.230181
    3      -10.214743
    4       -6.821683
    5        1.682137
    6        4.744941
    7        5.539299
    8        6.085583
 
  0.3333333E+00  0.1666667E+00  0.2500000E+00  0.6944444E-02
    1      -17.825637
    2      -14.142883
    3      -10.790805
    4       -5.397040
    5       -0.227561
    6        6.699537
    7        7.275165
    8        7.441236
 
  0.4166667E+00  0.1666667E+00  0.2500000E+00  0.6944444E-02
    1      -16.596124
    2      -15.572901
    3      -10.976231
    4       -4.507234
    5       -1.292956
    6        7.166773
    7        8.864323
    8        8.938904
 
  0.5000000E+00  0.1666667E+00  0.2500000E+00  0.6944444E-02
    1      -17.829922
    2      -14.138465
    3      -10.791580
    4       -5.399890
    5       -0.226071
    6        6.693425
    7        7.277781
    8        7.436267
 
 -0.4166667E+00  0.1666667E+00  0.2500000E+00  0.6944444E-02
    1      -19.206084
    2      -12.228715
    3      -10.213652
    4       -6.824713
    5        1.681894
    6        4.739999
    7        5.534720
    8        6.080716
 
 -0.3333333E+00  0.1666667E+00  0.2500000E+00  0.6944444E-02
    1      -20.314558
    2      -10.507831
    3       -9.149285
    4       -8.075897
    5        3.193220
    6        3.624663
    7        3.987207
    8        4.493039
 
 -0.2500000E+00  0.1666667E+00  0.2500000E+00  0.6944444E-02
    1      -21.119693
    2       -9.183610
    3       -9.011532
    4       -7.779135
    5        2.081954
    6        2.867903
    7        3.356344
    8        3.989663
 
 -0.1666667E+00  0.1666667E+00  0.2500000E+00  0.3472222E-02
    1      -21.607062
    2       -9.585142
    3       -8.079096
    4       -6.893589
    5        1.414250
    6        2.193516
    7        2.674119
    8        3.311407
 
  0.2500000E+00  0.2500000E+00  0.2500000E+00  0.3472222E-02
    1      -17.972830
    2      -13.268252
    3      -11.698188
    4       -5.480634
    5        0.068410
    6        6.492922
    7        7.156777
    8        7.880177
 
  0.3333333E+00  0.2500000E+00  0.2500000E+00  0.6944444E-02
    1      -16.550765
    2      -14.690901
    3      -12.405311
    4       -4.097553
    5       -1.450198
    6        8.132791
    7        8.584312
    8        9.439443
 
  0.4166667E+00  0.2500000E+00  0.2500000E+00  0.6944444E-02
    1      -16.556470
    2      -14.686701
    3      -12.403841
    4       -4.100675
    5       -1.448639
    6        8.132266
    7        8.573195
    8        9.440678
 
  0.5000000E+00  0.2500000E+00  0.2500000E+00  0.6944444E-02
    1      -17.978620
    2      -13.271343
    3      -11.689351
    4       -5.485089
    5        0.067975
    6        6.484438
    7        7.150828
    8        7.872143
 
 -0.4166667E+00  0.2500000E+00  0.2500000E+00  0.6944444E-02
    1      -19.207174
    2      -12.240905
    3      -10.199117
    4       -6.825788
    5        1.678042
    6        4.738529
    7        5.533435
    8        6.079238
 
 -0.3333333E+00  0.2500000E+00  0.2500000E+00  0.6944444E-02
    1      -20.155119
    2      -11.258031
    3       -8.663256
    4       -7.898204
    5        3.165573
    6        3.411772
    7        4.233739
    8        4.722610
 
 -0.2500000E+00  0.2500000E+00  0.2500000E+00  0.3472222E-02
    1      -20.796719
    2      -10.178172
    3       -8.636620
    4       -7.772386
    5        2.524354
    6        3.306151
    7        3.805905
    8        4.392573
 
  0.3333333E+00  0.3333333E+00  0.2500000E+00  0.3472222E-02
    1      -15.338053
    2      -15.337084
    3      -13.293617
    4       -2.748064
    5       -2.744574
    6        7.873651
    7       10.132092
    8       10.150344
 
  0.4166667E+00  0.3333333E+00  0.2500000E+00  0.6944444E-02
    1      -16.557313
    2      -14.697482
    3      -12.391468
    4       -4.102541
    5       -1.450655
    6        8.134899
    7        8.571759
    8        9.480504
 
  0.5000000E+00  0.3333333E+00  0.2500000E+00  0.6944444E-02
    1      -17.832192
    2      -14.152320
    3      -10.773320
    4       -5.402413
    5       -0.231997
    6        6.691079
    7        7.317004
    8        7.434116
 
 -0.4166667E+00  0.3333333E+00  0.2500000E+00  0.6944444E-02
    1      -18.895400
    2      -13.380629
    3       -9.296947
    4       -6.521907
    5        0.968101
    6        5.152548
    7        5.596881
    8        6.006993
 
 -0.3333333E+00  0.3333333E+00  0.2500000E+00  0.3472222E-02
    1      -19.678366
    2      -12.381208
    3       -8.504722
    4       -7.371377