 vasp.5.3.5 31Mar14 (build Nov 02 2014 15:17:37) complex                        
  
 executed on        ion-Intel-MKL date 2016.10.19  04:38:34
 running on    6 total cores
 distrk:  each k-point on    6 cores,    1 groups
 distr:  one band on NCORES_PER_BAND=   1 cores,    6 groups


--------------------------------------------------------------------------------------------------------


 INCAR:
 POTCAR:   PAW_PBE C 08Apr2002                    

 ----------------------------------------------------------------------------- 
|                                                                             |
|           W    W    AA    RRRRR   N    N  II  N    N   GGGG   !!!           |
|           W    W   A  A   R    R  NN   N  II  NN   N  G    G  !!!           |
|           W    W  A    A  R    R  N N  N  II  N N  N  G       !!!           |
|           W WW W  AAAAAA  RRRRR   N  N N  II  N  N N  G  GGG   !            |
|           WW  WW  A    A  R   R   N   NN  II  N   NN  G    G                |
|           W    W  A    A  R    R  N    N  II  N    N   GGGG   !!!           |
|                                                                             |
|      For optimal performance we recommend to set                            |
|        NCORE= 4 - approx SQRT( number of cores)                             |
|      NCORE specifies how many cores store one orbital (NPAR=cpu/NCORE).     |
|      This setting can  greatly improve the performance of VASP for DFT.     |
|      The default, NPAR=number of cores might be grossly inefficient         |
|      on modern multi-core architectures or massively parallel machines.     |
|      Do your own testing !!!!                                               |
|      Unfortunately you need to use the default for GW and RPA calculations. |
|      (for HF NCORE is supported but not extensively tested yet)             |
|                                                                             |
 ----------------------------------------------------------------------------- 

 POTCAR:   PAW_PBE C 08Apr2002                    
   VRHFIN =C: s2p2                                                              
   LEXCH  = PE                                                                  
   EATOM  =   147.1560 eV,   10.8157 Ry                                         
                                                                                
   TITEL  = PAW_PBE C 08Apr2002                                                 
   LULTRA =        F    use ultrasoft PP ?                                      
   IUNSCR =        0    unscreen: 0-lin 1-nonlin 2-no                           
   RPACOR =     .000    partial core radius                                     
   POMASS =   12.011; ZVAL   =    4.000    mass and valenz                      
   RCORE  =    1.500    outmost cutoff radius                                   
   RWIGS  =    1.630; RWIGS  =     .863    wigner-seitz radius (au A)           
   ENMAX  =  400.000; ENMIN  =  300.000 eV                                      
   ICORE  =        2    local potential                                         
   LCOR   =        T    correct aug charges                                     
   LPAW   =        T    paw PP                                                  
   EAUG   =  644.873                                                            
   DEXC   =     .000                                                            
   RMAX   =    2.266    core radius for proj-oper                               
   RAUG   =    1.300    factor for augmentation sphere                          
   RDEP   =    1.501    radius for radial grids                                 
   RDEPT  =    1.300    core radius for aug-charge                              
   QCUT   =   -5.516; QGAM   =   11.032    optimization parameters              
                                                                                
   Description                                                                  
     l     E      TYP  RCUT    TYP  RCUT                                        
     0   .000     23  1.200                                                     
     0   .000     23  1.200                                                     
     1   .000     23  1.500                                                     
     1  2.500     23  1.500                                                     
     2   .000      7  1.500                                                     
  local pseudopotential read in
  atomic valenz-charges read in
  non local Contribution for L=           0  read in
    real space projection operators read in
  non local Contribution for L=           0  read in
    real space projection operators read in
  non local Contribution for L=           1  read in
    real space projection operators read in
  non local Contribution for L=           1  read in
    real space projection operators read in
    PAW grid and wavefunctions read in
 
   number of l-projection  operators is LMAX  =           4
   number of lm-projection operators is LMMAX =           8
 

 ----------------------------------------------------------------------------- 
|                                                                             |
|  ADVICE TO THIS USER RUNNING 'VASP/VAMP'   (HEAR YOUR MASTER'S VOICE ...):  |
|                                                                             |
|      You have a (more or less) 'large supercell' and for larger cells       |
|      it might be more efficient to use real space projection operators      |
|      So try LREAL= Auto  in the INCAR   file.                               |
|      Mind: If you want to do a very accurate calculations keep the          |
|      reciprocal projection scheme          (i.e. LREAL=.FALSE.)             |
|                                                                             |
 ----------------------------------------------------------------------------- 

 PAW_PBE C 08Apr2002                    :
 energy of atom  1       EATOM= -147.1560
 kinetic energy error for atom=    0.0016 (will be added to EATOM!!)
 
 
 POSCAR: C                                       
  positions in direct lattice
  No initial velocities read in
 exchange correlation table for  LEXCH =        8
   RHO(1)=    0.500       N(1)  =     2000
   RHO(2)=  100.500       N(2)  =     4000
 


--------------------------------------------------------------------------------------------------------


 ion  position               nearest neighbor table
   1  0.499  0.000  0.124-  19 1.42  18 1.42  20 1.43
   2  1.000  0.000  0.125-  17 1.42  20 1.42  19 1.42
   3  0.500  0.500  0.125-  20 1.42  17 1.42  18 1.42
   4  1.000  0.500  0.125-  19 1.42  18 1.42  17 1.42
   5  0.500  0.000  0.625-  22 1.42  23 1.42  24 1.42
   6  1.000  0.000  0.625-  21 1.42  24 1.42  23 1.42
   7  0.500  0.500  0.625-  24 1.42  21 1.42  22 1.42
   8  1.000  0.500  0.625-  23 1.42  22 1.42  21 1.42
   9  0.000  0.500  0.375-  27 1.42  26 1.42  28 1.42
  10  0.500  0.500  0.375-  28 1.42  25 1.42  27 1.42
  11  0.000  1.000  0.375-  25 1.42  28 1.42  26 1.42
  12  0.500  1.000  0.375-  26 1.42  27 1.42  25 1.42
  13  0.000  0.500  0.875-  31 1.42  30 1.42  32 1.42
  14  0.500  0.500  0.875-  32 1.42  29 1.42  31 1.42
  15  0.000  1.000  0.875-  29 1.42  32 1.42  30 1.42
  16  0.500  1.000  0.875-  30 1.42  31 1.42  29 1.42
  17  0.166  0.334  0.125-   2 1.42   3 1.42   4 1.42
  18  0.666  0.334  0.125-   4 1.42   1 1.42   3 1.42
  19  0.166  0.834  0.125-   1 1.42   4 1.42   2 1.42
  20  0.666  0.834  0.125-   3 1.42   2 1.42   1 1.43
  21  0.166  0.334  0.625-   6 1.42   7 1.42   8 1.42
  22  0.666  0.334  0.625-   5 1.42   8 1.42   7 1.42
  23  0.166  0.834  0.625-   8 1.42   5 1.42   6 1.42
  24  0.666  0.834  0.625-   7 1.42   6 1.42   5 1.42
  25  0.334  0.166  0.375-  11 1.42  10 1.42  12 1.42
  26  0.834  0.166  0.375-  12 1.42   9 1.42  11 1.42
  27  0.334  0.666  0.375-   9 1.42  12 1.42  10 1.42
  28  0.834  0.666  0.375-  10 1.42  11 1.42   9 1.42
  29  0.334  0.166  0.875-  15 1.42  14 1.42  16 1.42
  30  0.834  0.166  0.875-  16 1.42  13 1.42  15 1.42
  31  0.334  0.666  0.875-  13 1.42  16 1.42  14 1.42
  32  0.834  0.666  0.875-  14 1.42  15 1.42  13 1.42
 
  LATTYP: Found a base centered orthorhombic cell.
 ALAT       =     4.9295501972
 B/A-ratio  =     1.7336081796
 C/A-ratio  =     2.5291742391
  
  Lattice vectors:
  
 A1 = (   4.9328744980,  -0.0019192860,   0.0000000000)
 A2 = (  -2.4680993993,   4.2710349859,   0.0000000000)
 A3 = (   0.0000000000,   0.0000000000,  12.4676913689)


Analysis of symmetry for initial positions (statically):
=====================================================================
 Subroutine PRICEL returns:
 Original cell was already a primitive cell.
 

 Routine SETGRP: Setting up the symmetry group for a 
 base centered orthorhombic supercell.


 Subroutine GETGRP returns: Found  1 space group operations
 (whereof  1 operations were pure point group operations)
 out of a pool of  8 trial point group operations.


The static configuration has the point symmetry C_1 .


Analysis of symmetry for dynamics (positions and initial velocities):
=====================================================================
 Subroutine PRICEL returns:
 Original cell was already a primitive cell.
 

 Routine SETGRP: Setting up the symmetry group for a 
 base centered orthorhombic supercell.


 Subroutine GETGRP returns: Found  1 space group operations
 (whereof  1 operations were pure point group operations)
 out of a pool of  8 trial point group operations.


The dynamic configuration has the point symmetry C_1 .
 
 
 KPOINTS: B4C B11C-CBC                            

Automatic generation of k-mesh.
Space group operators:
 irot       det(A)        alpha          n_x          n_y          n_z        tau_x        tau_y        tau_z
    1     1.000000     0.000000     1.000000     0.000000     0.000000     0.000000     0.000000     0.000000
 
 Subroutine IBZKPT returns following result:
 ===========================================
 
 Found     76 irreducible k-points:
 
 Following reciprocal coordinates:
            Coordinates               Weight
  0.000000  0.000000  0.000000      1.000000
  0.166667  0.000000  0.000000      2.000000
  0.333333  0.000000  0.000000      2.000000
  0.500000  0.000000  0.000000      1.000000
  0.000000  0.166667  0.000000      2.000000
  0.166667  0.166667  0.000000      2.000000
  0.333333  0.166667  0.000000      2.000000
  0.500000  0.166667  0.000000      2.000000
 -0.333333  0.166667  0.000000      2.000000
 -0.166667  0.166667  0.000000      2.000000
  0.000000  0.333333  0.000000      2.000000
  0.166667  0.333333  0.000000      2.000000
  0.333333  0.333333  0.000000      2.000000
  0.500000  0.333333  0.000000      2.000000
 -0.333333  0.333333  0.000000      2.000000
 -0.166667  0.333333  0.000000      2.000000
  0.000000  0.500000  0.000000      1.000000
  0.166667  0.500000  0.000000      2.000000
  0.333333  0.500000  0.000000      2.000000
  0.500000  0.500000  0.000000      1.000000
  0.000000  0.000000  0.250000      2.000000
  0.166667  0.000000  0.250000      2.000000
  0.333333  0.000000  0.250000      2.000000
  0.500000  0.000000  0.250000      2.000000
 -0.333333 -0.000000  0.250000      2.000000
 -0.166667 -0.000000  0.250000      2.000000
  0.000000  0.166667  0.250000      2.000000
  0.166667  0.166667  0.250000      2.000000
  0.333333  0.166667  0.250000      2.000000
  0.500000  0.166667  0.250000      2.000000
 -0.333333  0.166667  0.250000      2.000000
 -0.166667  0.166667  0.250000      2.000000
  0.000000  0.333333  0.250000      2.000000
  0.166667  0.333333  0.250000      2.000000
  0.333333  0.333333  0.250000      2.000000
  0.500000  0.333333  0.250000      2.000000
 -0.333333  0.333333  0.250000      2.000000
 -0.166667  0.333333  0.250000      2.000000
  0.000000  0.500000  0.250000      2.000000
  0.166667  0.500000  0.250000      2.000000
  0.333333  0.500000  0.250000      2.000000
  0.500000  0.500000  0.250000      2.000000
 -0.333333  0.500000  0.250000      2.000000
 -0.166667  0.500000  0.250000      2.000000
 -0.000000 -0.333333  0.250000      2.000000
  0.166667 -0.333333  0.250000      2.000000
  0.333333 -0.333333  0.250000      2.000000
  0.500000 -0.333333  0.250000      2.000000
 -0.333333 -0.333333  0.250000      2.000000
 -0.166667 -0.333333  0.250000      2.000000
 -0.000000 -0.166667  0.250000      2.000000
  0.166667 -0.166667  0.250000      2.000000
  0.333333 -0.166667  0.250000      2.000000
  0.500000 -0.166667  0.250000      2.000000
 -0.333333 -0.166667  0.250000      2.000000
 -0.166667 -0.166667  0.250000      2.000000
  0.000000  0.000000  0.500000      1.000000
  0.166667  0.000000  0.500000      2.000000
  0.333333  0.000000  0.500000      2.000000
  0.500000  0.000000  0.500000      1.000000
  0.000000  0.166667  0.500000      2.000000
  0.166667  0.166667  0.500000      2.000000
  0.333333  0.166667  0.500000      2.000000
  0.500000  0.166667  0.500000      2.000000
 -0.333333  0.166667  0.500000      2.000000
 -0.166667  0.166667  0.500000      2.000000
  0.000000  0.333333  0.500000      2.000000
  0.166667  0.333333  0.500000      2.000000
  0.333333  0.333333  0.500000      2.000000
  0.500000  0.333333  0.500000      2.000000
 -0.333333  0.333333  0.500000      2.000000
 -0.166667  0.333333  0.500000      2.000000
  0.000000  0.500000  0.500000      1.000000
  0.166667  0.500000  0.500000      2.000000
  0.333333  0.500000  0.500000      2.000000
  0.500000  0.500000  0.500000      1.000000
 
 Following cartesian coordinates:
            Coordinates               Weight
  0.000000  0.000000  0.000000      1.000000
  0.033795  0.019529  0.000000      2.000000
  0.067589  0.039058  0.000000      2.000000
  0.101384  0.058586  0.000000      1.000000
  0.000015  0.039031  0.000000      2.000000
  0.033810  0.058560  0.000000      2.000000
  0.067604  0.078089  0.000000      2.000000
  0.101399  0.097618  0.000000      2.000000
 -0.067574 -0.000026  0.000000      2.000000
 -0.033779  0.019503  0.000000      2.000000
  0.000030  0.078063  0.000000      2.000000
  0.033825  0.097591  0.000000      2.000000
  0.067619  0.117120  0.000000      2.000000
  0.101414  0.136649  0.000000      2.000000
 -0.067559  0.039005  0.000000      2.000000
 -0.033764  0.058534  0.000000      2.000000
  0.000046  0.117094  0.000000      1.000000
  0.033840  0.136623  0.000000      2.000000
  0.067635  0.156152  0.000000      2.000000
  0.101429  0.175680  0.000000      1.000000
  0.000000  0.000000  0.020052      2.000000
  0.033795  0.019529  0.020052      2.000000
  0.067589  0.039058  0.020052      2.000000
  0.101384  0.058586  0.020052      2.000000
 -0.067589 -0.039058  0.020052      2.000000
 -0.033795 -0.019529  0.020052      2.000000
  0.000015  0.039031  0.020052      2.000000
  0.033810  0.058560  0.020052      2.000000
  0.067604  0.078089  0.020052      2.000000
  0.101399  0.097618  0.020052      2.000000
 -0.067574 -0.000026  0.020052      2.000000
 -0.033779  0.019503  0.020052      2.000000
  0.000030  0.078063  0.020052      2.000000
  0.033825  0.097591  0.020052      2.000000
  0.067619  0.117120  0.020052      2.000000
  0.101414  0.136649  0.020052      2.000000
 -0.067559  0.039005  0.020052      2.000000
 -0.033764  0.058534  0.020052      2.000000
  0.000046  0.117094  0.020052      2.000000
  0.033840  0.136623  0.020052      2.000000
  0.067635  0.156152  0.020052      2.000000
  0.101429  0.175680  0.020052      2.000000
 -0.067543  0.078036  0.020052      2.000000
 -0.033749  0.097565  0.020052      2.000000
 -0.000030 -0.078063  0.020052      2.000000
  0.033764 -0.058534  0.020052      2.000000
  0.067559 -0.039005  0.020052      2.000000
  0.101353 -0.019476  0.020052      2.000000
 -0.067619 -0.117120  0.020052      2.000000
 -0.033825 -0.097591  0.020052      2.000000
 -0.000015 -0.039031  0.020052      2.000000
  0.033779 -0.019503  0.020052      2.000000
  0.067574  0.000026  0.020052      2.000000
  0.101368  0.019555  0.020052      2.000000
 -0.067604 -0.078089  0.020052      2.000000
 -0.033810 -0.058560  0.020052      2.000000
  0.000000  0.000000  0.040104      1.000000
  0.033795  0.019529  0.040104      2.000000
  0.067589  0.039058  0.040104      2.000000
  0.101384  0.058586  0.040104      1.000000
  0.000015  0.039031  0.040104      2.000000
  0.033810  0.058560  0.040104      2.000000
  0.067604  0.078089  0.040104      2.000000
  0.101399  0.097618  0.040104      2.000000
 -0.067574 -0.000026  0.040104      2.000000
 -0.033779  0.019503  0.040104      2.000000
  0.000030  0.078063  0.040104      2.000000
  0.033825  0.097591  0.040104      2.000000
  0.067619  0.117120  0.040104      2.000000
  0.101414  0.136649  0.040104      2.000000
 -0.067559  0.039005  0.040104      2.000000
 -0.033764  0.058534  0.040104      2.000000
  0.000046  0.117094  0.040104      1.000000
  0.033840  0.136623  0.040104      2.000000
  0.067635  0.156152  0.040104      2.000000
  0.101429  0.175680  0.040104      1.000000
 
 TETIRR: Found    432 inequivalent tetrahedra from      864


--------------------------------------------------------------------------------------------------------




 Dimension of arrays:
   k-points           NKPTS =     76   k-points in BZ     NKDIM =     76   number of bands    NBANDS=     84
   number of dos      NEDOS =    301   number of ions     NIONS =     32
   non local maximal  LDIM  =      4   non local SUM 2l+1 LMDIM =      8
   total plane-waves  NPLWV = 276480
   max r-space proj   IRMAX =      1   max aug-charges    IRDMAX=  12622
   dimension x,y,z NGX =    48 NGY =   48 NGZ =  120
   dimension x,y,z NGXF=    96 NGYF=   96 NGZF=  240
   support grid    NGXF=    96 NGYF=   96 NGZF=  240
   ions per type =              32
 NGX,Y,Z   is equivalent  to a cutoff of  16.18, 16.18, 16.00 a.u.
 NGXF,Y,Z  is equivalent  to a cutoff of  32.35, 32.35, 32.00 a.u.


 I would recommend the setting:
   dimension x,y,z NGX =    46 NGY =   46 NGZ =  115
 SYSTEM =  graphite                                
 POSCAR =  C                                       

 Startparameter for this run:
   NWRITE =      2    write-flag & timer
   PREC   = accura    normal or accurate (medium, high low for compatibility)
   ISTART =      0    job   : 0-new  1-cont  2-samecut
   ICHARG =      2    charge: 1-file 2-atom 10-const
   ISPIN  =      1    spin polarized calculation?
   LNONCOLLINEAR =      F non collinear calculations
   LSORBIT =      F    spin-orbit coupling
   INIWAV =      1    electr: 0-lowe 1-rand  2-diag
   LASPH  =      F    aspherical Exc in radial PAW
   METAGGA=      F    non-selfconsistent MetaGGA calc.

 Electronic Relaxation 1
   ENCUT  =  800.0 eV  58.80 Ry    7.67 a.u.  11.38 11.38 28.75*2*pi/ulx,y,z
   ENINI  =  800.0     initial cutoff
   ENAUG  =  644.9 eV  augmentation charge cutoff
   NELM   =    200;   NELMIN=  2; NELMDL=  0     # of ELM steps 
   EDIFF  = 0.1E-07   stopping-criterion for ELM
   LREAL  =      F    real-space projection
   NLSPLINE    = F    spline interpolate recip. space projectors
   LCOMPAT=      F    compatible to vasp.4.4
   GGA_COMPAT  = T    GGA compatible to vasp.4.4-vasp.4.6
   LMAXPAW     = -100 max onsite density
   LMAXMIX     =    2 max onsite mixed and CHGCAR
   VOSKOWN=      0    Vosko Wilk Nusair interpolation
   ROPT   =    0.00000
 Ionic relaxation
   EDIFFG = 0.1E-02   stopping-criterion for IOM
   NSW    =      0    number of steps for IOM
   NBLOCK =      1;   KBLOCK =      1    inner block; outer block 
   IBRION =     -1    ionic relax: 0-MD 1-quasi-New 2-CG
   NFREE  =      0    steps in history (QN), initial steepest desc. (CG)
   ISIF   =      2    stress and relaxation
   IWAVPR =     10    prediction:  0-non 1-charg 2-wave 3-comb
   ISYM   =      2    0-nonsym 1-usesym 2-fastsym
   LCORR  =      T    Harris-Foulkes like correction to forces

   POTIM  = 0.5000    time-step for ionic-motion
   TEIN   =    0.0    initial temperature
   TEBEG  =    0.0;   TEEND  =   0.0 temperature during run
   SMASS  =  -3.00    Nose mass-parameter (am)
   estimated Nose-frequenzy (Omega)   =  0.10E-29 period in steps =****** mass=  -0.556E-27a.u.
   SCALEE = 1.0000    scale energy and forces
   NPACO  =    256;   APACO  = 16.0  distance and # of slots for P.C.
   PSTRESS=    0.0 pullay stress

  Mass of Ions in am
   POMASS =  12.01
  Ionic Valenz
   ZVAL   =   4.00
  Atomic Wigner-Seitz radii
   RWIGS  =  -1.00
  virtual crystal weights 
   VCA    =   1.00
   NELECT =     128.0000    total number of electrons
   NUPDOWN=      -1.0000    fix difference up-down

 DOS related values:
   EMIN   =  10.00;   EMAX   =-10.00  energy-range for DOS
   EFERMI =   0.00
   ISMEAR =    -5;   SIGMA  =   0.20  broadening in eV -4-tet -1-fermi 0-gaus

 Electronic relaxation 2 (details)
   IALGO  =     38    algorithm
   LDIAG  =      T    sub-space diagonalisation (order eigenvalues)
   LSUBROT=      F    optimize rotation matrix (better conditioning)
   TURBO    =      0    0=normal 1=particle mesh
   IRESTART =      0    0=no restart 2=restart with 2 vectors
   NREBOOT  =      0    no. of reboots
   NMIN     =      0    reboot dimension
   EREF     =   0.00    reference energy to select bands
   IMIX   =      4    mixing-type and parameters
     AMIX     =   0.40;   BMIX     =  1.00
     AMIX_MAG =   1.60;   BMIX_MAG =  1.00
     AMIN     =   0.10
     WC   =   100.;   INIMIX=   1;  MIXPRE=   1;  MAXMIX= -45

 Intra band minimization:
   WEIMIN = 0.0000     energy-eigenvalue tresh-hold
   EBREAK =  0.30E-10  absolut break condition
   DEPER  =   0.30     relativ break condition  

   TIME   =   0.40     timestep for ELM

  volume/ion in A,a.u.               =       8.21        55.38
  Fermi-wavevector in a.u.,A,eV,Ry     =   1.288361  2.434650 22.583964  1.659875
  Thomas-Fermi vector in A             =   2.420320
 
 Write flags
   LWAVE  =      F    write WAVECAR
   LCHARG =      F    write CHGCAR
   LVTOT  =      F    write LOCPOT, total local potential
   LVHAR  =      F    write LOCPOT, Hartree potential only
   LELF   =      F    write electronic localiz. function (ELF)
   LORBIT =      0    0 simple, 1 ext, 2 COOP (PROOUT)


 Dipole corrections
   LMONO  =      F    monopole corrections only (constant potential shift)
   LDIPOL =      F    correct potential (dipole corrections)
   IDIPOL =      0    1-x, 2-y, 3-z, 4-all directions 
   EPSILON=  1.0000000 bulk dielectric constant

 Exchange correlation treatment:
   GGA     =    PE    GGA type
   LEXCH   =     8    internal setting for exchange type
   VOSKOWN=      0    Vosko Wilk Nusair interpolation
   LHFCALC =     F    Hartree Fock is set to
   LHFONE  =     F    Hartree Fock one center treatment
   AEXX    =    0.0000 exact exchange contribution

 Linear response parameters
   LEPSILON=     F    determine dielectric tensor
   LRPA    =     F    only Hartree local field effects (RPA)
   LNABLA  =     F    use nabla operator in PAW spheres
   LVEL    =     F    velocity operator in full k-point grid
   LINTERFAST=   F  fast interpolation
   KINTER  =     0    interpolate to denser k-point grid
   CSHIFT  =0.1000    complex shift for real part using Kramers Kronig
   OMEGAMAX=  -1.0    maximum frequency
   DEG_THRESHOLD= 0.2000000E-02 threshold for treating states as degnerate
   RTIME   =    0.100 relaxation time in fs

 Orbital magnetization related:
   ORBITALMAG=     F  switch on orbital magnetization
   LCHIMAG   =     F  perturbation theory with respect to B field
   DQ        =  0.001000  dq finite difference perturbation B field



--------------------------------------------------------------------------------------------------------


 Static calculation
 charge density and potential will be updated during run
 non-spin polarized calculation
 Variant of blocked Davidson
 Davidson routine will perform the subspace rotation
 perform sub-space diagonalisation
    after iterative eigenvector-optimisation
 modified Broyden-mixing scheme, WC =      100.0
 initial mixing is a Kerker type mixing with AMIX =  0.4000 and BMIX =      1.0000
 Hartree-type preconditioning will be used
 using additional bands           20
 reciprocal scheme for non local part
 calculate Harris-corrections to forces 
   (improved forces if not selfconsistent)
 use gradient corrections 
 use of overlap-Matrix (Vanderbilt PP)
 Fermi weights with tetrahedron method with Bloechl corrections


--------------------------------------------------------------------------------------------------------


  energy-cutoff  :      800.00
  volume of cell :      262.62
      direct lattice vectors                 reciprocal lattice vectors
     4.932874498 -0.001919286  0.000000000     0.202767147  0.117172881  0.000000000
    -2.468099399  4.271034986  0.000000000     0.000091118  0.234187941  0.000000000
     0.000000000  0.000000000 12.467691369     0.000000000  0.000000000  0.080207311

  length of vectors
     4.932874871  4.932874871 12.467691369     0.234187958  0.234187958  0.080207311


 
 k-points in units of 2pi/SCALE and weight: B4C B11C-CBC                            
   0.00000000  0.00000000  0.00000000       0.007
   0.03379452  0.01952881  0.00000000       0.014
   0.06758905  0.03905763  0.00000000       0.014
   0.10138357  0.05858644  0.00000000       0.007
   0.00001519  0.03903132  0.00000000       0.014
   0.03380971  0.05856014  0.00000000       0.014
   0.06760424  0.07808895  0.00000000       0.014
   0.10139876  0.09761776  0.00000000       0.014
  -0.06757386 -0.00002630  0.00000000       0.014
  -0.03377934  0.01950251  0.00000000       0.014
   0.00003037  0.07806265  0.00000000       0.014
   0.03382490  0.09759146  0.00000000       0.014
   0.06761942  0.11712027  0.00000000       0.014
   0.10141395  0.13664909  0.00000000       0.014
  -0.06755868  0.03900502  0.00000000       0.014
  -0.03376415  0.05853383  0.00000000       0.014
   0.00004556  0.11709397  0.00000000       0.007
   0.03384008  0.13662278  0.00000000       0.014
   0.06763461  0.15615160  0.00000000       0.014
   0.10142913  0.17568041  0.00000000       0.007
   0.00000000  0.00000000  0.02005183       0.014
   0.03379452  0.01952881  0.02005183       0.014
   0.06758905  0.03905763  0.02005183       0.014
   0.10138357  0.05858644  0.02005183       0.014
  -0.06758905 -0.03905763  0.02005183       0.014
  -0.03379452 -0.01952881  0.02005183       0.014
   0.00001519  0.03903132  0.02005183       0.014
   0.03380971  0.05856014  0.02005183       0.014
   0.06760424  0.07808895  0.02005183       0.014
   0.10139876  0.09761776  0.02005183       0.014
  -0.06757386 -0.00002630  0.02005183       0.014
  -0.03377934  0.01950251  0.02005183       0.014
   0.00003037  0.07806265  0.02005183       0.014
   0.03382490  0.09759146  0.02005183       0.014
   0.06761942  0.11712027  0.02005183       0.014
   0.10141395  0.13664909  0.02005183       0.014
  -0.06755868  0.03900502  0.02005183       0.014
  -0.03376415  0.05853383  0.02005183       0.014
   0.00004556  0.11709397  0.02005183       0.014
   0.03384008  0.13662278  0.02005183       0.014
   0.06763461  0.15615160  0.02005183       0.014
   0.10142913  0.17568041  0.02005183       0.014
  -0.06754349  0.07803634  0.02005183       0.014
  -0.03374897  0.09756516  0.02005183       0.014
  -0.00003037 -0.07806265  0.02005183       0.014
   0.03376415 -0.05853383  0.02005183       0.014
   0.06755868 -0.03900502  0.02005183       0.014
   0.10135320 -0.01947621  0.02005183       0.014
  -0.06761942 -0.11712027  0.02005183       0.014
  -0.03382490 -0.09759146  0.02005183       0.014
  -0.00001519 -0.03903132  0.02005183       0.014
   0.03377934 -0.01950251  0.02005183       0.014
   0.06757386  0.00002630  0.02005183       0.014
   0.10136839  0.01955512  0.02005183       0.014
  -0.06760424 -0.07808895  0.02005183       0.014
  -0.03380971 -0.05856014  0.02005183       0.014
   0.00000000  0.00000000  0.04010366       0.007
   0.03379452  0.01952881  0.04010366       0.014
   0.06758905  0.03905763  0.04010366       0.014
   0.10138357  0.05858644  0.04010366       0.007
   0.00001519  0.03903132  0.04010366       0.014
   0.03380971  0.05856014  0.04010366       0.014
   0.06760424  0.07808895  0.04010366       0.014
   0.10139876  0.09761776  0.04010366       0.014
  -0.06757386 -0.00002630  0.04010366       0.014
  -0.03377934  0.01950251  0.04010366       0.014
   0.00003037  0.07806265  0.04010366       0.014
   0.03382490  0.09759146  0.04010366       0.014
   0.06761942  0.11712027  0.04010366       0.014
   0.10141395  0.13664909  0.04010366       0.014
  -0.06755868  0.03900502  0.04010366       0.014
  -0.03376415  0.05853383  0.04010366       0.014
   0.00004556  0.11709397  0.04010366       0.007
   0.03384008  0.13662278  0.04010366       0.014
   0.06763461  0.15615160  0.04010366       0.014
   0.10142913  0.17568041  0.04010366       0.007
 
 k-points in reciprocal lattice and weights: B4C B11C-CBC                            
   0.00000000  0.00000000  0.00000000       0.007
   0.16666667  0.00000000  0.00000000       0.014
   0.33333333  0.00000000  0.00000000       0.014
   0.50000000  0.00000000  0.00000000       0.007
   0.00000000  0.16666667  0.00000000       0.014
   0.16666667  0.16666667  0.00000000       0.014
   0.33333333  0.16666667  0.00000000       0.014
   0.50000000  0.16666667  0.00000000       0.014
  -0.33333333  0.16666667  0.00000000       0.014
  -0.16666667  0.16666667  0.00000000       0.014
   0.00000000  0.33333333  0.00000000       0.014
   0.16666667  0.33333333  0.00000000       0.014
   0.33333333  0.33333333  0.00000000       0.014
   0.50000000  0.33333333  0.00000000       0.014
  -0.33333333  0.33333333  0.00000000       0.014
  -0.16666667  0.33333333  0.00000000       0.014
   0.00000000  0.50000000  0.00000000       0.007
   0.16666667  0.50000000  0.00000000       0.014
   0.33333333  0.50000000  0.00000000       0.014
   0.50000000  0.50000000  0.00000000       0.007
   0.00000000  0.00000000  0.25000000       0.014
   0.16666667  0.00000000  0.25000000       0.014
   0.33333333  0.00000000  0.25000000       0.014
   0.50000000  0.00000000  0.25000000       0.014
  -0.33333333 -0.00000000  0.25000000       0.014
  -0.16666667 -0.00000000  0.25000000       0.014
   0.00000000  0.16666667  0.25000000       0.014
   0.16666667  0.16666667  0.25000000       0.014
   0.33333333  0.16666667  0.25000000       0.014
   0.50000000  0.16666667  0.25000000       0.014
  -0.33333333  0.16666667  0.25000000       0.014
  -0.16666667  0.16666667  0.25000000       0.014
   0.00000000  0.33333333  0.25000000       0.014
   0.16666667  0.33333333  0.25000000       0.014
   0.33333333  0.33333333  0.25000000       0.014
   0.50000000  0.33333333  0.25000000       0.014
  -0.33333333  0.33333333  0.25000000       0.014
  -0.16666667  0.33333333  0.25000000       0.014
   0.00000000  0.50000000  0.25000000       0.014
   0.16666667  0.50000000  0.25000000       0.014
   0.33333333  0.50000000  0.25000000       0.014
   0.50000000  0.50000000  0.25000000       0.014
  -0.33333333  0.50000000  0.25000000       0.014
  -0.16666667  0.50000000  0.25000000       0.014
  -0.00000000 -0.33333333  0.25000000       0.014
   0.16666667 -0.33333333  0.25000000       0.014
   0.33333333 -0.33333333  0.25000000       0.014
   0.50000000 -0.33333333  0.25000000       0.014
  -0.33333333 -0.33333333  0.25000000       0.014
  -0.16666667 -0.33333333  0.25000000       0.014
  -0.00000000 -0.16666667  0.25000000       0.014
   0.16666667 -0.16666667  0.25000000       0.014
   0.33333333 -0.16666667  0.25000000       0.014
   0.50000000 -0.16666667  0.25000000       0.014
  -0.33333333 -0.16666667  0.25000000       0.014
  -0.16666667 -0.16666667  0.25000000       0.014
   0.00000000  0.00000000  0.50000000       0.007
   0.16666667  0.00000000  0.50000000       0.014
   0.33333333  0.00000000  0.50000000       0.014
   0.50000000  0.00000000  0.50000000       0.007
   0.00000000  0.16666667  0.50000000       0.014
   0.16666667  0.16666667  0.50000000       0.014
   0.33333333  0.16666667  0.50000000       0.014
   0.50000000  0.16666667  0.50000000       0.014
  -0.33333333  0.16666667  0.50000000       0.014
  -0.16666667  0.16666667  0.50000000       0.014
   0.00000000  0.33333333  0.50000000       0.014
   0.16666667  0.33333333  0.50000000       0.014
   0.33333333  0.33333333  0.50000000       0.014
   0.50000000  0.33333333  0.50000000       0.014
  -0.33333333  0.33333333  0.50000000       0.014
  -0.16666667  0.33333333  0.50000000       0.014
   0.00000000  0.50000000  0.50000000       0.007
   0.16666667  0.50000000  0.50000000       0.014
   0.33333333  0.50000000  0.50000000       0.014
   0.50000000  0.50000000  0.50000000       0.007
 
 position of ions in fractional coordinates (direct lattice) 
   0.49892749  0.00032672  0.12425418
   0.99967330  0.00032672  0.12500000
   0.49967330  0.50032672  0.12500000
   0.99967330  0.50032672  0.12500000
   0.49967330  0.00032672  0.62500000
   0.99967330  0.00032672  0.62500000
   0.49967330  0.50032672  0.62500000
   0.99967330  0.50032672  0.62500000
   0.00032672  0.49967330  0.37500000
   0.50032672  0.49967330  0.37500000
   0.00032672  0.99967330  0.37500000
   0.50032672  0.99967330  0.37500000
   0.00032672  0.49967330  0.87500000
   0.50032672  0.49967330  0.87500000
   0.00032672  0.99967330  0.87500000
   0.50032672  0.99967330  0.87500000
   0.16629246  0.33370753  0.12500000
   0.66629246  0.33370753  0.12500000
   0.16629246  0.83370753  0.12500000
   0.66629246  0.83370753  0.12500000
   0.16629246  0.33370753  0.62500000
   0.66629246  0.33370753  0.62500000
   0.16629246  0.83370753  0.62500000
   0.66629246  0.83370753  0.62500000
   0.33370753  0.16629246  0.37500000
   0.83370753  0.16629246  0.37500000
   0.33370753  0.66629246  0.37500000
   0.83370753  0.66629246  0.37500000
   0.33370753  0.16629246  0.87500000
   0.83370753  0.16629246  0.87500000
   0.33370753  0.66629246  0.87500000
   0.83370753  0.66629246  0.87500000
 
 position of ions in cartesian coordinates  (Angst):
   2.46034030  0.00043784  1.54916278
   4.93045658 -0.00052323  1.55846142
   1.22996963  2.13595390  1.55846142
   3.69640688  2.13499426  1.55846142
   2.46401933  0.00043641  7.79230711
   4.93045658 -0.00052323  7.79230711
   1.22996963  2.13595390  7.79230711
   3.69640688  2.13499426  7.79230711
  -1.23163172  2.13412154  4.67538426
   1.23480553  2.13316189  4.67538426
  -2.46568142  4.26963903  4.67538426
   0.00075583  4.26867939  4.67538426
  -1.23163172  2.13412154 10.90922995
   1.23480553  2.13316189 10.90922995
  -2.46568142  4.26963903 10.90922995
   0.00075583  4.26867939 10.90922995
  -0.00332350  1.42495737  1.55846142
   2.46311374  1.42399773  1.55846142
  -1.23737320  3.56047486  1.55846142
   1.22906405  3.55951522  1.55846142
  -0.00332350  1.42495737  7.79230711
   2.46311374  1.42399773  7.79230711
  -1.23737320  3.56047486  7.79230711
   1.22906405  3.55951522  7.79230711
   1.23571103  0.70960044  4.67538426
   3.70214828  0.70864080  4.67538426
   0.00166133  2.84511794  4.67538426
   2.46809858  2.84415829  4.67538426
   1.23571103  0.70960044 10.90922995
   3.70214828  0.70864080 10.90922995
   0.00166133  2.84511794 10.90922995
   2.46809858  2.84415829 10.90922995
 


--------------------------------------------------------------------------------------------------------


 k-point  1 :   0.0000 0.0000 0.0000  plane waves:   13513
 k-point  2 :   0.1667 0.0000 0.0000  plane waves:   13522
 k-point  3 :   0.3333 0.0000 0.0000  plane waves:   13488
 k-point  4 :   0.5000 0.0000 0.0000  plane waves:   13476
 k-point  5 :   0.0000 0.1667 0.0000  plane waves:   13522
 k-point  6 :   0.1667 0.1667 0.0000  plane waves:   13491
 k-point  7 :   0.3333 0.1667 0.0000  plane waves:   13481
 k-point  8 :   0.5000 0.1667 0.0000  plane waves:   13485
 k-point  9 :  -0.3333 0.1667 0.0000  plane waves:   13487
 k-point 10 :  -0.1667 0.1667 0.0000  plane waves:   13522
 k-point 11 :   0.0000 0.3333 0.0000  plane waves:   13488
 k-point 12 :   0.1667 0.3333 0.0000  plane waves:   13481
 k-point 13 :   0.3333 0.3333 0.0000  plane waves:   13488
 k-point 14 :   0.5000 0.3333 0.0000  plane waves:   13481
 k-point 15 :  -0.3333 0.3333 0.0000  plane waves:   13486
 k-point 16 :  -0.1667 0.3333 0.0000  plane waves:   13487
 k-point 17 :   0.0000 0.5000 0.0000  plane waves:   13476
 k-point 18 :   0.1667 0.5000 0.0000  plane waves:   13485
 k-point 19 :   0.3333 0.5000 0.0000  plane waves:   13481
 k-point 20 :   0.5000 0.5000 0.0000  plane waves:   13484
 k-point 21 :   0.0000 0.0000 0.2500  plane waves:   13506
 k-point 22 :   0.1667 0.0000 0.2500  plane waves:   13516
 k-point 23 :   0.3333 0.0000 0.2500  plane waves:   13488
 k-point 24 :   0.5000 0.0000 0.2500  plane waves:   13496
 k-point 25 :  -0.3333-0.0000 0.2500  plane waves:   13488
 k-point 26 :  -0.1667-0.0000 0.2500  plane waves:   13516
 k-point 27 :   0.0000 0.1667 0.2500  plane waves:   13516
 k-point 28 :   0.1667 0.1667 0.2500  plane waves:   13494
 k-point 29 :   0.3333 0.1667 0.2500  plane waves:   13475
 k-point 30 :   0.5000 0.1667 0.2500  plane waves:   13480
 k-point 31 :  -0.3333 0.1667 0.2500  plane waves:   13499
 k-point 32 :  -0.1667 0.1667 0.2500  plane waves:   13515
 k-point 33 :   0.0000 0.3333 0.2500  plane waves:   13488
 k-point 34 :   0.1667 0.3333 0.2500  plane waves:   13475
 k-point 35 :   0.3333 0.3333 0.2500  plane waves:   13462
 k-point 36 :   0.5000 0.3333 0.2500  plane waves:   13481
 k-point 37 :  -0.3333 0.3333 0.2500  plane waves:   13487
 k-point 38 :  -0.1667 0.3333 0.2500  plane waves:   13499
 k-point 39 :   0.0000 0.5000 0.2500  plane waves:   13496
 k-point 40 :   0.1667 0.5000 0.2500  plane waves:   13480
 k-point 41 :   0.3333 0.5000 0.2500  plane waves:   13481
 k-point 42 :   0.5000 0.5000 0.2500  plane waves:   13496
 k-point 43 :  -0.3333 0.5000 0.2500  plane waves:   13481
 k-point 44 :  -0.1667 0.5000 0.2500  plane waves:   13480
 k-point 45 :  -0.0000-0.3333 0.2500  plane waves:   13488
 k-point 46 :   0.1667-0.3333 0.2500  plane waves:   13499
 k-point 47 :   0.3333-0.3333 0.2500  plane waves:   13487
 k-point 48 :   0.5000-0.3333 0.2500  plane waves:   13481
 k-point 49 :  -0.3333-0.3333 0.2500  plane waves:   13462
 k-point 50 :  -0.1667-0.3333 0.2500  plane waves:   13475
 k-point 51 :  -0.0000-0.1667 0.2500  plane waves:   13516
 k-point 52 :   0.1667-0.1667 0.2500  plane waves:   13515
 k-point 53 :   0.3333-0.1667 0.2500  plane waves:   13499
 k-point 54 :   0.5000-0.1667 0.2500  plane waves:   13480
 k-point 55 :  -0.3333-0.1667 0.2500  plane waves:   13475
 k-point 56 :  -0.1667-0.1667 0.2500  plane waves:   13494
 k-point 57 :   0.0000 0.0000 0.5000  plane waves:   13482
 k-point 58 :   0.1667 0.0000 0.5000  plane waves:   13538
 k-point 59 :   0.3333 0.0000 0.5000  plane waves:   13486
 k-point 60 :   0.5000 0.0000 0.5000  plane waves:   13500
 k-point 61 :   0.0000 0.1667 0.5000  plane waves:   13538
 k-point 62 :   0.1667 0.1667 0.5000  plane waves:   13520
 k-point 63 :   0.3333 0.1667 0.5000  plane waves:   13468
 k-point 64 :   0.5000 0.1667 0.5000  plane waves:   13476
 k-point 65 :  -0.3333 0.1667 0.5000  plane waves:   13518
 k-point 66 :  -0.1667 0.1667 0.5000  plane waves:   13540
 k-point 67 :   0.0000 0.3333 0.5000  plane waves:   13486
 k-point 68 :   0.1667 0.3333 0.5000  plane waves:   13468
 k-point 69 :   0.3333 0.3333 0.5000  plane waves:   13500
 k-point 70 :   0.5000 0.3333 0.5000  plane waves:   13470
 k-point 71 :  -0.3333 0.3333 0.5000  plane waves:   13486
 k-point 72 :  -0.1667 0.3333 0.5000  plane waves:   13518
 k-point 73 :   0.0000 0.5000 0.5000  plane waves:   13500
 k-point 74 :   0.1667 0.5000 0.5000  plane waves:   13476
 k-point 75 :   0.3333 0.5000 0.5000  plane waves:   13470
 k-point 76 :   0.5000 0.5000 0.5000  plane waves:   13500

 maximum and minimum number of plane-waves per node :     13540    13462

 maximum number of plane-waves:     13540
 maximum index in each direction: 
   IXMAX=   11   IYMAX=   11   IZMAX=   28
   IXMIN=  -11   IYMIN=  -11   IZMIN=  -29

 NGX is ok and might be reduce to  46
 NGY is ok and might be reduce to  46
 NGZ is ok and might be reduce to 116

 serial   3D FFT for wavefunctions
 parallel 3D FFT for charge:
    minimum data exchange during FFTs selected (reduces bandwidth)


 total amount of memory used by VASP on root node   380300. kBytes
========================================================================

   base      :      30000. kBytes
   nonl-proj :      72801. kBytes
   fftplans  :      13581. kBytes
   grid      :      28889. kBytes
   one-center:         98. kBytes
   wavefun   :     234931. kBytes
 
     INWAV:  cpu time    0.00: real time    0.00
 Broyden mixing: mesh for mixing (old mesh)
   NGX = 23   NGY = 23   NGZ = 57
  (NGX  = 96   NGY  = 96   NGZ  =240)
  gives a total of  30153 points

 initial charge density was supplied:
 charge density of overlapping atoms calculated
 number of electron     128.0000000 magnetization 
 keeping initial charge density in first step


--------------------------------------------------------------------------------------------------------


 Maximum index for augmentation-charges         2043 (set IRDMAX)


--------------------------------------------------------------------------------------------------------


 First call to EWALD:  gamma=   0.277
 Maximum number of real-space cells 4x 4x 2
 Maximum number of reciprocal cells 2x 2x 5

 FEWALD executed in parallel
    FEWALD:  cpu time    0.01: real time    0.02


----------------------------------------- Iteration    1(   1)  ---------------------------------------


    POTLOK:  cpu time    1.13: real time    2.26
    SETDIJ:  cpu time    0.03: real time    0.05
     EDDAV:  cpu time  346.29: real time  692.95
 BZINTS: Fermi energy: 18.009275;128.000000 electrons
         Band energy: 245.469805;  BLOECHL correction: -0.127171
       DOS:  cpu time    0.08: real time    0.17
    --------------------------------------------
      LOOP:  cpu time  347.53: real time  695.45

 eigenvalue-minimisations  : 12768
 total energy-change (2. order) : 0.6741452E+03  (-0.8525409E+04)
 number of electron     128.0000000 magnetization 
 augmentation part      128.0000000 magnetization 

 Free energy of the ion-electron system (eV)
  ---------------------------------------------------
  alpha Z        PSCENC =       317.70955013
  Ewald energy   TEWEN  =     -4034.92260140
  -Hartree energ DENC   =      -970.56164017
  -exchange      EXHF   =         0.00000000
  -V(xc)+E(xc)   XCENC  =       444.32391893
  PAW double counting   =      1210.60617908    -1247.42152856
  entropy T*S    EENTRO =         0.00000000
  eigenvalues    EBANDS =       245.46980486
  atomic energy  EATOM  =      4708.94155045
  ---------------------------------------------------
  free energy    TOTEN  =       674.14523331 eV

  energy without entropy =      674.14523331  energy(sigma->0) =      674.14523331


--------------------------------------------------------------------------------------------------------




----------------------------------------- Iteration    1(   2)  ---------------------------------------


     EDDAV:  cpu time  398.93: real time  798.25
 BZINTS: Fermi energy:  4.713324;128.000000 electrons
         Band energy:-686.106069;  BLOECHL correction: -0.003025
       DOS:  cpu time    0.08: real time    0.15
    --------------------------------------------
      LOOP:  cpu time  399.02: real time  798.43

 eigenvalue-minimisations  : 15744
 total energy-change (2. order) :-0.9315759E+03  (-0.8957954E+03)
 number of electron     128.0000000 magnetization 
 augmentation part      128.0000000 magnetization 

 Free energy of the ion-electron system (eV)
  ---------------------------------------------------
  alpha Z        PSCENC =       317.70955013
  Ewald energy   TEWEN  =     -4034.92260140
  -Hartree energ DENC   =      -970.56164017
  -exchange      EXHF   =         0.00000000
  -V(xc)+E(xc)   XCENC  =       444.32391893
  PAW double counting   =      1210.60617908    -1247.42152856
  entropy T*S    EENTRO =         0.00000000
  eigenvalues    EBANDS =      -686.10606938
  atomic energy  EATOM  =      4708.94155045
  ---------------------------------------------------
  free energy    TOTEN  =      -257.43064093 eV

  energy without entropy =     -257.43064093  energy(sigma->0) =     -257.43064093


--------------------------------------------------------------------------------------------------------




----------------------------------------- Iteration    1(   3)  ---------------------------------------


     EDDAV:  cpu time  398.45: real time  797.28
 BZINTS: Fermi energy:  4.015790;128.000000 electrons
         Band energy:-740.180401;  BLOECHL correction: -0.000160
       DOS:  cpu time    0.07: real time    0.15
    --------------------------------------------
      LOOP:  cpu time  398.53: real time  797.46

 eigenvalue-minimisations  : 15564
 total energy-change (2. order) :-0.5407433E+02  (-0.5345874E+02)
 number of electron     128.0000000 magnetization 
 augmentation part      128.0000000 magnetization 

 Free energy of the ion-electron system (eV)
  ---------------------------------------------------
  alpha Z        PSCENC =       317.70955013
  Ewald energy   TEWEN  =     -4034.92260140
  -Hartree energ DENC   =      -970.56164017
  -exchange      EXHF   =         0.00000000
  -V(xc)+E(xc)   XCENC  =       444.32391893
  PAW double counting   =      1210.60617908    -1247.42152856
  entropy T*S    EENTRO =         0.00000000
  eigenvalues    EBANDS =      -740.18040104
  atomic energy  EATOM  =      4708.94155045
  ---------------------------------------------------
  free energy    TOTEN  =      -311.50497259 eV

  energy without entropy =     -311.50497259  energy(sigma->0) =     -311.50497259


--------------------------------------------------------------------------------------------------------




----------------------------------------- Iteration    1(   4)  ---------------------------------------


     EDDAV:  cpu time  401.61: real time  803.62
 BZINTS: Fermi energy:  4.000477;128.000000 electrons
         Band energy:-741.203997;  BLOECHL correction: -0.000000
       DOS:  cpu time    0.05: real time    0.11
    --------------------------------------------
      LOOP:  cpu time  401.68: real time  803.78

 eigenvalue-minimisations  : 15672
 total energy-change (2. order) :-0.1023596E+01  (-0.1021582E+01)
 number of electron     128.0000000 magnetization 
 augmentation part      128.0000000 magnetization 

 Free energy of the ion-electron system (eV)
  ---------------------------------------------------
  alpha Z        PSCENC =       317.70955013
  Ewald energy   TEWEN  =     -4034.92260140
  -Hartree energ DENC   =      -970.56164017
  -exchange      EXHF   =         0.00000000
  -V(xc)+E(xc)   XCENC  =       444.32391893
  PAW double counting   =      1210.60617908    -1247.42152856
  entropy T*S    EENTRO =         0.00000000
  eigenvalues    EBANDS =      -741.20399737
  atomic energy  EATOM  =      4708.94155045
  ---------------------------------------------------
  free energy    TOTEN  =      -312.52856892 eV

  energy without entropy =     -312.52856892  energy(sigma->0) =     -312.52856892


--------------------------------------------------------------------------------------------------------




----------------------------------------- Iteration    1(   5)  ---------------------------------------


     EDDAV:  cpu time  405.74: real time  810.66
 BZINTS: Fermi energy:  4.000456;128.000000 electrons
         Band energy:-741.233994;  BLOECHL correction: -0.000000
       DOS:  cpu time    0.05: real time    0.11
    CHARGE:  cpu time    5.74: real time   11.47
    MIXING:  cpu time    0.08: real time    0.17
    --------------------------------------------
      LOOP:  cpu time  411.62: real time  822.43

 eigenvalue-minimisations  : 15888
 total energy-change (2. order) :-0.2999657E-01  (-0.2998421E-01)
 number of electron     127.9999990 magnetization 
 augmentation part        3.3857916 magnetization 

 Broyden mixing:
  rms(total) = 0.22067E+01    rms(broyden)= 0.22067E+01
  rms(prec ) = 0.26549E+01
  weight for this iteration     100.00

 Free energy of the ion-electron system (eV)
  ---------------------------------------------------
  alpha Z        PSCENC =       317.70955013
  Ewald energy   TEWEN  =     -4034.92260140
  -Hartree energ DENC   =      -970.56164017
  -exchange      EXHF   =         0.00000000
  -V(xc)+E(xc)   XCENC  =       444.32391893
  PAW double counting   =      1210.60617908    -1247.42152856
  entropy T*S    EENTRO =         0.00000000
  eigenvalues    EBANDS =      -741.23399393
  atomic energy  EATOM  =      4708.94155045
  ---------------------------------------------------
  free energy    TOTEN  =      -312.55856548 eV

  energy without entropy =     -312.55856548  energy(sigma->0) =     -312.55856548


--------------------------------------------------------------------------------------------------------




----------------------------------------- Iteration    1(   6)  ---------------------------------------


    POTLOK:  cpu time    1.18: real time    2.36
    SETDIJ:  cpu time    0.06: real time    0.12
     EDDAV:  cpu time  381.01: real time  762.38
 BZINTS: Fermi energy:  4.682228;128.000000 electrons
         Band energy:-610.733135;  BLOECHL correction:  0.000000
       DOS:  cpu time    0.04: real time    0.09
    CHARGE:  cpu time    5.91: real time   11.81
    MIXING:  cpu time    0.11: real time    0.23
    --------------------------------------------
      LOOP:  cpu time  388.31: real time  777.02

 eigenvalue-minimisations  : 14592
 total energy-change (2. order) : 0.1405601E+02  (-0.1447677E+01)
 number of electron     127.9999990 magnetization 
 augmentation part        3.2327332 magnetization 

 Broyden mixing:
  rms(total) = 0.11570E+01    rms(broyden)= 0.11570E+01
  rms(prec ) = 0.13797E+01
  weight for this iteration     100.00

 eigenvalues of (default mixing * dielectric matrix)
  average eigenvalue GAMMA=   2.0365
  2.0365

 Free energy of the ion-electron system (eV)
  ---------------------------------------------------
  alpha Z        PSCENC =       317.70955013
  Ewald energy   TEWEN  =     -4034.92260140
  -Hartree energ DENC   =     -1092.34803894
  -exchange      EXHF   =         0.00000000
  -V(xc)+E(xc)   XCENC  =       452.53317673
  PAW double counting   =      1640.78172853    -1680.46478798
  entropy T*S    EENTRO =         0.00000000
  eigenvalues    EBANDS =      -610.73313504
  atomic energy  EATOM  =      4708.94155045
  ---------------------------------------------------
  free energy    TOTEN  =      -298.50255751 eV

  energy without entropy =     -298.50255751  energy(sigma->0) =     -298.50255751


--------------------------------------------------------------------------------------------------------




----------------------------------------- Iteration    1(   7)  ---------------------------------------


    POTLOK:  cpu time    1.29: real time    2.57
    SETDIJ:  cpu time    0.07: real time    0.14
     EDDAV:  cpu time  381.95: real time  764.27
 BZINTS: Fermi energy:  5.334384;128.000000 electrons
         Band energy:-478.838668;  BLOECHL correction:  0.000000
       DOS:  cpu time    0.03: real time    0.06
    CHARGE:  cpu time    5.60: real time   11.21
    MIXING:  cpu time    0.08: real time    0.16
    --------------------------------------------
      LOOP:  cpu time  389.02: real time  778.43

 eigenvalue-minimisations  : 14568
 total energy-change (2. order) : 0.4391422E+01  (-0.1484542E+01)
 number of electron     127.9999990 magnetization 
 augmentation part        3.0709832 magnetization 

 Broyden mixing:
  rms(total) = 0.18839E+00    rms(broyden)= 0.18839E+00
  rms(prec ) = 0.20391E+00
  weight for this iteration     100.00

 eigenvalues of (default mixing * dielectric matrix)
  average eigenvalue GAMMA=   2.1460
  2.0833  2.2086

 Free energy of the ion-electron system (eV)
  ---------------------------------------------------
  alpha Z        PSCENC =       317.70955013
  Ewald energy   TEWEN  =     -4034.92260140
  -Hartree energ DENC   =     -1226.80565783
  -exchange      EXHF   =         0.00000000
  -V(xc)+E(xc)   XCENC  =       461.81899939
  PAW double counting   =      2178.51459010    -2220.52889830
  entropy T*S    EENTRO =         0.00000000
  eigenvalues    EBANDS =      -478.83866798
  atomic energy  EATOM  =      4708.94155045
  ---------------------------------------------------
  free energy    TOTEN  =      -294.11113544 eV

  energy without entropy =     -294.11113544  energy(sigma->0) =     -294.11113544


--------------------------------------------------------------------------------------------------------




----------------------------------------- Iteration    1(   8)  ---------------------------------------


    POTLOK:  cpu time    1.08: real time    2.14
    SETDIJ:  cpu time    0.04: real time    0.08
     EDDAV:  cpu time  384.67: real time  769.72
 BZINTS: Fermi energy:  5.319995;128.000000 electrons
         Band energy:-482.051086;  BLOECHL correction:  0.000000
       DOS:  cpu time    0.04: real time    0.09
    CHARGE:  cpu time    6.03: real time   12.07
    MIXING:  cpu time    0.10: real time    0.20
    --------------------------------------------
      LOOP:  cpu time  391.96: real time  784.43

 eigenvalue-minimisations  : 14400
 total energy-change (2. order) :-0.4960544E-01  (-0.3877710E-01)
 number of electron     127.9999990 magnetization 
 augmentation part        3.0659645 magnetization 

 Broyden mixing:
  rms(total) = 0.38263E-01    rms(broyden)= 0.38262E-01
  rms(prec ) = 0.56313E-01
  weight for this iteration     100.00

 eigenvalues of (default mixing * dielectric matrix)
  average eigenvalue GAMMA=   1.6984
  2.4136  1.9952  0.6865

 Free energy of the ion-electron system (eV)
  ---------------------------------------------------
  alpha Z        PSCENC =       317.70955013
  Ewald energy   TEWEN  =     -4034.92260140
  -Hartree energ DENC   =     -1224.23030296
  -exchange      EXHF   =         0.00000000
  -V(xc)+E(xc)   XCENC  =       461.68672789
  PAW double counting   =      2213.10439793    -2254.39897712
  entropy T*S    EENTRO =         0.00000000
  eigenvalues    EBANDS =      -482.05108580
  atomic energy  EATOM  =      4708.94155045
  ---------------------------------------------------
  free energy    TOTEN  =      -294.16074088 eV

  energy without entropy =     -294.16074088  energy(sigma->0) =     -294.16074088


--------------------------------------------------------------------------------------------------------




----------------------------------------- Iteration    1(   9)  ---------------------------------------


    POTLOK:  cpu time    1.20: real time    2.39
    SETDIJ:  cpu time    0.06: real time    0.12
     EDDAV:  cpu time  470.33: real time  941.13
 BZINTS: Fermi energy:  5.321927;128.000000 electrons
         Band energy:-480.941733;  BLOECHL correction:  0.000000
       DOS:  cpu time    0.04: real time    0.07
    CHARGE:  cpu time    5.62: real time   11.23
    MIXING:  cpu time    0.12: real time    0.24
    --------------------------------------------
      LOOP:  cpu time  477.38: real time  955.21

 eigenvalue-minimisations  : 15432
 total energy-change (2. order) :-0.3215012E-03  (-0.3206854E-02)
 number of electron     127.9999990 magnetization 
 augmentation part        3.0633529 magnetization 

 Broyden mixing:
  rms(total) = 0.17804E-01    rms(broyden)= 0.17803E-01
  rms(prec ) = 0.26830E-01
  weight for this iteration     100.00

 eigenvalues of (default mixing * dielectric matrix)
  average eigenvalue GAMMA=   1.4523
  2.4468  1.9866  0.6879  0.6879

 Free energy of the ion-electron system (eV)
  ---------------------------------------------------
  alpha Z        PSCENC =       317.70955013
  Ewald energy   TEWEN  =     -4034.92260140
  -Hartree energ DENC   =     -1225.49156973
  -exchange      EXHF   =         0.00000000
  -V(xc)+E(xc)   XCENC  =       461.78548783
  PAW double counting   =      2221.76276256    -2263.00450946
  entropy T*S    EENTRO =         0.00000000
  eigenvalues    EBANDS =      -480.94173275
  atomic energy  EATOM  =      4708.94155045
  ---------------------------------------------------
  free energy    TOTEN  =      -294.16106238 eV

  energy without entropy =     -294.16106238  energy(sigma->0) =     -294.16106238


--------------------------------------------------------------------------------------------------------




----------------------------------------- Iteration    1(  10)  ---------------------------------------


    POTLOK:  cpu time    1.28: real time    2.55
    SETDIJ:  cpu time    0.09: real time    0.20
     EDDAV:  cpu time  473.09: real time  946.64
 BZINTS: Fermi energy:  5.322810;128.000000 electrons
         Band energy:-480.559665;  BLOECHL correction:  0.000000
       DOS:  cpu time    0.04: real time    0.07
    CHARGE:  cpu time    5.72: real time   11.45
    MIXING:  cpu time    0.13: real time    0.25
    --------------------------------------------
      LOOP:  cpu time  480.36: real time  961.21

 eigenvalue-minimisations  : 15240
 total energy-change (2. order) : 0.3979818E-03  (-0.4559889E-03)
 number of electron     127.9999990 magnetization 
 augmentation part        3.0625550 magnetization 

 Broyden mixing:
  rms(total) = 0.11225E-01    rms(broyden)= 0.11224E-01
  rms(prec ) = 0.16722E-01
  weight for this iteration     100.00

 eigenvalues of (default mixing * dielectric matrix)
  average eigenvalue GAMMA=   1.4334
  2.5027  1.9655  1.3464  0.8464  0.5062

 Free energy of the ion-electron system (eV)
  ---------------------------------------------------
  alpha Z        PSCENC =       317.70955013
  Ewald energy   TEWEN  =     -4034.92260140
  -Hartree energ DENC   =     -1225.91009889
  -exchange      EXHF   =         0.00000000
  -V(xc)+E(xc)   XCENC  =       461.81783543
  PAW double counting   =      2223.26423953    -2264.50147485
  entropy T*S    EENTRO =         0.00000000
  eigenvalues    EBANDS =      -480.55966480
  atomic energy  EATOM  =      4708.94155045
  ---------------------------------------------------
  free energy    TOTEN  =      -294.16066440 eV

  energy without entropy =     -294.16066440  energy(sigma->0) =     -294.16066440


--------------------------------------------------------------------------------------------------------




----------------------------------------- Iteration    1(  11)  ---------------------------------------


    POTLOK:  cpu time    1.34: real time    2.68
    SETDIJ:  cpu time    0.08: real time    0.15
     EDDAV:  cpu time  519.56: real time 1039.64
 BZINTS: Fermi energy:  5.325395;128.000000 electrons
         Band energy:-479.917056;  BLOECHL correction:  0.000000
       DOS:  cpu time    0.05: real time    0.09
    CHARGE:  cpu time    5.79: real time   11.58
    MIXING:  cpu time    0.14: real time    0.28
    --------------------------------------------
      LOOP:  cpu time  526.96: real time 1054.45

 eigenvalue-minimisations  : 18144
 total energy-change (2. order) :-0.9897484E-03  (-0.1147839E-02)
 number of electron     127.9999990 magnetization 
 augmentation part        3.0620577 magnetization 

 Broyden mixing:
  rms(total) = 0.11723E-01    rms(broyden)= 0.11722E-01
  rms(prec ) = 0.20219E-01
  weight for this iteration     100.00

 eigenvalues of (default mixing * dielectric matrix)
  average eigenvalue GAMMA=   1.3719
  2.6253  1.8366  1.8366  0.7491  0.7491  0.4348

 Free energy of the ion-electron system (eV)
  ---------------------------------------------------
  alpha Z        PSCENC =       317.70955013
  Ewald energy   TEWEN  =     -4034.92260140
  -Hartree energ DENC   =     -1226.61024583
  -exchange      EXHF   =         0.00000000
  -V(xc)+E(xc)   XCENC  =       461.87223847
  PAW double counting   =      2224.87442356    -2266.10951360
  entropy T*S    EENTRO =         0.00000000
  eigenvalues    EBANDS =      -479.91705592
  atomic energy  EATOM  =      4708.94155045
  ---------------------------------------------------
  free energy    TOTEN  =      -294.16165415 eV

  energy without entropy =     -294.16165415  energy(sigma->0) =     -294.16165415


--------------------------------------------------------------------------------------------------------




----------------------------------------- Iteration    1(  12)  ---------------------------------------


    POTLOK:  cpu time    1.21: real time    2.41
    SETDIJ:  cpu time    0.09: real time    0.17
     EDDAV:  cpu time  474.69: real time  949.85
 BZINTS: Fermi energy:  5.325914;128.000000 electrons
         Band energy:-479.674474;  BLOECHL correction:  0.000000
       DOS:  cpu time    0.03: real time    0.05
    CHARGE:  cpu time    6.27: real time   12.56
    MIXING:  cpu time    0.06: real time    0.13
    --------------------------------------------
      LOOP:  cpu time  482.36: real time  965.21

 eigenvalue-minimisations  : 15828
 total energy-change (2. order) : 0.4538969E-03  (-0.2762086E-03)
 number of electron     127.9999990 magnetization 
 augmentation part        3.0618123 magnetization 

 Broyden mixing:
  rms(total) = 0.44301E-02    rms(broyden)= 0.44299E-02
  rms(prec ) = 0.56961E-02
  weight for this iteration     100.00

 eigenvalues of (default mixing * dielectric matrix)
  average eigenvalue GAMMA=   1.3756
  2.7059  2.2578  1.9643  0.8560  0.7001  0.7001  0.4449

 Free energy of the ion-electron system (eV)
  ---------------------------------------------------
  alpha Z        PSCENC =       317.70955013
  Ewald energy   TEWEN  =     -4034.92260140
  -Hartree energ DENC   =     -1226.87307487
  -exchange      EXHF   =         0.00000000
  -V(xc)+E(xc)   XCENC  =       461.89225159
  PAW double counting   =      2225.67296017    -2266.90736253
  entropy T*S    EENTRO =         0.00000000
  eigenvalues    EBANDS =      -479.67447379
  atomic energy  EATOM  =      4708.94155045
  ---------------------------------------------------
  free energy    TOTEN  =      -294.16120025 eV

  energy without entropy =     -294.16120025  energy(sigma->0) =     -294.16120025


--------------------------------------------------------------------------------------------------------




----------------------------------------- Iteration    1(  13)  ---------------------------------------


    POTLOK:  cpu time    1.28: real time    2.56
    SETDIJ:  cpu time    0.08: real time    0.17
     EDDAV:  cpu time  440.54: real time  880.69
 BZINTS: Fermi energy:  5.324989;128.000000 electrons
         Band energy:-479.593149;  BLOECHL correction:  0.000000
       DOS:  cpu time    0.03: real time    0.06
    CHARGE:  cpu time    5.66: real time   11.32
    MIXING:  cpu time    0.05: real time    0.09
    --------------------------------------------
      LOOP:  cpu time  447.65: real time  894.91

 eigenvalue-minimisations  : 14592
 total energy-change (2. order) :-0.1228254E-03  (-0.6816724E-04)
 number of electron     127.9999990 magnetization 
 augmentation part        3.0617230 magnetization 

 Broyden mixing:
  rms(total) = 0.45489E-02    rms(broyden)= 0.45487E-02
  rms(prec ) = 0.85779E-02
  weight for this iteration     100.00

 eigenvalues of (default mixing * dielectric matrix)
  average eigenvalue GAMMA=   1.3141
  2.8319  2.4998  1.9224  0.9836  0.7695  0.7695  0.4403  0.2961

 Free energy of the ion-electron system (eV)
  ---------------------------------------------------
  alpha Z        PSCENC =       317.70955013
  Ewald energy   TEWEN  =     -4034.92260140
  -Hartree energ DENC   =     -1226.96472672
  -exchange      EXHF   =         0.00000000
  -V(xc)+E(xc)   XCENC  =       461.90041142
  PAW double counting   =      2225.22833920    -2266.46069728
  entropy T*S    EENTRO =         0.00000000
  eigenvalues    EBANDS =      -479.59314888
  atomic energy  EATOM  =      4708.94155045
  ---------------------------------------------------
  free energy    TOTEN  =      -294.16132308 eV

  energy without entropy =     -294.16132308  energy(sigma->0) =     -294.16132308


--------------------------------------------------------------------------------------------------------




----------------------------------------- Iteration    1(  14)  ---------------------------------------


    POTLOK:  cpu time    1.28: real time    2.54
    SETDIJ:  cpu time    0.06: real time    0.14
     EDDAV:  cpu time  455.85: real time  911.39
 BZINTS: Fermi energy:  5.324234;128.000000 electrons
         Band energy:-479.584376;  BLOECHL correction: -0.000000
       DOS:  cpu time    0.03: real time    0.06
    CHARGE:  cpu time    5.84: real time   11.70
    MIXING:  cpu time    0.16: real time    0.31
    --------------------------------------------
      LOOP:  cpu time  463.21: real time  926.15

 eigenvalue-minimisations  : 15120
 total energy-change (2. order) :-0.5682901E-04  (-0.6175845E-04)
 number of electron     127.9999990 magnetization 
 augmentation part        3.0617447 magnetization 

 Broyden mixing:
  rms(total) = 0.50285E-02    rms(broyden)= 0.50284E-02
  rms(prec ) = 0.88379E-02
  weight for this iteration     100.00

 eigenvalues of (default mixing * dielectric matrix)
  average eigenvalue GAMMA=   1.2611
  2.8365  2.5007  1.8855  1.1136  0.8487  0.7266  0.7266  0.4461  0.2653

 Free energy of the ion-electron system (eV)
  ---------------------------------------------------
  alpha Z        PSCENC =       317.70955013
  Ewald energy   TEWEN  =     -4034.92260140
  -Hartree energ DENC   =     -1226.97770454
  -exchange      EXHF   =         0.00000000
  -V(xc)+E(xc)   XCENC  =       461.90240074
  PAW double counting   =      2224.67424218    -2265.90444107
  entropy T*S    EENTRO =         0.00000000
  eigenvalues    EBANDS =      -479.58437640
  atomic energy  EATOM  =      4708.94155045
  ---------------------------------------------------
  free energy    TOTEN  =      -294.16137991 eV

  energy without entropy =     -294.16137991  energy(sigma->0) =     -294.16137991


--------------------------------------------------------------------------------------------------------




----------------------------------------- Iteration    1(  15)  ---------------------------------------


    POTLOK:  cpu time    1.40: real time    2.79
    SETDIJ:  cpu time    0.09: real time    0.18
     EDDAV:  cpu time  578.06: real time 1156.71
 BZINTS: Fermi energy:  5.328837;128.000000 electrons
         Band energy:-479.599987;  BLOECHL correction:  0.000000
       DOS:  cpu time    0.04: real time    0.07
    CHARGE:  cpu time    5.95: real time   11.91
    MIXING:  cpu time    0.19: real time    0.39
    --------------------------------------------
      LOOP:  cpu time  585.73: real time 1172.08

 eigenvalue-minimisations  : 21756
 total energy-change (2. order) :-0.7010760E-05  (-0.1982919E-03)
 number of electron     127.9999990 magnetization 
 augmentation part        3.0617833 magnetization 

 Broyden mixing:
  rms(total) = 0.50259E-02    rms(broyden)= 0.50256E-02
  rms(prec ) = 0.88657E-02
  weight for this iteration     100.00

 eigenvalues of (default mixing * dielectric matrix)
  average eigenvalue GAMMA=   1.1424
  2.8326  2.5012  1.8869  1.1222  0.8502  0.7227  0.7227  0.4456  0.2641  0.0753

 Free energy of the ion-electron system (eV)
  ---------------------------------------------------
  alpha Z        PSCENC =       317.70955013
  Ewald energy   TEWEN  =     -4034.92260140
  -Hartree energ DENC   =     -1226.96207141
  -exchange      EXHF   =         0.00000000
  -V(xc)+E(xc)   XCENC  =       461.90114330
  PAW double counting   =      2224.60028637    -2265.82925689
  entropy T*S    EENTRO =         0.00000000
  eigenvalues    EBANDS =      -479.59998746
  atomic energy  EATOM  =      4708.94155045
  ---------------------------------------------------
  free energy    TOTEN  =      -294.16138692 eV

  energy without entropy =     -294.16138692  energy(sigma->0) =     -294.16138692


--------------------------------------------------------------------------------------------------------




----------------------------------------- Iteration    1(  16)  ---------------------------------------


    POTLOK:  cpu time    1.32: real time    2.63
    SETDIJ:  cpu time    0.09: real time    0.17
     EDDAV:  cpu time  454.24: real time  908.94
 BZINTS: Fermi energy:  5.327800;128.000000 electrons
         Band energy:-479.597914;  BLOECHL correction:  0.000000
       DOS:  cpu time    0.04: real time    0.07
    CHARGE:  cpu time    5.82: real time   11.63
    MIXING:  cpu time    0.21: real time    0.42
    --------------------------------------------
      LOOP:  cpu time  461.72: real time  923.89

 eigenvalue-minimisations  : 14508
 total energy-change (2. order) : 0.1337585E-04  (-0.3087818E-05)
 number of electron     127.9999990 magnetization 
 augmentation part        3.0618060 magnetization 

 Broyden mixing:
  rms(total) = 0.46329E-02    rms(broyden)= 0.46329E-02
  rms(prec ) = 0.81345E-02
  weight for this iteration     100.00

 eigenvalues of (default mixing * dielectric matrix)
  average eigenvalue GAMMA=   1.0928
  2.8360  2.4897  1.9095  1.1050  0.7683  0.6773  0.6773  0.4657  0.4129  0.4129
  0.2668

 Free energy of the ion-electron system (eV)
  ---------------------------------------------------
  alpha Z        PSCENC =       317.70955013
  Ewald energy   TEWEN  =     -4034.92260140
  -Hartree energ DENC   =     -1226.96418600
  -exchange      EXHF   =         0.00000000
  -V(xc)+E(xc)   XCENC  =       461.90128380
  PAW double counting   =      2224.60425201    -2265.83330842
  entropy T*S    EENTRO =         0.00000000
  eigenvalues    EBANDS =      -479.59791410
  atomic energy  EATOM  =      4708.94155045
  ---------------------------------------------------
  free energy    TOTEN  =      -294.16137354 eV

  energy without entropy =     -294.16137354  energy(sigma->0) =     -294.16137354


--------------------------------------------------------------------------------------------------------




----------------------------------------- Iteration    1(  17)  ---------------------------------------


    POTLOK:  cpu time    1.32: real time    2.63
    SETDIJ:  cpu time    0.11: real time    0.22
     EDDAV:  cpu time  578.78: real time 1158.15
 BZINTS: Fermi energy:  5.326616;128.000000 electrons
         Band energy:-479.575702;  BLOECHL correction:  0.000000
       DOS:  cpu time    0.03: real time    0.06
    CHARGE:  cpu time    5.62: real time   11.25
    MIXING:  cpu time    0.11: real time    0.22
    --------------------------------------------
      LOOP:  cpu time  585.99: real time 1172.58

 eigenvalue-minimisations  : 21084
 total energy-change (2. order) : 0.4419111E-04  (-0.1821390E-04)
 number of electron     127.9999990 magnetization 
 augmentation part        3.0617903 magnetization 

 Broyden mixing:
  rms(total) = 0.16135E-02    rms(broyden)= 0.16134E-02
  rms(prec ) = 0.28891E-02
  weight for this iteration     100.00

 eigenvalues of (default mixing * dielectric matrix)
  average eigenvalue GAMMA=   1.1065
  2.8567  2.4991  1.9185  1.2464  0.8483  0.8483  0.8302  0.6753  0.4435  0.4213
  0.4213  0.2690

 Free energy of the ion-electron system (eV)
  ---------------------------------------------------
  alpha Z        PSCENC =       317.70955013
  Ewald energy   TEWEN  =     -4034.92260140
  -Hartree energ DENC   =     -1226.98727810
  -exchange      EXHF   =         0.00000000
  -V(xc)+E(xc)   XCENC  =       461.90287786
  PAW double counting   =      2224.65047393    -2265.88020025
  entropy T*S    EENTRO =         0.00000000
  eigenvalues    EBANDS =      -479.57570196
  atomic energy  EATOM  =      4708.94155045
  ---------------------------------------------------
  free energy    TOTEN  =      -294.16132935 eV

  energy without entropy =     -294.16132935  energy(sigma->0) =     -294.16132935


--------------------------------------------------------------------------------------------------------




----------------------------------------- Iteration    1(  18)  ---------------------------------------


    POTLOK:  cpu time    1.21: real time    2.42
    SETDIJ:  cpu time    0.05: real time    0.10
     EDDAV:  cpu time  555.35: real time 1111.31
 BZINTS: Fermi energy:  5.325568;128.000000 electrons
         Band energy:-479.564144;  BLOECHL correction:  0.000000
       DOS:  cpu time    0.04: real time    0.08
    CHARGE:  cpu time    5.87: real time   11.73
    MIXING:  cpu time    0.05: real time    0.11
    --------------------------------------------
      LOOP:  cpu time  562.58: real time 1125.75

 eigenvalue-minimisations  : 19992
 total energy-change (2. order) :-0.9584026E-05  (-0.3213909E-04)
 number of electron     127.9999990 magnetization 
 augmentation part        3.0617793 magnetization 

 Broyden mixing:
  rms(total) = 0.26262E-02    rms(broyden)= 0.26260E-02
  rms(prec ) = 0.46313E-02
  weight for this iteration     100.00

 eigenvalues of (default mixing * dielectric matrix)
  average eigenvalue GAMMA=   1.0910
  2.8809  2.5278  1.8764  1.5518  0.8191  0.8191  0.7237  0.7237  0.5810  0.5810
  0.4646  0.3630  0.2712

 Free energy of the ion-electron system (eV)
  ---------------------------------------------------
  alpha Z        PSCENC =       317.70955013
  Ewald energy   TEWEN  =     -4034.92260140
  -Hartree energ DENC   =     -1226.99941858
  -exchange      EXHF   =         0.00000000
  -V(xc)+E(xc)   XCENC  =       461.90360922
  PAW double counting   =      2224.64038979    -2265.87027407
  entropy T*S    EENTRO =         0.00000000
  eigenvalues    EBANDS =      -479.56414447
  atomic energy  EATOM  =      4708.94155045
  ---------------------------------------------------
  free energy    TOTEN  =      -294.16133893 eV

  energy without entropy =     -294.16133893  energy(sigma->0) =     -294.16133893


--------------------------------------------------------------------------------------------------------




----------------------------------------- Iteration    1(  19)  ---------------------------------------


    POTLOK:  cpu time    1.19: real time    2.37
    SETDIJ:  cpu time    0.08: real time    0.17
     EDDAV:  cpu time  452.42: real time  905.28
 BZINTS: Fermi energy:  5.324973;128.000000 electrons
         Band energy:-479.568675;  BLOECHL correction:  0.000000
       DOS:  cpu time    0.03: real time    0.05
    CHARGE:  cpu time    5.90: real time   11.81
    MIXING:  cpu time    0.22: real time    0.44
    --------------------------------------------
      LOOP:  cpu time  459.85: real time  920.17

 eigenvalue-minimisations  : 14772
 total energy-change (2. order) : 0.1139553E-04  (-0.5117817E-05)
 number of electron     127.9999990 magnetization 
 augmentation part        3.0617810 magnetization 

 Broyden mixing:
  rms(total) = 0.11278E-02    rms(broyden)= 0.11278E-02
  rms(prec ) = 0.19434E-02
  weight for this iteration     100.00

 eigenvalues of (default mixing * dielectric matrix)
  average eigenvalue GAMMA=   1.1083
  2.9221  2.5703  2.0890  2.0188  0.9288  0.6024  0.6024  0.7244  0.7244  0.6540
  0.5198  0.5198  0.3687  0.2710

 Free energy of the ion-electron system (eV)
  ---------------------------------------------------
  alpha Z        PSCENC =       317.70955013
  Ewald energy   TEWEN  =     -4034.92260140
  -Hartree energ DENC   =     -1226.99474552
  -exchange      EXHF   =         0.00000000
  -V(xc)+E(xc)   XCENC  =       461.90323423
  PAW double counting   =      2224.61779740    -2265.84743789
  entropy T*S    EENTRO =         0.00000000
  eigenvalues    EBANDS =      -479.56867493
  atomic energy  EATOM  =      4708.94155045
  ---------------------------------------------------
  free energy    TOTEN  =      -294.16132754 eV

  energy without entropy =     -294.16132754  energy(sigma->0) =     -294.16132754


--------------------------------------------------------------------------------------------------------




----------------------------------------- Iteration    1(  20)  ---------------------------------------


    POTLOK:  cpu time    1.17: real time    2.34
    SETDIJ:  cpu time    0.03: real time    0.05
     EDDAV:  cpu time  561.08: real time 1122.72
 BZINTS: Fermi energy:  5.327451;128.000000 electrons
         Band energy:-479.567994;  BLOECHL correction:  0.000000
       DOS:  cpu time    0.04: real time    0.09
    CHARGE:  cpu time    5.69: real time   11.37
    MIXING:  cpu time    0.19: real time    0.39
    --------------------------------------------
      LOOP:  cpu time  568.22: real time 1137.00

 eigenvalue-minimisations  : 20400
 total energy-change (2. order) : 0.2314910E-05  (-0.3488861E-05)
 number of electron     127.9999990 magnetization 
 augmentation part        3.0617859 magnetization 

 Broyden mixing:
  rms(total) = 0.33993E-03    rms(broyden)= 0.33977E-03
  rms(prec ) = 0.59146E-03
  weight for this iteration     100.00

 eigenvalues of (default mixing * dielectric matrix)
  average eigenvalue GAMMA=   1.1215
  2.9691  2.5879  2.3523  1.9419  0.9567  0.8687  0.8687  0.5956  0.5956  0.6768
  0.6768  0.5422  0.5422  0.3776  0.2710

 Free energy of the ion-electron system (eV)
  ---------------------------------------------------
  alpha Z        PSCENC =       317.70955013
  Ewald energy   TEWEN  =     -4034.92260140
  -Hartree energ DENC   =     -1226.99552865
  -exchange      EXHF   =         0.00000000
  -V(xc)+E(xc)   XCENC  =       461.90318406
  PAW double counting   =      2224.60677299    -2265.83625887
  entropy T*S    EENTRO =         0.00000000
  eigenvalues    EBANDS =      -479.56799393
  atomic energy  EATOM  =      4708.94155045
  ---------------------------------------------------
  free energy    TOTEN  =      -294.16132522 eV

  energy without entropy =     -294.16132522  energy(sigma->0) =     -294.16132522


--------------------------------------------------------------------------------------------------------




----------------------------------------- Iteration    1(  21)  ---------------------------------------


    POTLOK:  cpu time    1.26: real time    2.52
    SETDIJ:  cpu time    0.06: real time    0.13
     EDDAV:  cpu time  448.73: real time  897.91
 BZINTS: Fermi energy:  5.327096;128.000000 electrons
         Band energy:-479.562730;  BLOECHL correction:  0.000000
       DOS:  cpu time    0.05: real time    0.09
    CHARGE:  cpu time    5.69: real time   11.38
    MIXING:  cpu time    0.23: real time    0.46
    --------------------------------------------
      LOOP:  cpu time  456.03: real time  912.52

 eigenvalue-minimisations  : 14532
 total energy-change (2. order) : 0.1821563E-06  (-0.3193771E-06)
 number of electron     127.9999990 magnetization 
 augmentation part        3.0617808 magnetization 

 Broyden mixing:
  rms(total) = 0.15472E-03    rms(broyden)= 0.15471E-03
  rms(prec ) = 0.27956E-03
  weight for this iteration     100.00

 eigenvalues of (default mixing * dielectric matrix)
  average eigenvalue GAMMA=   1.1230
  3.0236  2.5233  2.3732  1.9459  1.1017  0.9668  0.9668  0.8286  0.8286  0.5872
  0.5872  0.5455  0.5455  0.4975  0.3757  0.2710

 Free energy of the ion-electron system (eV)
  ---------------------------------------------------
  alpha Z        PSCENC =       317.70955013
  Ewald energy   TEWEN  =     -4034.92260140
  -Hartree energ DENC   =     -1227.00103492
  -exchange      EXHF   =         0.00000000
  -V(xc)+E(xc)   XCENC  =       461.90352953
[...]
     79      13.1688      0.00000
     80      13.1736      0.00000
     81      13.5808      0.00000
     82      13.5849      0.00000
     83      13.6440      0.00000
     84      13.6462      0.00000

 k-point    75 :       0.3333    0.5000    0.5000
  band No.  band energies     occupation 
      1     -13.1594      2.00000
      2     -13.1590      2.00000
      3     -12.8172      2.00000
      4     -12.8167      2.00000
      5     -12.1842      2.00000
      6     -12.1838      2.00000
      7     -11.8616      2.00000
      8     -11.8611      2.00000
      9     -11.2204      2.00000
     10     -11.2200      2.00000
     11     -10.9174      2.00000
     12     -10.9169      2.00000
     13      -8.5274      2.00000
     14      -8.5267      2.00000
     15      -8.2993      2.00000
     16      -8.2985      2.00000
     17      -6.6371      2.00000
     18      -6.6342      2.00000
     19      -6.4821      2.00000
     20      -6.4794      2.00000
     21      -4.3226      2.00000
     22      -4.3201      2.00000
     23      -4.1993      2.00000
     24      -4.1967      2.00000
     25      -4.1631      2.00000
     26      -4.1616      2.00000
     27      -4.0279      2.00000
     28      -4.0263      2.00000
     29      -3.1862      2.00000
     30      -3.1840      2.00000
     31      -3.0412      2.00000
     32      -3.0389      2.00000
     33      -2.1149      2.00000
     34      -2.1129      2.00000
     35      -2.0191      2.00000
     36      -2.0173      2.00000
     37      -1.7742      2.00000
     38      -1.7727      2.00000
     39      -1.0834      2.00000
     40      -1.0794      2.00000
     41      -0.9901      2.00000
     42      -0.9855      2.00000
     43      -0.6226      2.00000
     44      -0.6211      2.00000
     45      -0.5636      2.00000
     46      -0.5609      2.00000
     47      -0.4822      2.00000
     48      -0.4795      2.00000
     49       0.0900      2.00000
     50       0.0919      2.00000
     51       0.3281      2.00000
     52       0.3333      2.00000
     53       0.3907      2.00000
     54       0.3952      2.00000
     55       0.5001      2.00000
     56       0.5019      2.00000
     57       1.1429      2.00000
     58       1.1447      2.00000
     59       2.1521      2.00000
     60       2.1540      2.00000
     61       3.4470      2.00000
     62       3.4496      2.00000
     63       4.4913      2.00000
     64       4.4945      2.00000
     65       6.3991      0.00000
     66       6.4028      0.00000
     67       6.9647      0.00000
     68       6.9688      0.00000
     69       9.4316      0.00000
     70       9.4338      0.00000
     71      10.0935      0.00000
     72      10.0964      0.00000
     73      10.8942      0.00000
     74      10.8971      0.00000
     75      11.6436      0.00000
     76      11.6458      0.00000
     77      12.5817      0.00000
     78      12.5856      0.00000
     79      13.1667      0.00000
     80      13.1719      0.00000
     81      13.5861      0.00000
     82      13.5906      0.00000
     83      13.6439      0.00000
     84      13.6468      0.00000

 k-point    76 :       0.5000    0.5000    0.5000
  band No.  band energies     occupation 
      1     -12.8357      2.00000
      2     -12.8327      2.00000
      3     -12.8327      2.00000
      4     -12.8296      2.00000
      5     -12.4999      2.00000
      6     -12.4970      2.00000
      7     -12.4970      2.00000
      8     -12.4938      2.00000
      9      -9.9772      2.00000
     10      -9.9753      2.00000
     11      -9.9753      2.00000
     12      -9.9735      2.00000
     13      -9.7013      2.00000
     14      -9.6995      2.00000
     15      -9.6994      2.00000
     16      -9.6975      2.00000
     17      -5.1904      2.00000
     18      -5.1858      2.00000
     19      -5.1854      2.00000
     20      -5.1854      2.00000
     21      -5.0919      2.00000
     22      -5.0877      2.00000
     23      -5.0872      2.00000
     24      -5.0872      2.00000
     25      -3.5853      2.00000
     26      -3.5852      2.00000
     27      -3.5837      2.00000
     28      -3.5810      2.00000
     29      -3.5130      2.00000
     30      -3.5130      2.00000
     31      -3.5115      2.00000
     32      -3.5083      2.00000
     33      -2.0991      2.00000
     34      -2.0987      2.00000
     35      -2.0987      2.00000
     36      -2.0928      2.00000
     37      -1.9676      2.00000
     38      -1.9671      2.00000
     39      -1.9671      2.00000
     40      -1.9606      2.00000
     41      -1.3883      2.00000
     42      -1.3852      2.00000
     43      -1.3850      2.00000
     44      -1.3826      2.00000
     45       0.3278      2.00000
     46       0.3376      2.00000
     47       0.3376      2.00000
     48       0.3392      2.00000
     49       0.3977      2.00000
     50       0.4054      2.00000
     51       0.4055      2.00000
     52       0.4071      2.00000
     53       0.4429      2.00000
     54       0.4466      2.00000
     55       0.4468      2.00000
     56       0.4494      2.00000
     57       1.9147      2.00000
     58       1.9162      2.00000
     59       1.9163      2.00000
     60       1.9199      2.00000
     61       3.3806      2.00000
     62       3.3819      2.00000
     63       3.3823      2.00000
     64       3.3868      2.00000
     65       7.8265      0.00000
     66       7.8314      0.00000
     67       7.8317      0.00000
     68       7.8329      0.00000
     69       8.4619      0.00000
     70       8.4679      0.00000
     71       8.4684      0.00000
     72       8.4695      0.00000
     73      12.1684      0.00000
     74      12.1742      0.00000
     75      12.1760      0.00000
     76      12.1825      0.00000
     77      12.8523      0.00000
     78      12.8606      0.00000
     79      12.8635      0.00000
     80      12.8719      0.00000
     81      12.9729      0.00000
     82      12.9834      0.00000
     83      12.9852      0.00000
     84      12.9996      0.00000


--------------------------------------------------------------------------------------------------------


 soft charge-density along one line, spin component           1
         0         1         2         3         4         5         6         7         8         9
 total charge-density along one line
 
 pseudopotential strength for first ion, spin component:           1
  9.731   0.004  -0.000   0.000  -0.000   0.000  -0.000   0.000
  0.004  -0.002   0.000  -0.000  -0.000   0.000  -0.000   0.000
 -0.000   0.000  -3.909  -0.000  -0.000  -0.015  -0.000  -0.000
  0.000  -0.000  -0.000  -3.903   0.000  -0.000  -0.011   0.000
 -0.000  -0.000  -0.000   0.000  -3.909  -0.000   0.000  -0.015
  0.000   0.000  -0.015  -0.000  -0.000  -0.763  -0.000  -0.000
 -0.000  -0.000  -0.000  -0.011   0.000  -0.000  -0.763   0.000
  0.000   0.000  -0.000   0.000  -0.015  -0.000   0.000  -0.763
 total augmentation occupancy for first ion, spin component:           1
  1.470  -1.120   0.000  -0.000  -0.003   0.000   0.001  -0.001
 -1.120   1.058  -0.000  -0.006   0.003  -0.000  -0.002   0.001
  0.000  -0.000   1.222  -0.000   0.003   0.228   0.000   0.001
 -0.000  -0.006  -0.000   0.924  -0.000   0.000   0.104  -0.000
 -0.003   0.003   0.003  -0.000   1.222   0.001  -0.000   0.228
  0.000  -0.000   0.228   0.000   0.001   0.048   0.000   0.000
  0.001  -0.002   0.000   0.104  -0.000   0.000   0.013  -0.000
 -0.001   0.001   0.001  -0.000   0.228   0.000  -0.000   0.048


------------------------ aborting loop because EDIFF is reached ----------------------------------------


    CHARGE:  cpu time    6.10: real time   12.20
    FORLOC:  cpu time    0.08: real time    0.17
    FORNL :  cpu time   33.57: real time   67.17
    STRESS:  cpu time   61.58: real time  123.23
    FORHAR:  cpu time    0.35: real time    0.70
    MIXING:  cpu time    0.19: real time    0.38
    OFIELD:  cpu time    0.00: real time    0.00

 ---------------------------------------------------------------------------------------------

         DFTD3 V3.0 Rev 1        
 IVDW         = 12
 DF pbe       
 parameters
 VDW_S6       =    1.0000
 VDW_S8       =    0.7875
 VDW_A1       =    0.4289
 VDW_A2       =    4.4407
 k1-k3        =   16.0000    1.3333   -4.0000
 VDW_RADIUS   =   50.2022 A
 VDW_CNRADIUS =   21.1671 A
 Edisp (eV)   -5.45038

 E6    (eV) :    -3.8912
 E8    (eV) :    -1.5592
 % E8        : 28.61
    FORVDW:  cpu time    0.28: real time    0.57

  FORCE on cell =-STRESS in cart. coord.  units (eV):
  Direction    XX          YY          ZZ          XY          YZ          ZX
  --------------------------------------------------------------------------------------
  Alpha Z   317.70955   317.70955   317.70955
  Ewald     269.82464   269.32999 -4574.09798     0.37455     0.00062    -0.00982
  Hartree  1047.10068  1047.09185  -867.19061     0.10192     0.00025    -0.00235
  E(xc)    -468.36899  -468.37603  -484.40439    -0.00305     0.00004    -0.00011
  Local   -2965.90330 -2965.49105  3525.45144    -0.40144    -0.00018     0.00862
  n-local  -111.54017  -111.65201  -102.97520    -0.09096     0.00062    -0.00142
  augment   -12.37489   -12.37401   -11.34058    -0.00053    -0.00001     0.00005
  Kinetic  1923.13405  1923.89939  2209.38648     0.53228    -0.00789     0.01925
  Fock        0.00000     0.00000     0.00000     0.00000     0.00000     0.00000
  vdW        -0.60241    -0.59123    -6.14128     0.00926    -0.00000    -0.00002
  -------------------------------------------------------------------------------------
  Total      -1.02085    -0.45354     6.39743     0.52203    -0.00655     0.01419
  in kB      -6.22801    -2.76698    39.02965     3.18481    -0.03994     0.08660
  external pressure =       10.01 kB  Pullay stress =        0.00 kB


 VOLUME and BASIS-vectors are now :
 -----------------------------------------------------------------------------
  energy-cutoff  :      800.00
  volume of cell :      262.62
      direct lattice vectors                 reciprocal lattice vectors
     4.932874498 -0.001919286  0.000000000     0.202767147  0.117172881  0.000000000
    -2.468099399  4.271034986  0.000000000     0.000091118  0.234187941  0.000000000
     0.000000000  0.000000000 12.467691369     0.000000000  0.000000000  0.080207311

  length of vectors
     4.932874871  4.932874871 12.467691369     0.234187958  0.234187958  0.080207311


 FORCES acting on ions
    electron-ion (+dipol)            ewald-force                    non-local-force                 convergence-correction
 -----------------------------------------------------------------------------------------------
   -.915E+00 0.626E-01 0.147E+01   0.103E+01 -.580E-01 -.150E+01   0.964E-01 0.296E-02 0.164E+00   -.104E-05 -.769E-06 0.193E-03
   0.997E-01 0.650E-01 -.375E+00   -.126E+00 -.614E-01 0.357E+00   -.240E-01 0.284E-02 0.169E-01   0.461E-05 -.111E-05 0.194E-03
   -.856E-01 -.420E-01 -.375E+00   0.862E-01 0.613E-01 0.357E+00   -.126E-01 0.936E-02 0.169E-01   0.207E-05 -.289E-05 0.194E-03
   -.861E-01 0.173E+00 -.376E+00   0.865E-01 -.184E+00 0.358E+00   -.125E-01 -.390E-02 0.169E-01   0.128E-05 0.143E-06 0.194E-03
   -.113E+00 0.653E-01 0.103E+00   0.107E+00 -.615E-01 -.104E+00   -.486E-02 0.280E-02 -.629E-02   0.497E-05 0.967E-06 -.190E-03
   -.113E+00 0.653E-01 0.102E+00   0.106E+00 -.615E-01 -.102E+00   -.483E-02 0.280E-02 -.642E-02   0.745E-05 -.114E-05 -.190E-03
   -.113E+00 0.652E-01 0.102E+00   0.106E+00 -.614E-01 -.102E+00   -.485E-02 0.279E-02 -.642E-02   0.767E-05 -.287E-05 -.190E-03
   -.113E+00 0.654E-01 0.102E+00   0.106E+00 -.616E-01 -.102E+00   -.485E-02 0.281E-02 -.642E-02   0.471E-05 -.218E-05 -.190E-03
   0.113E+00 -.596E-01 0.842E-01   -.107E+00 0.554E-01 -.835E-01   0.470E-02 -.271E-02 0.653E-02   0.184E-05 -.139E-05 -.130E-03
   0.113E+00 -.712E-01 0.838E-01   -.107E+00 0.674E-01 -.834E-01   0.485E-02 -.294E-02 0.700E-02   0.186E-05 -.180E-05 -.130E-03
   0.123E+00 -.657E-01 0.839E-01   -.117E+00 0.615E-01 -.833E-01   0.499E-02 -.297E-02 0.676E-02   0.264E-05 -.139E-05 -.130E-03
   0.101E+00 -.656E-01 0.164E+00   -.946E-01 0.616E-01 -.165E+00   0.468E-02 -.287E-02 0.629E-02   0.163E-05 -.149E-05 -.130E-03
   0.114E+00 -.591E-01 0.834E-01   -.107E+00 0.552E-01 -.832E-01   0.503E-02 -.268E-02 0.692E-02   0.195E-05 -.735E-06 0.120E-03
   0.114E+00 -.715E-01 0.837E-01   -.107E+00 0.679E-01 -.832E-01   0.485E-02 -.292E-02 0.645E-02   0.187E-05 -.117E-05 0.120E-03
   0.124E+00 -.650E-01 0.836E-01   -.118E+00 0.615E-01 -.832E-01   0.515E-02 -.265E-02 0.669E-02   0.230E-05 -.175E-05 0.120E-03
   0.101E+00 -.650E-01 0.165E+00   -.938E-01 0.613E-01 -.165E+00   0.485E-02 -.276E-02 0.651E-02   0.176E-05 -.149E-05 0.120E-03
   0.193E+00 -.637E-01 -.313E+00   -.187E+00 0.611E-01 0.311E+00   0.292E-02 -.225E-02 -.102E-01   0.359E-06 0.400E-06 0.193E-03
   -.141E+00 -.568E-01 -.830E+00   0.143E+00 0.534E-01 0.862E+00   -.232E-01 -.193E-02 -.777E-01   -.267E-05 0.143E-05 0.194E-03
   0.457E+00 0.282E+00 -.834E+00   -.511E+00 -.317E+00 0.867E+00   -.160E-01 0.192E-02 -.779E-01   -.229E-05 0.169E-05 0.194E-03
   0.467E+00 -.413E+00 -.825E+00   -.521E+00 0.443E+00 0.857E+00   -.148E-01 -.697E-02 -.775E-01   -.674E-06 -.734E-07 0.194E-03
   0.110E+00 -.636E-01 0.102E+00   -.106E+00 0.609E-01 -.102E+00   0.395E-02 -.227E-02 0.142E-02   -.527E-05 -.453E-06 -.191E-03
   0.110E+00 -.636E-01 0.103E+00   -.105E+00 0.609E-01 -.103E+00   0.396E-02 -.228E-02 0.140E-02   -.737E-05 0.117E-05 -.191E-03
   0.110E+00 -.636E-01 0.103E+00   -.106E+00 0.609E-01 -.103E+00   0.396E-02 -.228E-02 0.140E-02   -.807E-05 0.305E-05 -.191E-03
   0.110E+00 -.637E-01 0.103E+00   -.106E+00 0.610E-01 -.103E+00   0.395E-02 -.227E-02 0.140E-02   -.460E-05 0.110E-05 -.191E-03
   -.138E+00 0.766E-01 0.997E-01   0.134E+00 -.738E-01 -.994E-01   -.403E-02 0.230E-02 -.228E-02   -.189E-05 0.138E-05 -.130E-03
   -.815E-01 0.833E-01 0.121E+00   0.763E-01 -.808E-01 -.121E+00   -.396E-02 0.245E-02 -.181E-02   -.281E-05 0.214E-05 -.130E-03
   -.115E+00 0.316E-01 0.110E+00   0.111E+00 -.280E-01 -.110E+00   -.412E-02 0.231E-02 -.206E-02   -.256E-05 0.190E-05 -.130E-03
   -.106E+00 0.640E-01 0.770E-01   0.101E+00 -.610E-01 -.767E-01   -.374E-02 0.236E-02 -.963E-03   -.156E-05 0.126E-05 -.130E-03
   -.815E-01 0.436E-01 0.122E+00   0.761E-01 -.405E-01 -.122E+00   -.396E-02 0.213E-02 -.187E-02   -.172E-05 0.968E-06 0.121E-03
   -.138E+00 0.509E-01 0.989E-01   0.134E+00 -.481E-01 -.988E-01   -.408E-02 0.227E-02 -.230E-02   -.287E-05 0.118E-05 0.121E-03
   -.116E+00 0.959E-01 0.110E+00   0.112E+00 -.942E-01 -.110E+00   -.414E-02 0.230E-02 -.204E-02   -.246E-05 0.199E-05 0.121E-03
   -.105E+00 0.634E-01 0.766E-01   0.100E+00 -.609E-01 -.765E-01   -.376E-02 0.223E-02 -.958E-03   -.187E-05 0.165E-05 0.122E-03
 -----------------------------------------------------------------------------------------------
   0.579E-04 0.142E-04 0.101E-01   0.418E-13 0.225E-14 -.720E-14   -.754E-04 -.143E-04 -.100E-01   -.753E-06 -.272E-06 -.498E-04
 
 
 POSITION                                       TOTAL-FORCE (eV/Angst)
 -----------------------------------------------------------------------------------
      2.46034      0.00044      1.54916         0.216115      0.007629      0.130695
      4.93046     -0.00052      1.55846        -0.052012      0.006490     -0.000629
      1.22997      2.13595      1.55846        -0.012379      0.029404     -0.000557
      3.69641      2.13499      1.55846        -0.012490     -0.016392     -0.000615
      2.46402      0.00044      7.79231        -0.011515      0.006673     -0.006927
      4.93046     -0.00052      7.79231        -0.011574      0.006673     -0.007035
      1.22997      2.13595      7.79231        -0.011547      0.006687     -0.007036
      3.69641      2.13499      7.79231        -0.011546      0.006655     -0.007036
     -1.23163      2.13412      4.67538         0.010999     -0.006926      0.007168
      1.23481      2.13316      4.67538         0.011407     -0.006816      0.007331
     -2.46568      4.26964      4.67538         0.011111     -0.007228      0.007246
      0.00076      4.26868      4.67538         0.011359     -0.006967      0.005712
     -1.23163      2.13412     10.90923         0.012041     -0.006660      0.007266
      1.23481      2.13316     10.90923         0.011615     -0.006566      0.007098
     -2.46568      4.26964     10.90923         0.011749     -0.006225      0.007188
      0.00076      4.26868     10.90923         0.011979     -0.006461      0.005888
     -0.00332      1.42496      1.55846         0.008510     -0.004904     -0.011713
      2.46311      1.42400      1.55846        -0.020792     -0.005394     -0.044807
     -1.23737      3.56047      1.55846        -0.069466     -0.032996     -0.044348
      1.22906      3.55952      1.55846        -0.068683      0.022677     -0.045174
     -0.00332      1.42496      7.79231         0.008721     -0.005014      0.001104
      2.46311      1.42400      7.79231         0.008717     -0.005014      0.001056
     -1.23737      3.56047      7.79231         0.008720     -0.005011      0.001056
      1.22906      3.55952      7.79231         0.008721     -0.005015      0.001054
      1.23571      0.70960      4.67538        -0.008059      0.005112     -0.002034
      3.70215      0.70864      4.67538        -0.009229      0.004917     -0.002127
      0.00166      2.84512      4.67538        -0.008471      0.006004     -0.002094
      2.46810      2.84416      4.67538        -0.008758      0.005353     -0.000712
      1.23571      0.70960     10.90923        -0.009502      0.005325     -0.002202
      3.70215      0.70864     10.90923        -0.008160      0.005117     -0.002035
      0.00166      2.84512     10.90923        -0.008650      0.004048     -0.002076
      2.46810      2.84416     10.90923        -0.008932      0.004826     -0.000707
 -----------------------------------------------------------------------------------
    total drift:                               -0.000018     -0.000000      0.000021


--------------------------------------------------------------------------------------------------------



  FREE ENERGIE OF THE ION-ELECTRON SYSTEM (eV)
  ---------------------------------------------------
  free  energy   TOTEN  =      -299.61170027 eV

  energy  without entropy=     -299.61170027  energy(sigma->0) =     -299.61170027
 


--------------------------------------------------------------------------------------------------------


    POTLOK:  cpu time    1.36: real time    2.73


--------------------------------------------------------------------------------------------------------


     LOOP+:  cpu time11378.82: real time22765.05
    4ORBIT:  cpu time    0.00: real time    0.00
 BZINTS: Fermi energy:  5.329348;128.000000 electrons
         Band energy:-479.561887;  BLOECHL correction:  0.000000

 total amount of memory used by VASP on root node   380300. kBytes
========================================================================

   base      :      30000. kBytes
   nonl-proj :      72801. kBytes
   fftplans  :      13581. kBytes
   grid      :      28889. kBytes
   one-center:         98. kBytes
   wavefun   :     234931. kBytes
 
  
  
 General timing and accounting informations for this job:
 ========================================================
  
                  Total CPU time used (sec):    11494.896
                            User time (sec):     5179.336
                          System time (sec):     6315.561
                         Elapsed time (sec):    22997.471
  
                   Maximum memory used (kb):      482956.
                   Average memory used (kb):           0.
  
                          Minor page faults:     43894335
                          Major page faults:            0
                 Voluntary context switches:         1028
