  12  12   0   0
  0.1128792E+02  0.4934086E-09  0.6545010E-09  0.4194480E-09  0.5000000E-15
  1.000000000000000E-004
  CAR 
 ethylene                                
      9.46748798    -17.91714594  301     -3.47175155      1.00000000
    -17.917  0.0000E+00  0.0000E+00
    -17.826  0.0000E+00  0.0000E+00
    -17.735  0.0000E+00  0.0000E+00
    -17.643  0.0000E+00  0.0000E+00
    -17.552  0.0000E+00  0.0000E+00
    -17.461  0.0000E+00  0.0000E+00
    -17.369  0.0000E+00  0.0000E+00
    -17.278  0.0000E+00  0.0000E+00
    -17.187  0.0000E+00  0.0000E+00
    -17.096  0.0000E+00  0.0000E+00
    -17.004  0.0000E+00  0.0000E+00
    -16.913  0.0000E+00  0.0000E+00
    -16.822  0.0000E+00  0.0000E+00
    -16.730  0.0000E+00  0.0000E+00
    -16.639  0.0000E+00  0.0000E+00
    -16.548  0.0000E+00  0.0000E+00
    -16.457  0.0000E+00  0.0000E+00
    -16.365  0.0000E+00  0.0000E+00
    -16.274  0.0000E+00  0.0000E+00
    -16.183  0.0000E+00  0.0000E+00
    -16.092  0.0000E+00  0.0000E+00
    -16.000  0.0000E+00  0.0000E+00
    -15.909  0.3909E-02  0.1238E-04
    -15.818  0.4133E-01  0.2083E-02
    -15.726  0.1495E+00  0.1015E-01
    -15.635  0.0000E+00  0.2000E-01
    -15.544  0.0000E+00  0.2000E-01
    -15.453  0.0000E+00  0.2000E-01
    -15.361  0.0000E+00  0.2000E-01
    -15.270  0.0000E+00  0.2000E-01
    -15.179  0.0000E+00  0.2000E-01
    -15.087  0.0000E+00  0.2000E-01
    -14.996  0.0000E+00  0.2000E-01
    -14.905  0.0000E+00  0.2000E-01
    -14.814  0.0000E+00  0.2000E-01
    -14.722  0.0000E+00  0.2000E-01
    -14.631  0.0000E+00  0.2000E-01
    -14.540  0.0000E+00  0.2000E-01
    -14.448  0.0000E+00  0.2000E-01
    -14.357  0.0000E+00  0.2000E-01
    -14.266  0.0000E+00  0.2000E-01
    -14.175  0.0000E+00  0.2000E-01
    -14.083  0.0000E+00  0.2000E-01
    -13.992  0.0000E+00  0.2000E-01
    -13.901  0.0000E+00  0.2000E-01
    -13.809  0.0000E+00  0.2000E-01
    -13.718  0.0000E+00  0.2000E-01
    -13.627  0.0000E+00  0.2000E-01
    -13.536  0.0000E+00  0.2000E-01
    -13.444  0.0000E+00  0.2000E-01
    -13.353  0.0000E+00  0.2000E-01
    -13.262  0.0000E+00  0.2000E-01
    -13.170  0.0000E+00  0.2000E-01
    -13.079  0.0000E+00  0.2000E-01
    -12.988  0.0000E+00  0.2000E-01
    -12.897  0.0000E+00  0.2000E-01
    -12.805  0.0000E+00  0.2000E-01
    -12.714  0.0000E+00  0.2000E-01
    -12.623  0.0000E+00  0.2000E-01
    -12.532  0.0000E+00  0.2000E-01
    -12.440  0.0000E+00  0.2000E-01
    -12.349  0.0000E+00  0.2000E-01
    -12.258  0.0000E+00  0.2000E-01
    -12.166  0.0000E+00  0.2000E-01
    -12.075  0.0000E+00  0.2000E-01
    -11.984  0.0000E+00  0.2000E-01
    -11.893  0.0000E+00  0.2000E-01
    -11.801  0.0000E+00  0.2000E-01
    -11.710  0.0000E+00  0.2000E-01
    -11.619  0.0000E+00  0.2000E-01
    -11.527  0.0000E+00  0.2000E-01
    -11.436  0.0000E+00  0.2000E-01
    -11.345  0.0000E+00  0.2000E-01
    -11.254  0.7298E-01  0.2218E-01
    -11.162  0.8428E-01  0.2900E-01
    -11.071  0.7668E-01  0.3816E-01
    -10.980  0.0000E+00  0.4000E-01
    -10.888  0.0000E+00  0.4000E-01
    -10.797  0.0000E+00  0.4000E-01
    -10.706  0.0000E+00  0.4000E-01
    -10.615  0.0000E+00  0.4000E-01
    -10.523  0.0000E+00  0.4000E-01
    -10.432  0.0000E+00  0.4000E-01
    -10.341  0.0000E+00  0.4000E-01
    -10.249  0.0000E+00  0.4000E-01
    -10.158  0.0000E+00  0.4000E-01
    -10.067  0.0000E+00  0.4000E-01
     -9.976  0.0000E+00  0.4000E-01
     -9.884  0.0000E+00  0.4000E-01
     -9.793  0.0000E+00  0.4000E-01
     -9.702  0.0000E+00  0.4000E-01
     -9.610  0.0000E+00  0.4000E-01
     -9.519  0.0000E+00  0.4000E-01
     -9.428  0.0000E+00  0.4000E-01
     -9.337  0.0000E+00  0.4000E-01
     -9.245  0.0000E+00  0.4000E-01
     -9.154  0.0000E+00  0.4000E-01
     -9.063  0.0000E+00  0.4000E-01
     -8.971  0.0000E+00  0.4000E-01
     -8.880  0.0000E+00  0.4000E-01
     -8.789  0.0000E+00  0.4000E-01
     -8.698  0.0000E+00  0.4000E-01
     -8.606  0.1041E-01  0.4005E-01
     -8.515  0.5825E-01  0.4419E-01
     -8.424  0.3812E-01  0.4844E-01
     -8.333  0.3638E-01  0.5185E-01
     -8.241  0.5964E-01  0.5576E-01
     -8.150  0.1524E-02  0.6000E-01
     -8.059  0.0000E+00  0.6000E-01
     -7.967  0.0000E+00  0.6000E-01
     -7.876  0.0000E+00  0.6000E-01
     -7.785  0.0000E+00  0.6000E-01
     -7.694  0.0000E+00  0.6000E-01
     -7.602  0.0000E+00  0.6000E-01
     -7.511  0.0000E+00  0.6000E-01
     -7.420  0.0000E+00  0.6000E-01
     -7.328  0.9884E-02  0.6046E-01
     -7.237  0.2198E-01  0.6186E-01
     -7.146  0.5556E-01  0.6503E-01
     -7.055  0.8001E-01  0.7393E-01
     -6.963  0.3130E-01  0.7842E-01
     -6.872  0.0000E+00  0.8000E-01
     -6.781  0.0000E+00  0.8000E-01
     -6.689  0.0000E+00  0.8000E-01
     -6.598  0.0000E+00  0.8000E-01
     -6.507  0.0000E+00  0.8000E-01
     -6.416  0.0000E+00  0.8000E-01
     -6.324  0.0000E+00  0.8000E-01
     -6.233  0.0000E+00  0.8000E-01
     -6.142  0.0000E+00  0.8000E-01
     -6.050  0.0000E+00  0.8000E-01
     -5.959  0.0000E+00  0.8000E-01
     -5.868  0.0000E+00  0.8000E-01
     -5.777  0.9453E-02  0.8027E-01
     -5.685  0.1552E-01  0.8142E-01
     -5.594  0.2288E-01  0.8314E-01
     -5.503  0.4100E-01  0.8587E-01
     -5.411  0.6211E-01  0.9134E-01
     -5.320  0.4284E-01  0.9622E-01
     -5.229  0.1748E-01  0.9867E-01
     -5.138  0.7669E-02  0.9979E-01
     -5.046  0.0000E+00  0.1000E+00
     -4.955  0.0000E+00  0.1000E+00
     -4.864  0.0000E+00  0.1000E+00
     -4.773  0.0000E+00  0.1000E+00
     -4.681  0.0000E+00  0.1000E+00
     -4.590  0.0000E+00  0.1000E+00
     -4.499  0.0000E+00  0.1000E+00
     -4.407  0.0000E+00  0.1000E+00
     -4.316  0.0000E+00  0.1000E+00
     -4.225  0.0000E+00  0.1000E+00
     -4.134  0.0000E+00  0.1000E+00
     -4.042  0.3576E-02  0.1000E+00
     -3.951  0.1161E-01  0.1007E+00
     -3.860  0.2580E-01  0.1023E+00
     -3.768  0.8594E-01  0.1068E+00
     -3.677  0.5377E-01  0.1153E+00
     -3.586  0.2401E-01  0.1185E+00
     -3.495  0.0000E+00  0.1200E+00
     -3.403  0.0000E+00  0.1200E+00
     -3.312  0.0000E+00  0.1200E+00
     -3.221  0.0000E+00  0.1200E+00
     -3.129  0.0000E+00  0.1200E+00
     -3.038  0.0000E+00  0.1200E+00
     -2.947  0.0000E+00  0.1200E+00
     -2.856  0.0000E+00  0.1200E+00
     -2.764  0.0000E+00  0.1200E+00
     -2.673  0.0000E+00  0.1200E+00
     -2.582  0.0000E+00  0.1200E+00
     -2.490  0.0000E+00  0.1200E+00
     -2.399  0.0000E+00  0.1200E+00
     -2.308  0.0000E+00  0.1200E+00
     -2.217  0.0000E+00  0.1200E+00
     -2.125  0.0000E+00  0.1200E+00
     -2.034  0.0000E+00  0.1200E+00
     -1.943  0.0000E+00  0.1200E+00
     -1.851  0.0000E+00  0.1200E+00
     -1.760  0.0000E+00  0.1200E+00
     -1.669  0.0000E+00  0.1200E+00
     -1.578  0.0000E+00  0.1200E+00
     -1.486  0.0000E+00  0.1200E+00
     -1.395  0.0000E+00  0.1200E+00
     -1.304  0.0000E+00  0.1200E+00
     -1.213  0.0000E+00  0.1200E+00
     -1.121  0.0000E+00  0.1200E+00
     -1.030  0.0000E+00  0.1200E+00
     -0.939  0.0000E+00  0.1200E+00
     -0.847  0.0000E+00  0.1200E+00
     -0.756  0.0000E+00  0.1200E+00
     -0.665  0.0000E+00  0.1200E+00
     -0.574  0.0000E+00  0.1200E+00
     -0.482  0.0000E+00  0.1200E+00
     -0.391  0.0000E+00  0.1200E+00
     -0.300  0.0000E+00  0.1200E+00
     -0.208  0.0000E+00  0.1200E+00
     -0.117  0.0000E+00  0.1200E+00
     -0.026  0.0000E+00  0.1200E+00
      0.065  0.0000E+00  0.1200E+00
      0.157  0.0000E+00  0.1200E+00
      0.248  0.0000E+00  0.1200E+00
      0.339  0.0000E+00  0.1200E+00
      0.431  0.0000E+00  0.1200E+00
      0.522  0.0000E+00  0.1200E+00
      0.613  0.0000E+00  0.1200E+00
      0.704  0.0000E+00  0.1200E+00
      0.796  0.0000E+00  0.1200E+00
      0.887  0.0000E+00  0.1200E+00
      0.978  0.0000E+00  0.1200E+00
      1.070  0.0000E+00  0.1200E+00
      1.161  0.3871E-02  0.1202E+00
      1.252  0.5637E-02  0.1206E+00
      1.343  0.7262E-02  0.1212E+00
      1.435  0.8845E-02  0.1219E+00
      1.526  0.1091E-01  0.1228E+00
      1.617  0.1383E-01  0.1240E+00
      1.709  0.1689E-01  0.1254E+00
      1.800  0.1788E-01  0.1270E+00
      1.891  0.1960E-01  0.1287E+00
      1.982  0.2187E-01  0.1306E+00
      2.074  0.2734E-01  0.1329E+00
      2.165  0.2859E-01  0.1354E+00
      2.256  0.2883E-01  0.1380E+00
      2.347  0.9794E-02  0.1396E+00
      2.439  0.0000E+00  0.1400E+00
      2.530  0.0000E+00  0.1400E+00
      2.621  0.0000E+00  0.1400E+00
      2.713  0.0000E+00  0.1400E+00
      2.804  0.0000E+00  0.1400E+00
      2.895  0.4137E-02  0.1402E+00
      2.986  0.4516E-02  0.1406E+00
      3.078  0.5152E-02  0.1410E+00
      3.169  0.5680E-02  0.1415E+00
      3.260  0.6230E-02  0.1421E+00
      3.352  0.6793E-02  0.1426E+00
      3.443  0.7503E-02  0.1433E+00
      3.534  0.8427E-02  0.1440E+00
      3.625  0.9099E-02  0.1448E+00
      3.717  0.9776E-02  0.1457E+00
      3.808  0.1095E-01  0.1466E+00
      3.899  0.1274E-01  0.1477E+00
      3.991  0.1512E-01  0.1490E+00
      4.082  0.1796E-01  0.1505E+00
      4.173  0.2092E-01  0.1522E+00
      4.264  0.2237E-01  0.1542E+00
      4.356  0.2088E-01  0.1562E+00
      4.447  0.1429E-01  0.1578E+00
      4.538  0.1119E-01  0.1589E+00
      4.630  0.9282E-02  0.1599E+00
      4.721  0.9981E-02  0.1607E+00
      4.812  0.1294E-01  0.1618E+00
      4.903  0.1638E-01  0.1631E+00
      4.995  0.1763E-01  0.1646E+00
      5.086  0.1920E-01  0.1663E+00
      5.177  0.1831E-01  0.1680E+00
      5.269  0.1949E-01  0.1697E+00
      5.360  0.1955E-01  0.1715E+00
      5.451  0.1939E-01  0.1732E+00
      5.542  0.1926E-01  0.1750E+00
      5.634  0.1548E-01  0.1766E+00
      5.725  0.1241E-01  0.1779E+00
      5.816  0.1161E-01  0.1789E+00
      5.907  0.8943E-02  0.1798E+00
      5.999  0.1185E-01  0.1807E+00
      6.090  0.1311E-01  0.1819E+00
      6.181  0.1462E-01  0.1832E+00
      6.273  0.1609E-01  0.1846E+00
      6.364  0.1658E-01  0.1861E+00
      6.455  0.1986E-01  0.1877E+00
      6.546  0.2192E-01  0.1897E+00
      6.638  0.2221E-01  0.1918E+00
      6.729  0.1918E-01  0.1937E+00
      6.820  0.1820E-01  0.1954E+00
      6.912  0.1413E-01  0.1969E+00
      7.003  0.9588E-02  0.1979E+00
      7.094  0.6426E-02  0.1987E+00
      7.185  0.5421E-02  0.1992E+00
      7.277  0.3726E-02  0.1996E+00
      7.368  0.2050E-02  0.1999E+00
      7.459  0.1355E-04  0.2000E+00
      7.551  0.0000E+00  0.2000E+00
      7.642  0.0000E+00  0.2000E+00
      7.733  0.0000E+00  0.2000E+00
      7.824  0.0000E+00  0.2000E+00
      7.916  0.0000E+00  0.2000E+00
      8.007  0.0000E+00  0.2000E+00
      8.098  0.0000E+00  0.2000E+00
      8.190  0.0000E+00  0.2000E+00
      8.281  0.0000E+00  0.2000E+00
      8.372  0.0000E+00  0.2000E+00
      8.463  0.0000E+00  0.2000E+00
      8.555  0.0000E+00  0.2000E+00
      8.646  0.0000E+00  0.2000E+00
      8.737  0.0000E+00  0.2000E+00
      8.829  0.0000E+00  0.2000E+00
      8.920  0.0000E+00  0.2000E+00
      9.011  0.0000E+00  0.2000E+00
      9.102  0.0000E+00  0.2000E+00
      9.194  0.0000E+00  0.2000E+00
      9.285  0.0000E+00  0.2000E+00
      9.376  0.0000E+00  0.2000E+00
      9.467  0.0000E+00  0.2000E+00
