   12   12  200    1
  0.1128792E+02  0.4934086E-09  0.6545010E-09  0.4194480E-09  0.5000000E-15
  1.000000000000000E-004
  CAR 
 ethylene                                
     24    350     20
 
  0.0000000E+00  0.0000000E+00  0.0000000E+00  0.8680556E-03
    1      -15.917146
    2      -15.692180
    3      -11.128024
    4      -11.117394
    5       -8.219509
    6       -8.162742
    7       -7.415861
    8       -7.088548
    9       -5.438550
   10       -5.080997
   11       -3.764193
   12       -3.511471
   13        1.073194
   14        2.321095
   15        2.827000
   16        4.279077
   17        5.277636
   18        6.451589
   19        6.696934
   20        6.828399
 
  0.8333333E-01  0.0000000E+00  0.0000000E+00  0.1736111E-02
    1      -15.911001
    2      -15.693323
    3      -11.139448
    4      -11.127541
    5       -8.220923
    6       -8.161420
    7       -7.396322
    8       -7.080064
    9       -5.440892
   10       -5.093915
   11       -3.762602
   12       -3.523445
   13        1.119379
   14        2.337408
   15        2.835773
   16        4.291548
   17        5.308211
   18        6.111538
   19        6.592901
   20        6.819880
 
  0.1666667E+00  0.0000000E+00  0.0000000E+00  0.1736111E-02
    1      -15.893337
    2      -15.697252
    3      -11.170085
    4      -11.155467
    5       -8.222464
    6       -8.158334
    7       -7.343289
    8       -7.058851
    9       -5.445519
   10       -5.130364
   11       -3.758461
   12       -3.556069
   13        1.251759
   14        2.373974
   15        2.874390
   16        4.327259
   17        5.394166
   18        5.576917
   19        6.310388
   20        6.666717
 
  0.2500000E+00  0.0000000E+00  0.0000000E+00  0.1736111E-02
    1      -15.866436
    2      -15.705280
    3      -11.210466
    4      -11.194285
    5       -8.219249
    6       -8.155848
    7       -7.270059
    8       -7.035784
    9       -5.446291
   10       -5.184241
   11       -3.753006
   12       -3.600917
   13        1.452483
   14        2.398422
   15        2.971169
   16        4.374929
   17        5.067781
   18        5.519113
   19        5.933659
   20        6.481091
 
  0.3333333E+00  0.0000000E+00  0.0000000E+00  0.1736111E-02
    1      -15.833705
    2      -15.718990
    3      -11.248697
    4      -11.234360
    5       -8.208952
    6       -8.156955
    7       -7.191280
    8       -7.023517
    9       -5.436032
   10       -5.247270
   11       -3.746137
   12       -3.647738
   13        1.693594
   14        2.379674
   15        3.143033
   16        4.338784
   17        4.720353
   18        5.513436
   19        5.702783
   20        6.317193
 
  0.4166667E+00  0.0000000E+00  0.0000000E+00  0.1736111E-02
    1      -15.799172
    2      -15.739500
    3      -11.274165
    4      -11.265680
    5       -8.193384
    6       -8.163913
    7       -7.119557
    8       -7.031779
    9       -5.409836
   10       -5.310782
   11       -3.735536
   12       -3.688022
   13        1.939153
   14        2.300220
   15        3.384162
   16        4.030866
   17        4.742873
   18        5.184769
   19        5.853186
   20        6.166621
 
  0.5000000E+00  0.0000000E+00  0.0000000E+00  0.8680556E-03
    1      -15.766760
    2      -15.766760
    3      -11.280259
    4      -11.280259
    5       -8.176897
    6       -8.176897
    7       -7.064368
    8       -7.064368
    9       -5.366985
   10       -5.366985
   11       -3.717257
   12       -3.717256
   13        2.150886
   14        2.150887
   15        3.684329
   16        3.684329
   17        4.920857
   18        4.920857
   19        6.013549
   20        6.013549
 
  0.0000000E+00  0.8333333E-01  0.0000000E+00  0.1736111E-02
    1      -15.913484
    2      -15.696196
    3      -11.127400
    4      -11.117113
    5       -8.220641
    6       -8.166225
    7       -7.408887
    8       -7.093100
    9       -5.432652
   10       -5.087379
   11       -3.758010
   12       -3.513484
   13        1.091483
   14        2.301798
   15        2.832538
   16        4.236588
   17        5.299127
   18        6.461143
   19        6.683145
   20        6.865314
 
  0.8333333E-01  0.8333333E-01  0.0000000E+00  0.3472222E-02
    1      -15.907440
    2      -15.697193
    3      -11.139146
    4      -11.127178
    5       -8.222028
    6       -8.164158
    7       -7.389840
    8       -7.084577
    9       -5.434955
   10       -5.099737
   11       -3.757413
   12       -3.525500
   13        1.137164
   14        2.319537
   15        2.840759
   16        4.251117
   17        5.327709
   18        6.119258
   19        6.595858
   20        6.830752
 
  0.1666667E+00  0.8333333E-01  0.0000000E+00  0.3472222E-02
    1      -15.890095
    2      -15.700694
    3      -11.170353
    4      -11.155183
    5       -8.223164
    6       -8.159574
    7       -7.338035
    8       -7.063190
    9       -5.439538
   10       -5.134700
   11       -3.755964
   12       -3.558324
   13        1.268125
   14        2.360871
   15        2.877228
   16        4.292416
   17        5.405792
   18        5.590790
   19        6.292767
   20        6.700636
 
  0.2500000E+00  0.8333333E-01  0.0000000E+00  0.3472222E-02
    1      -15.863711
    2      -15.708044
    3      -11.211208
    4      -11.194377
    5       -8.219064
    6       -8.155735
    7       -7.266251
    8       -7.039645
    9       -5.440402
   10       -5.186547
   11       -3.753966
   12       -3.603646
   13        1.466755
   14        2.392987
   15        2.970654
   16        4.350777
   17        5.066435
   18        5.542980
   19        5.900036
   20        6.542162
 
  0.3333333E+00  0.8333333E-01  0.0000000E+00  0.3472222E-02
    1      -15.831696
    2      -15.720881
    3      -11.249771
    4      -11.234949
    5       -8.207838
    6       -8.155867
    7       -7.188939
    8       -7.026553
    9       -5.430559
   10       -5.247426
   11       -3.750195
   12       -3.651370
   13        1.705373
   14        2.381067
   15        3.141499
   16        4.348324
   17        4.688413
   18        5.505043
   19        5.701323
   20        6.385594
 
  0.4166667E+00  0.8333333E-01  0.0000000E+00  0.3472222E-02
    1      -15.798039
    2      -15.740392
    3      -11.275411
    4      -11.266679
    5       -8.191630
    6       -8.162203
    7       -7.118616
    8       -7.033620
    9       -5.405162
   10       -5.308962
   11       -3.741302
   12       -3.692856
   13        1.948488
   14        2.305439
   15        3.386230
   16        4.048408
   17        4.702830
   18        5.159114
   19        5.877503
   20        6.226717
 
  0.5000000E+00  0.8333333E-01  0.0000000E+00  0.1736111E-02
    1      -15.766617
    2      -15.766617
    3      -11.281487
    4      -11.281486
    5       -8.174938
    6       -8.174938
    7       -7.064840
    8       -7.064840
    9       -5.363532
   10       -5.363532
   11       -3.723093
   12       -3.723093
   13        2.158178
   14        2.158178
   15        3.693553
   16        3.693553
   17        4.888167
   18        4.888168
   19        6.056587
   20        6.056587
 
  0.0000000E+00  0.1666667E+00  0.0000000E+00  0.1736111E-02
    1      -15.902707
    2      -15.707921
    3      -11.125654
    4      -11.116374
    5       -8.223574
    6       -8.175769
    7       -7.388865
    8       -7.106630
    9       -5.415316
   10       -5.105966
   11       -3.740181
   12       -3.519921
   13        1.145685
   14        2.240008
   15        2.857682
   16        4.117220
   17        5.365030
   18        6.479415
   19        6.671400
   20        6.950201
 
  0.8333333E-01  0.1666667E+00  0.0000000E+00  0.3472222E-02
    1      -15.896976
    2      -15.708500
    3      -11.138154
    4      -11.126351
    5       -8.224726
    6       -8.171883
    7       -7.371150
    8       -7.097978
    9       -5.417543
   10       -5.116846
   11       -3.742250
   12       -3.532120
   13        1.189915
   14        2.260944
   15        2.865373
   16        4.136136
   17        5.388183
   18        6.137783
   19        6.611308
   20        6.856095
 
  0.1666667E+00  0.1666667E+00  0.0000000E+00  0.3472222E-02
    1      -15.880567
    2      -15.710763
    3      -11.170695
    4      -11.154800
    5       -8.224427
    6       -8.163631
    7       -7.322670
    8       -7.076013
    9       -5.422075
   10       -5.147755
   11       -3.747941
   12       -3.565604
   13        1.316791
   14        2.313566
   15        2.898517
   16        4.189607
   17        5.445340
   18        5.623619
   19        6.275961
   20        6.770134
 
  0.2500000E+00  0.1666667E+00  0.0000000E+00  0.3472222E-02
    1      -15.855725
    2      -15.716146
    3      -11.212789
    4      -11.195092
    5       -8.217813
    6       -8.156234
    7       -7.254986
    8       -7.051050
    9       -5.423343
   10       -5.193930
   11       -3.755252
   12       -3.612407
   13        1.509345
   14        2.366301
   15        2.984219
   16        4.270165
   17        5.078874
   18        5.561921
   19        5.891730
   20        6.671542
 
  0.3333333E+00  0.1666667E+00  0.0000000E+00  0.3472222E-02
    1      -15.825811
    2      -15.726436
    3      -11.252338
    4      -11.236917
    5       -8.204163
    6       -8.153528
    7       -7.181856
    8       -7.035420
    9       -5.414795
   10       -5.248604
   11       -3.759967
   12       -3.662584
   13        1.740686
   14        2.376497
   15        3.150053
   16        4.347693
   17        4.629759
   18        5.408554
   19        5.804017
   20        6.540846
 
  0.4166667E+00  0.1666667E+00  0.0000000E+00  0.3472222E-02
    1      -15.794742
    2      -15.743038
    3      -11.278610
    4      -11.269610
    5       -8.186501
    6       -8.157872
    7       -7.115732
    8       -7.038984
    9       -5.391876
   10       -5.304319
   11       -3.756265
   12       -3.707006
   13        1.976110
   14        2.315946
   15        3.400486
   16        4.097446
   17        4.595774
   18        5.075998
   19        5.976217
   20        6.373275
 
  0.5000000E+00  0.1666667E+00  0.0000000E+00  0.1736111E-02
    1      -15.766232
    2      -15.766232
    3      -11.284839
    4      -11.284839
    5       -8.169615
    6       -8.169615
    7       -7.066168
    8       -7.066167
    9       -5.353989
   10       -5.353989
   11       -3.739152
   12       -3.739152
   13        2.178048
   14        2.178049
   15        3.722839
   16        3.722840
   17        4.797332
   18        4.797332
   19        6.177721
   20        6.177721
 
  0.0000000E+00  0.2500000E+00  0.0000000E+00  0.1736111E-02
    1      -15.885466
    2      -15.726462
    3      -11.123138
    4      -11.115497
    5       -8.227056
    6       -8.189035
    7       -7.358261
    8       -7.128748
    9       -5.387618
   10       -5.135281
   11       -3.712835
   12       -3.531846
   13        1.233780
   14        2.133123
   15        2.917032
   16        3.942223
   17        5.476440
   18        6.473839
   19        6.685151
   20        7.061924
 
  0.8333333E-01  0.2500000E+00  0.0000000E+00  0.3472222E-02
    1      -15.880243
    2      -15.726379
    3      -11.136370
    4      -11.125651
    5       -8.227431
    6       -8.183254
    7       -7.342302
    8       -7.119811
    9       -5.389830
   10       -5.144160
   11       -3.718354
   12       -3.544367
   13        1.275771
   14        2.157311
   15        2.925978
   16        3.964801
   17        5.491008
   18        6.154436
   19        6.644096
   20        6.871145
 
  0.1666667E+00  0.2500000E+00  0.0000000E+00  0.3472222E-02
    1      -15.865355
    2      -15.726712
    3      -11.170309
    4      -11.155140
    5       -8.224424
    6       -8.170947
    7       -7.298389
    8       -7.096755
    9       -5.394548
   10       -5.169471
   11       -3.733397
   12       -3.578997
   13        1.396321
   14        2.221918
   15        2.960298
   16        4.028825
   17        5.513464
   18        5.661203
   19        6.299753
   20        6.834094
 
  0.2500000E+00  0.2500000E+00  0.0000000E+00  0.3472222E-02
    1      -15.843002
    2      -15.729022
    3      -11.213974
    4      -11.197050
    5       -8.214156
    6       -8.159012
    7       -7.236694
    8       -7.069358
    9       -5.396804
   10       -5.207460
   11       -3.753199
   12       -3.628037
   13        1.579404
   14        2.300249
   15        3.041123
   16        4.127520
   17        5.120363
   18        5.515572
   19        6.006853
   20        6.804990
 
  0.3333333E+00  0.2500000E+00  0.0000000E+00  0.3472222E-02
    1      -15.816482
    2      -15.735319
    3      -11.255034
    4      -11.240415
    5       -8.197526
    6       -8.152035
    7       -7.170073
    8       -7.049565
    9       -5.390704
   10       -5.252703
   11       -3.769937
   12       -3.681356
   13        1.798968
   14        2.346737
   15        3.197158
   16        4.257492
   17        4.632998
   18        5.270318
   19        5.998954
   20        6.721380
 
  0.4166667E+00  0.2500000E+00  0.0000000E+00  0.3472222E-02
    1      -15.789557
    2      -15.747324
    3      -11.282516
    4      -11.274047
    5       -8.178566
    6       -8.152881
    7       -7.110679
    8       -7.047415
    9       -5.372150
   10       -5.299109
   11       -3.774752
   12       -3.728632
   13        2.020453
   14        2.319251
   15        3.444799
   16        4.170272
   17        4.442559
   18        4.948282
   19        6.154969
   20        6.562857
 
  0.5000000E+00  0.2500000E+00  0.0000000E+00  0.1736111E-02
    1      -15.765699
    2      -15.765699
    3      -11.289399
    4      -11.289399
    5       -8.162328
    6       -8.162327
    7       -7.067980
    8       -7.067979
    9       -5.340639
   10       -5.340638
   11       -3.761324
   12       -3.761323
   13        2.205104
   14        2.205104
   15        3.775934
   16        3.775934
   17        4.664359
   18        4.664360
   19        6.358982
   20        6.358982
 
  0.0000000E+00  0.3333333E+00  0.0000000E+00  0.1736111E-02
    1      -15.862818
    2      -15.750410
    3      -11.120343
    4      -11.114890
    5       -8.229355
    6       -8.203140
    7       -7.320279
    8       -7.158606
    9       -5.351330
   10       -5.173076
   11       -3.679074
   12       -3.550294
   13        1.352246
   14        1.989915
   15        3.017096
   16        3.737806
   17        5.630579
   18        6.397512
   19        6.728855
   20        7.117470
 
  0.8333333E-01  0.3333333E+00  0.0000000E+00  0.3472222E-02
    1      -15.858279
    2      -15.749497
    3      -11.133909
    4      -11.125633
    5       -8.228254
    6       -8.196321
    7       -7.306145
    8       -7.149183
    9       -5.353710
   10       -5.179903
   11       -3.687892
   12       -3.563199
   13        1.391425
   14        2.016947
   15        3.029214
   16        3.761744
   17        5.631371
   18        6.147647
   19        6.684399
   20        6.843068
 
  0.1666667E+00  0.3333333E+00  0.0000000E+00  0.3472222E-02
    1      -15.845417
    2      -15.747388
    3      -11.168745
    4      -11.156667
    5       -8.221508
    6       -8.181225
    7       -7.267145
    8       -7.124414
    9       -5.359173
   10       -5.199273
   11       -3.712010
   12       -3.599077
   13        1.504019
   14        2.091954
   15        3.070368
   16        3.830284
   17        5.595326
   18        5.694251
   19        6.372836
   20        6.854945
 
  0.2500000E+00  0.3333333E+00  0.0000000E+00  0.3472222E-02
    1      -15.826394
    2      -15.745787
    3      -11.213830
    4      -11.200347
    5       -8.207279
    6       -8.165155
    7       -7.212390
    8       -7.093504
    9       -5.363420
   10       -5.228082
   11       -3.744427
   12       -3.650214
   13        1.674897
   14        2.193759
   15        3.153969
   16        3.937324
   17        5.182688
   18        5.448454
   19        6.203161
   20        6.895358
 
  0.3333333E+00  0.3333333E+00  0.0000000E+00  0.3472222E-02
    1      -15.804382
    2      -15.746975
    3      -11.256612
    4      -11.245026
    5       -8.188214
    6       -8.153351
    7       -7.153884
    8       -7.068010
    9       -5.361321
   10       -5.262045
   11       -3.774370
   12       -3.705743
   13        1.878269
   14        2.281268
   15        3.301320
   16        4.080343
   17        4.701968
   18        5.136389
   19        6.243498
   20        6.880160
 
  0.4166667E+00  0.3333333E+00  0.0000000E+00  0.3472222E-02
    1      -15.782931
    2      -15.753054
    3      -11.285785
    4      -11.279102
    5       -8.169131
    6       -8.149443
    7       -7.103326
    8       -7.058160
    9       -5.349309
   10       -5.296491
   11       -3.790224
   12       -3.753742
   13        2.078058
   14        2.303447
   15        3.534136
   16        4.224932
   17        4.295596
   18        4.801940
   19        6.388408
   20        6.760961
 
  0.5000000E+00  0.3333333E+00  0.0000000E+00  0.1736111E-02
    1      -15.765167
    2      -15.765166
    3      -11.293942
    4      -11.293942
    5       -8.155041
    6       -8.155041
    7       -7.069819
    8       -7.069819
    9       -5.326906
   10       -5.326906
   11       -3.783817
   12       -3.783817
   13        2.231968
   14        2.231969
   15        3.855377
   16        3.855377
   17        4.508204
   18        4.508204
   19        6.576322
   20        6.576322
 
  0.0000000E+00  0.4166667E+00  0.0000000E+00  0.1736111E-02
    1      -15.836178
    2      -15.778002
    3      -11.117791
    4      -11.114953
    5       -8.228824
    6       -8.215491
    7       -7.278308
    8       -7.194841
    9       -5.308819
   10       -5.216614
   11       -3.642600
   12       -3.575635
   13        1.495794
   14        1.826029
   15        3.156398
   16        3.527520
   17        5.819833
   18        6.236610
   19        6.799896
   20        6.996933
 
  0.8333333E-01  0.4166667E+00  0.0000000E+00  0.3472222E-02
    1      -15.832457
    2      -15.776157
    3      -11.131128
    4      -11.126595
    5       -8.225695
    6       -8.208914
    7       -7.265788
    8       -7.184681
    9       -5.311663
   10       -5.221663
   11       -3.653876
   12       -3.588710
   13        1.531865
   14        1.855905
   15        3.172600
   16        3.550456
   17        5.796169
   18        6.087211
   19        6.717729
   20        6.786506
 
  0.1666667E+00  0.4166667E+00  0.0000000E+00  0.3472222E-02
    1      -15.822041
    2      -15.771300
    3      -11.166052
    4      -11.159335
    5       -8.214924
    6       -8.193210
    7       -7.231418
    8       -7.157480
    9       -5.318772
   10       -5.235729
   11       -3.684927
   12       -3.625094
   13        1.635475
   14        1.940525
   15        3.223416
   16        3.617226
   17        5.666647
   18        5.713712
   19        6.491356
   20        6.786295
 
  0.2500000E+00  0.4166667E+00  0.0000000E+00  0.3472222E-02
    1      -15.807015
    2      -15.765289
    3      -11.211999
    4      -11.204497
    5       -8.197455
    6       -8.174549
    7       -7.183719
    8       -7.121970
    9       -5.326468
   10       -5.255864
   11       -3.727587
   12       -3.676747
   13        1.791944
   14        2.062641
   15        3.315090
   16        3.723978
   17        5.251724
   18        5.383693
   19        6.438909
   20        6.863883
 
  0.3333333E+00  0.4166667E+00  0.0000000E+00  0.3472222E-02
    1      -15.790379
    2      -15.760656
    3      -11.256295
    4      -11.249871
    5       -8.177396
    6       -8.158392
    7       -7.134082
    8       -7.089380
    9       -5.330359
   10       -5.278305
   11       -3.769474
   12       -3.731783
   13        1.974498
   14        2.187626
   15        3.458955
   16        3.868907
   17        4.795996
   18        5.013965
   19        6.513896
   20        6.926366
 
  0.4166667E+00  0.4166667E+00  0.0000000E+00  0.3472222E-02
    1      -15.775400
    2      -15.759929
    3      -11.287330
    4      -11.283633
    5       -8.159952
    6       -8.149213
    7       -7.093756
    8       -7.070207
    9       -5.327304
   10       -5.299501
   11       -3.797121
   12       -3.776846
   13        2.143298
   14        2.264891
   15        3.671352
   16        4.044515
   17        4.386107
   18        4.653885
   19        6.642844
   20        6.899994
 
  0.5000000E+00  0.4166667E+00  0.0000000E+00  0.1736111E-02
    1      -15.764778
    2      -15.764777
    3      -11.297259
    4      -11.297258
    5       -8.149703
    6       -8.149703
    7       -7.071180
    8       -7.071179
    9       -5.316592
   10       -5.316592
   11       -3.800494
   12       -3.800494
   13        2.251475
   14        2.251475
   15        3.954712
   16        3.954712
   17        4.354140
   18        4.354140
   19        6.786358
   20        6.786358
 
  0.0000000E+00  0.5000000E+00  0.0000000E+00  0.8680556E-03
    1      -15.807260
    2      -15.807260
    3      -11.115913
    4      -11.115913
    5       -8.224300
    6       -8.224300
    7       -7.235534
    8       -7.235534
    9       -5.262893
   10       -5.262893
   11       -3.607086
   12       -3.607086
   13        1.657045
   14        1.657045
   15        3.329445
   16        3.329446
   17        6.030190
   18        6.030190
   19        6.891804
   20        6.891804
 
  0.8333333E-01  0.5000000E+00  0.0000000E+00  0.1736111E-02
    1      -15.804461
    2      -15.804461
    3      -11.128531
    4      -11.128531
    5       -8.219137
    6       -8.219137
    7       -7.224368
    8       -7.224368
    9       -5.266618
   10       -5.266618
   11       -3.619751
   12       -3.619751
   13        1.689932
   14        1.689932
   15        3.349547
   16        3.349548
   17        5.960674
   18        5.960674
   19        6.745244
   20        6.745244
 
  0.1666667E+00  0.5000000E+00  0.0000000E+00  0.1736111E-02
    1      -15.796767
    2      -15.796767
    3      -11.162689
    4      -11.162688
    5       -8.205060
    6       -8.205060
    7       -7.193953
    8       -7.193952
    9       -5.276537
   10       -5.276536
   11       -3.654805
   12       -3.654804
   13        1.784103
   14        1.784103
   15        3.409735
   16        3.409736
   17        5.707529
   18        5.707530
   19        6.642464
   20        6.642464
 
  0.2500000E+00  0.5000000E+00  0.0000000E+00  0.1736111E-02
    1      -15.786173
    2      -15.786173
    3      -11.208672
    4      -11.208672
    5       -8.185928
    6       -8.185928
    7       -7.152791
    8       -7.152790
    9       -5.289498
   10       -5.289498
   11       -3.703922
   12       -3.703922
   13        1.924298
   14        1.924298
   15        3.510353
   16        3.510353
   17        5.319248
   18        5.319248
   19        6.680934
   20        6.680934
 
  0.3333333E+00  0.5000000E+00  0.0000000E+00  0.1736111E-02
    1      -15.775458
    2      -15.775457
    3      -11.253910
    4      -11.253910
    5       -8.166843
    6       -8.166842
    7       -7.112009
    8       -7.112008
    9       -5.301637
   10       -5.301637
   11       -3.754494
   12       -3.754493
   13        2.080905
   14        2.080905
   15        3.654447
   16        3.654447
   17        4.900962
   18        4.900962
   19        6.772506
   20        6.772506
 
  0.4166667E+00  0.5000000E+00  0.0000000E+00  0.1736111E-02
    1      -15.767546
    2      -15.767545
    3      -11.286593
    4      -11.286593
    5       -8.152868
    6       -8.152867
    7       -7.082440
    8       -7.082439
    9       -5.309891
   10       -5.309891
   11       -3.792511
   12       -3.792511
   13        2.208564
   14        2.208564
   15        3.847111
   16        3.847112
   17        4.513196
   18        4.513196
   19        6.855010
   20        6.855010
 
  0.5000000E+00  0.5000000E+00  0.0000000E+00  0.8680556E-03
    1      -15.764633
    2      -15.764632
    3      -11.298466
    4      -11.298466
    5       -8.147737
    6       -8.147737
    7       -7.071671
    8       -7.071670
    9       -5.312752
   10       -5.312752
   11       -3.806637
   12       -3.806637
   13        2.258579
   14        2.258579
   15        4.020490
   16        4.020490
   17        4.268586
   18        4.268586
   19        6.887928
   20        6.887928
 
  0.0000000E+00  0.0000000E+00  0.1250000E+00  0.1736111E-02
    1      -15.896266
    2      -15.687240
    3      -11.116012
    4      -11.105068
    5       -8.293629
    6       -8.230969
    7       -7.365339
    8       -7.081361
    9       -5.458494
   10       -5.126920
   11       -3.779287
   12       -3.522119
   13        1.091470
   14        2.277311
   15        2.922485
   16        4.374155
   17        5.219953
   18        6.232547
   19        6.464674
   20        6.835987
 
  0.8333333E-01  0.0000000E+00  0.1250000E+00  0.1736111E-02
    1      -15.889512
    2      -15.688673
    3      -11.123726
    4      -11.121973
    5       -8.308325
    6       -8.235008
    7       -7.313736
    8       -7.079587
    9       -5.420359
   10       -5.148557
   11       -3.770929
   12       -3.574785
   13        1.112819
   14        2.295524
   15        2.867261
   16        4.329753
   17        5.271444
   18        5.957366
   19        6.760055
   20        6.785583
 
  0.1666667E+00  0.0000000E+00  0.1250000E+00  0.1736111E-02
    1      -15.871873
    2      -15.692445
    3      -11.158999
    4      -11.146789
    5       -8.312982
    6       -8.234214
    7       -7.242130
    8       -7.066319
    9       -5.392198
   10       -5.196168
   11       -3.759663
   12       -3.643688
   13        1.217342
   14        2.346474
   15        2.848100
   16        4.332365
   17        5.364183
   18        5.618448
   19        6.589297
   20        6.624518
 
  0.2500000E+00  0.0000000E+00  0.1250000E+00  0.1736111E-02
    1      -15.845628
    2      -15.699877
    3      -11.203155
    4      -11.181431
    5       -8.304516
    6       -8.229928
    7       -7.163785
    8       -7.052579
    9       -5.373135
   10       -5.264801
   11       -3.744155
   12       -3.714981
   13        1.390317
   14        2.409082
   15        2.882475
   16        4.383088
   17        5.260663
   18        5.482908
   19        6.275767
   20        6.351028
 
  0.3333333E+00  0.0000000E+00  0.1250000E+00  0.1736111E-02
    1      -15.814176
    2      -15.712561
    3      -11.246181
    4      -11.214559
    5       -8.284375
    6       -8.224744
    7       -7.090516
    8       -7.051043
    9       -5.358326
   10       -5.345646
   11       -3.775513
   12       -3.723342
   13        1.609150
   14        2.437399
   15        2.998796
   16        4.471968
   17        4.895801
   18        5.585686
   19        6.030780
   20        6.115693
 
  0.4166667E+00  0.0000000E+00  0.1250000E+00  0.1736111E-02
    1      -15.781463
    2      -15.731619
    3      -11.278122
    4      -11.236078
    5       -8.257725
    6       -8.221412
    7       -7.071026
    8       -7.031306
    9       -5.427726
   10       -5.341353
   11       -3.816425
   12       -3.695679
   13        1.843836
   14        2.388439
   15        3.213069
   16        4.437628
   17        4.704198
   18        5.541574
   19        5.859865
   20        6.052081
 
  0.5000000E+00  0.0000000E+00  0.1250000E+00  0.1736111E-02
    1      -15.757062
    2      -15.751270
    3      -11.291423
    4      -11.239849
    5       -8.231566
    6       -8.221844
    7       -7.115135
    8       -6.992102
    9       -5.499685
   10       -5.317001
   11       -3.835221
   12       -3.659753
   13        2.058954
   14        2.250671
   15        3.514166
   16        4.114791
   17        4.878344
   18        5.359045
   19        5.725013
   20        6.167515
 
 -0.4166667E+00  0.0000000E+00  0.1250000E+00  0.1736111E-02
    1      -15.787389
    2      -15.726405
    3      -11.282710
    4      -11.224898
    5       -8.226404
    6       -8.212221
    7       -7.178812
    8       -6.975829
    9       -5.551325
   10       -5.283094
   11       -3.835408
   12       -3.616097
   13        2.037834
   14        2.221749
   15        3.794389
   16        3.883204
   17        5.156391
   18        5.177162
   19        5.602747
   20        6.307351
 
 -0.3333333E+00  0.0000000E+00  0.1250000E+00  0.1736111E-02
    1      -15.819715
    2      -15.708251
    3      -11.253845
    4      -11.195400
    5       -8.234272
    6       -8.203238
    7       -7.251782
    8       -6.982169
    9       -5.575686
   10       -5.241250
   11       -3.824299
   12       -3.568864
   13        1.783023
   14        2.314703
   15        3.514481
   16        4.287683
   17        5.039037
   18        5.442929
   19        5.565800
   20        6.414125
 
 -0.2500000E+00  0.0000000E+00  0.1250000E+00  0.1736111E-02
    1      -15.850284
    2      -15.696638
    3      -11.211818
    4      -11.159384
    5       -8.244691
    6       -8.204373
    7       -7.320110
    8       -7.006222
    9       -5.571394
   10       -5.196652
   11       -3.809590
   12       -3.526207
   13        1.527736
   14        2.341568
   15        3.289727
   16        4.578543
   17        5.074725
   18        5.354484
   19        5.984598
   20        6.490715
 
 -0.1666667E+00  0.0000000E+00  0.1250000E+00  0.1736111E-02
    1      -15.875226
    2      -15.690315
    3      -11.167380