ethylene                                
           1
     4.934086    0.000000    0.000000
     0.000000    6.545010    0.000000
     0.000000    0.000000    4.194480
   C    H 
   4   8
Direct configuration=     1
   0.88344002  0.05382000  0.95924997
   0.11656000  0.94617999  0.04075000
   0.61655998  0.55382001  0.54075003
   0.38344002  0.44617999  0.45925000
   0.81309998  0.16980000  0.11850000
   0.18690000  0.83020002  0.88150001
   0.68690002  0.66979998  0.38150001
   0.31309998  0.33020002  0.61849999
   0.75699997  0.02870000  0.73109996
   0.24300000  0.97130001  0.26890001
   0.74300003  0.52869999  0.76890004
   0.25700000  0.47130001  0.23109999
Direct configuration=     2
   0.89969910  0.04123672  0.95377486
   0.10030092  0.95876326  0.04622511
   0.60030090  0.54123674  0.54622514
   0.39969910  0.45876326  0.45377489
   0.80893508  0.17447584  0.12318579
   0.19106491  0.82552418  0.87681422
   0.69106492  0.67447582  0.37681422
   0.30893508  0.32552418  0.62318578
   0.76853667  0.02908022  0.74761499
   0.23146330  0.97091979  0.25238498
   0.73146333  0.52908021  0.75238501
   0.26853670  0.47091979  0.24761502
Direct configuration=     3
   0.88778191  0.05045971  0.95778788
   0.11221811  0.94954027  0.04221210
   0.61221809  0.55045973  0.54221212
   0.38778191  0.44954027  0.45778791
   0.81198777  0.17104865  0.11975131
   0.18801222  0.82895136  0.88024870
   0.68801223  0.67104864  0.38024870
   0.31198777  0.32895136  0.61975130
   0.76008077  0.02880153  0.73551020
   0.23991920  0.97119847  0.26448977
   0.73991923  0.52880153  0.76448980
   0.26008080  0.47119847  0.23551023
Direct configuration=     4
   0.88682105  0.05156797  0.95891975
   0.11317896  0.94843201  0.04108022
   0.61317895  0.55156799  0.54108025
   0.38682105  0.44843201  0.45891978
   0.81065330  0.17103981  0.11800607
   0.18934668  0.82896021  0.88199394
   0.68934670  0.67103979  0.38199394
   0.31065330  0.32896021  0.61800606
   0.77165429  0.02805102  0.74957310
   0.22834568  0.97194898  0.25042687
   0.72834571  0.52805102  0.75042690
   0.27165432  0.47194898  0.24957313
Direct configuration=     5
   0.88715278  0.05118536  0.95852899
   0.11284724  0.94881463  0.04147099
   0.61284722  0.55118537  0.54147101
   0.38715278  0.44881463  0.45852902
   0.81111401  0.17104286  0.11860860
   0.18888597  0.82895715  0.88139141
   0.68888599  0.67104285  0.38139141
   0.31111401  0.32895715  0.61860859
   0.76765867  0.02831013  0.74471804
   0.23234130  0.97168988  0.25528193
   0.73234133  0.52831012  0.75528196
   0.26765870  0.47168988  0.24471807
Direct configuration=     6
   0.89086362  0.05411766  0.97004758
   0.10913640  0.94588232  0.02995239
   0.60913638  0.55411768  0.52995242
   0.39086362  0.44588232  0.47004761
   0.81005697  0.17065809  0.11644022
   0.18994301  0.82934192  0.88355979
   0.68994303  0.67065808  0.38355979
   0.31005697  0.32934192  0.61644021
   0.77493208  0.02626584  0.75004335
   0.22506789  0.97373417  0.24995662
   0.72506792  0.52626583  0.74995665
   0.27493211  0.47373417  0.25004338
Direct configuration=     7
   0.88869753  0.05240602  0.96332396
   0.11130249  0.94759396  0.03667602
   0.61130247  0.55240604  0.53667604
   0.38869753  0.44759396  0.46332399
   0.81067399  0.17088269  0.11770594
   0.18932600  0.82911733  0.88229407
   0.68932601  0.67088267  0.38229407
   0.31067399  0.32911733  0.61770593
   0.77068645  0.02745913  0.74693487
   0.22931352  0.97254088  0.25306510
   0.72931355  0.52745912  0.75306513
   0.27068648  0.47254088  0.24693490
Direct configuration=     8
   0.88854454  0.05298507  0.96438901
   0.11145548  0.94701491  0.03561096
   0.61145546  0.55298509  0.53561099
   0.38854454  0.44701491  0.46438904
   0.80982488  0.17231351  0.11976754
   0.19017511  0.82768650  0.88023247
   0.69017512  0.67231350  0.38023247
   0.30982488  0.32768650  0.61976753
   0.77230597  0.02646458  0.74691120
   0.22769400  0.97353543  0.25308877
   0.72769403  0.52646457  0.75308880
   0.27230600  0.47353543  0.24691123
Direct configuration=     9
   0.88846277  0.05329457  0.96495827
   0.11153725  0.94670542  0.03504170
   0.61153723  0.55329458  0.53504173
   0.38846277  0.44670542  0.46495830
   0.80937104  0.17307827  0.12086944
   0.19062895  0.82692174  0.87913057
   0.69062896  0.67307826  0.37913057
   0.30937104  0.32692174  0.62086943
   0.77317158  0.02593300  0.74689854
   0.22682839  0.97406700  0.25310143
   0.72682842  0.52593300  0.75310146
   0.27317161  0.47406700  0.24689857
Direct configuration=    10
   0.88850473  0.05320809  0.96481983
   0.11149528  0.94679189  0.03518014
   0.61149527  0.55320811  0.53518017
   0.38850473  0.44679189  0.46481986
   0.80979041  0.17294118  0.12120697
   0.19020958  0.82705883  0.87879304
   0.69020959  0.67294117  0.37879304
   0.30979041  0.32705883  0.62120696
   0.77347866  0.02571358  0.74682043
   0.22652131  0.97428643  0.25317954
   0.72652134  0.52571357  0.75317957
   0.27347869  0.47428643  0.24682046
Direct configuration=    11
   0.88856744  0.05307888  0.96461297
   0.11143258  0.94692111  0.03538700
   0.61143256  0.55307889  0.53538703
   0.38856744  0.44692111  0.46461300
   0.81041703  0.17273634  0.12171130
   0.18958296  0.82726368  0.87828870
   0.68958297  0.67273632  0.37828870
   0.31041703  0.32726368  0.62171130
   0.77393751  0.02538571  0.74670371
   0.22606246  0.97461429  0.25329626
   0.72606249  0.52538571  0.75329629
   0.27393754  0.47461429  0.24670374
Direct configuration=    12
   0.88854783  0.05313399  0.96470941
   0.11145219  0.94686600  0.03529056
   0.61145217  0.55313400  0.53529059
   0.38854783  0.44686600  0.46470944
   0.81065344  0.17262178  0.12182413
   0.18934655  0.82737823  0.87817588
   0.68934656  0.67262177  0.37817588
   0.31065344  0.32737823  0.62182412
   0.77405416  0.02525682  0.74656980
   0.22594581  0.97474318  0.25343017
   0.72594584  0.52525682  0.75343020
   0.27405419  0.47474318  0.24656983
Direct configuration=    13
   0.88853517  0.05316955  0.96477164
   0.11146484  0.94683044  0.03522834
   0.61146483  0.55316956  0.53522836
   0.38853517  0.44683044  0.46477167
   0.81080598  0.17254787  0.12189693
   0.18919401  0.82745215  0.87810308
   0.68919402  0.67254785  0.37810308
   0.31080598  0.32745215  0.62189692
   0.77412943  0.02517366  0.74648340
   0.22587054  0.97482635  0.25351657
   0.72587057  0.52517365  0.75351660
   0.27412946  0.47482635  0.24648343
