  32  32   0   0
  0.8555981E+01  0.4932875E-09  0.4932875E-09  0.1299823E-08  0.5000000E-15
  1.000000000000000E-004
  CAR 
 graphite                                
     16.33413637    -16.70563144  301      4.95305490      1.00000000
    -16.706  0.0000E+00  0.0000E+00
    -16.595  0.0000E+00  0.0000E+00
    -16.485  0.0000E+00  0.0000E+00
    -16.375  0.0000E+00  0.0000E+00
    -16.265  0.0000E+00  0.0000E+00
    -16.155  0.0000E+00  0.0000E+00
    -16.045  0.0000E+00  0.0000E+00
    -15.935  0.0000E+00  0.0000E+00
    -15.825  0.0000E+00  0.0000E+00
    -15.714  0.0000E+00  0.0000E+00
    -15.604  0.0000E+00  0.0000E+00
    -15.494  0.0000E+00  0.0000E+00
    -15.384  0.0000E+00  0.0000E+00
    -15.274  0.0000E+00  0.0000E+00
    -15.164  0.0000E+00  0.0000E+00
    -15.054  0.0000E+00  0.0000E+00
    -14.944  0.0000E+00  0.0000E+00
    -14.833  0.0000E+00  0.0000E+00
    -14.723  0.0000E+00  0.0000E+00
    -14.613  0.1445E+01  0.7069E-01
    -14.503  0.2459E+01  0.2831E+00
    -14.393  0.3380E+01  0.6079E+00
    -14.283  0.4999E+01  0.1060E+01
    -14.173  0.4986E+01  0.1605E+01
    -14.062  0.4861E+01  0.2151E+01
    -13.952  0.4932E+01  0.2688E+01
    -13.842  0.4997E+01  0.3236E+01
    -13.732  0.4927E+01  0.3781E+01
    -13.622  0.4961E+01  0.4325E+01
    -13.512  0.5284E+01  0.4879E+01
    -13.402  0.5615E+01  0.5482E+01
    -13.292  0.6496E+01  0.6125E+01
    -13.181  0.6794E+01  0.6867E+01
    -13.071  0.4228E+01  0.7398E+01
    -12.961  0.2057E+01  0.7740E+01
    -12.851  0.3699E+01  0.8055E+01
    -12.741  0.4121E+01  0.8465E+01
    -12.631  0.8194E+01  0.9098E+01
    -12.521  0.5418E+01  0.9761E+01
    -12.410  0.6190E+01  0.1040E+02
    -12.300  0.4429E+01  0.1099E+02
    -12.190  0.4680E+01  0.1149E+02
    -12.080  0.4862E+01  0.1202E+02
    -11.970  0.4994E+01  0.1256E+02
    -11.860  0.5093E+01  0.1311E+02
    -11.750  0.5358E+01  0.1368E+02
    -11.640  0.5730E+01  0.1432E+02
    -11.529  0.5102E+01  0.1491E+02
    -11.419  0.5036E+01  0.1547E+02
    -11.309  0.5002E+01  0.1602E+02
    -11.199  0.5053E+01  0.1657E+02
    -11.089  0.5139E+01  0.1713E+02
    -10.979  0.5191E+01  0.1770E+02
    -10.869  0.5446E+01  0.1829E+02
    -10.758  0.5621E+01  0.1890E+02
    -10.648  0.5943E+01  0.1953E+02
    -10.538  0.5886E+01  0.2018E+02
    -10.428  0.5914E+01  0.2083E+02
    -10.318  0.5589E+01  0.2148E+02
    -10.208  0.4442E+01  0.2203E+02
    -10.098  0.4403E+01  0.2251E+02
     -9.988  0.5131E+01  0.2305E+02
     -9.877  0.5358E+01  0.2363E+02
     -9.767  0.5537E+01  0.2423E+02
     -9.657  0.5778E+01  0.2485E+02
     -9.547  0.6826E+01  0.2553E+02
     -9.437  0.8488E+01  0.2635E+02
     -9.327  0.8849E+01  0.2739E+02
     -9.217  0.6836E+01  0.2819E+02
     -9.106  0.5545E+01  0.2890E+02
     -8.996  0.3761E+01  0.2951E+02
     -8.886  0.3367E+01  0.2990E+02
     -8.776  0.2986E+01  0.3025E+02
     -8.666  0.2605E+01  0.3056E+02
     -8.556  0.2485E+01  0.3083E+02
     -8.446  0.2771E+01  0.3114E+02
     -8.336  0.2208E+01  0.3142E+02
     -8.225  0.1566E+01  0.3161E+02
     -8.115  0.2420E+01  0.3183E+02
     -8.005  0.6292E+01  0.3224E+02
     -7.895  0.4572E+01  0.3296E+02
     -7.785  0.3913E+01  0.3343E+02
     -7.675  0.4234E+01  0.3387E+02
     -7.565  0.6224E+01  0.3449E+02
     -7.454  0.6928E+01  0.3527E+02
     -7.344  0.7215E+01  0.3601E+02
     -7.234  0.8412E+01  0.3687E+02
     -7.124  0.8022E+01  0.3781E+02
     -7.014  0.6296E+01  0.3860E+02
     -6.904  0.6018E+01  0.3928E+02
     -6.794  0.5750E+01  0.3993E+02
     -6.684  0.5526E+01  0.4055E+02
     -6.573  0.5330E+01  0.4115E+02
     -6.463  0.5149E+01  0.4172E+02
     -6.353  0.4951E+01  0.4228E+02
     -6.243  0.4843E+01  0.4282E+02
     -6.133  0.4819E+01  0.4335E+02
     -6.023  0.4785E+01  0.4388E+02
     -5.913  0.4597E+01  0.4439E+02
     -5.803  0.4437E+01  0.4489E+02
     -5.692  0.3664E+01  0.4536E+02
     -5.582  0.4108E+01  0.4577E+02
     -5.472  0.4506E+01  0.4623E+02
     -5.362  0.5216E+01  0.4677E+02
     -5.252  0.5992E+01  0.4738E+02
     -5.142  0.8067E+01  0.4812E+02
     -5.032  0.1046E+02  0.4913E+02
     -4.921  0.7995E+01  0.5015E+02
     -4.811  0.5527E+01  0.5090E+02
     -4.701  0.3081E+01  0.5137E+02
     -4.591  0.2521E+01  0.5166E+02
     -4.481  0.3428E+01  0.5198E+02
     -4.371  0.4822E+01  0.5243E+02
     -4.261  0.6335E+01  0.5304E+02
     -4.151  0.7932E+01  0.5384E+02
     -4.040  0.7622E+01  0.5471E+02
     -3.930  0.6326E+01  0.5548E+02
     -3.820  0.5384E+01  0.5612E+02
     -3.710  0.7648E+01  0.5685E+02
     -3.600  0.7506E+01  0.5767E+02
     -3.490  0.7248E+01  0.5849E+02
     -3.380  0.7108E+01  0.5927E+02
     -3.269  0.8490E+01  0.6011E+02
     -3.159  0.1000E+02  0.6110E+02
     -3.049  0.7766E+01  0.6212E+02
     -2.939  0.8907E+01  0.6309E+02
     -2.829  0.7776E+01  0.6401E+02
     -2.719  0.6833E+01  0.6480E+02
     -2.609  0.7562E+01  0.6559E+02
     -2.499  0.8645E+01  0.6648E+02
     -2.388  0.1085E+02  0.6754E+02
     -2.278  0.1322E+02  0.6886E+02
     -2.168  0.1195E+02  0.7032E+02
     -2.058  0.1064E+02  0.7153E+02
     -1.948  0.1255E+02  0.7281E+02
     -1.838  0.1308E+02  0.7419E+02
     -1.728  0.1427E+02  0.7579E+02
     -1.617  0.1424E+02  0.7730E+02
     -1.507  0.1130E+02  0.7900E+02
     -1.397  0.1432E+02  0.8017E+02
     -1.287  0.1823E+02  0.8224E+02
     -1.177  0.1935E+02  0.8430E+02
     -1.067  0.1471E+02  0.8616E+02
     -0.957  0.1270E+02  0.8766E+02
     -0.847  0.1184E+02  0.8900E+02
     -0.736  0.7828E+01  0.9012E+02
     -0.626  0.8154E+01  0.9097E+02
     -0.516  0.1041E+02  0.9198E+02
     -0.406  0.1409E+02  0.9343E+02
     -0.296  0.1837E+02  0.9507E+02
     -0.186  0.8701E+01  0.9635E+02
     -0.076  0.8943E+01  0.9733E+02
      0.035  0.9962E+01  0.9836E+02
      0.145  0.1076E+02  0.9951E+02
      0.255  0.1106E+02  0.1007E+03
      0.365  0.9788E+01  0.1019E+03
      0.475  0.9544E+01  0.1030E+03
      0.585  0.9443E+01  0.1040E+03
      0.695  0.9662E+01  0.1051E+03
      0.805  0.9990E+01  0.1061E+03
      0.916  0.9284E+01  0.1072E+03
      1.026  0.9276E+01  0.1082E+03
      1.136  0.9215E+01  0.1092E+03
      1.246  0.9310E+01  0.1103E+03
      1.356  0.9388E+01  0.1113E+03
      1.466  0.9786E+01  0.1123E+03
      1.576  0.9027E+01  0.1134E+03
      1.687  0.9234E+01  0.1143E+03
      1.797  0.9383E+01  0.1154E+03
      1.907  0.8557E+01  0.1164E+03
      2.017  0.6649E+01  0.1173E+03
      2.127  0.5811E+01  0.1180E+03
      2.237  0.5911E+01  0.1186E+03
      2.347  0.4452E+01  0.1192E+03
      2.457  0.4524E+01  0.1196E+03
      2.568  0.7198E+01  0.1203E+03
      2.678  0.8070E+01  0.1211E+03
      2.788  0.7261E+01  0.1220E+03
      2.898  0.3707E+01  0.1226E+03
      3.008  0.6422E+01  0.1233E+03
      3.118  0.7295E+01  0.1240E+03
      3.228  0.5205E+01  0.1247E+03
      3.338  0.4265E+01  0.1252E+03
      3.449  0.3649E+01  0.1256E+03
      3.559  0.3189E+01  0.1260E+03
      3.669  0.2885E+01  0.1264E+03
      3.779  0.2577E+01  0.1267E+03
      3.889  0.2159E+01  0.1269E+03
      3.999  0.1855E+01  0.1271E+03
      4.109  0.1606E+01  0.1273E+03
      4.220  0.1355E+01  0.1275E+03
      4.330  0.1143E+01  0.1276E+03
      4.440  0.9680E+00  0.1277E+03
      4.550  0.8164E+00  0.1278E+03
      4.660  0.5772E+00  0.1279E+03
      4.770  0.3473E+00  0.1280E+03
      4.880  0.1254E+00  0.1280E+03
      4.990  0.2852E-01  0.1280E+03
      5.101  0.1658E+00  0.1280E+03
      5.211  0.3126E+00  0.1280E+03
      5.321  0.4697E+00  0.1281E+03
      5.431  0.6414E+00  0.1281E+03
      5.541  0.8285E+00  0.1282E+03
      5.651  0.1053E+01  0.1283E+03
      5.761  0.1331E+01  0.1285E+03
      5.872  0.1696E+01  0.1286E+03
      5.982  0.2052E+01  0.1288E+03
      6.092  0.2431E+01  0.1291E+03
      6.202  0.3176E+01  0.1294E+03
      6.312  0.3856E+01  0.1298E+03
      6.422  0.4638E+01  0.1303E+03
      6.532  0.1328E+02  0.1312E+03
      6.642  0.8324E+01  0.1322E+03
      6.753  0.7528E+01  0.1331E+03
      6.863  0.7760E+01  0.1339E+03
      6.973  0.7949E+01  0.1347E+03
      7.083  0.6064E+01  0.1355E+03
      7.193  0.5605E+01  0.1362E+03
      7.303  0.5282E+01  0.1368E+03
      7.413  0.4288E+01  0.1373E+03
      7.524  0.3694E+01  0.1377E+03
      7.634  0.3459E+01  0.1381E+03
      7.744  0.3678E+01  0.1385E+03
      7.854  0.4110E+01  0.1390E+03
      7.964  0.4450E+01  0.1394E+03
      8.074  0.4761E+01  0.1399E+03
      8.184  0.4814E+01  0.1405E+03
      8.294  0.4594E+01  0.1410E+03
      8.405  0.4384E+01  0.1415E+03
      8.515  0.4154E+01  0.1420E+03
      8.625  0.3941E+01  0.1424E+03
      8.735  0.3826E+01  0.1428E+03
      8.845  0.3670E+01  0.1432E+03
      8.955  0.3580E+01  0.1436E+03
      9.065  0.3496E+01  0.1440E+03
      9.176  0.3359E+01  0.1444E+03
      9.286  0.3230E+01  0.1448E+03
      9.396  0.3180E+01  0.1451E+03
      9.506  0.3175E+01  0.1455E+03
      9.616  0.3313E+01  0.1458E+03
      9.726  0.3616E+01  0.1462E+03
      9.836  0.3610E+01  0.1466E+03
      9.946  0.3603E+01  0.1470E+03
     10.057  0.3648E+01  0.1474E+03
     10.167  0.3717E+01  0.1478E+03
     10.277  0.3807E+01  0.1482E+03
     10.387  0.3856E+01  0.1486E+03
     10.497  0.3797E+01  0.1491E+03
     10.607  0.3767E+01  0.1495E+03
     10.717  0.3742E+01  0.1499E+03
     10.828  0.4189E+01  0.1503E+03
     10.938  0.4535E+01  0.1508E+03
     11.048  0.4750E+01  0.1513E+03
     11.158  0.4775E+01  0.1518E+03
     11.268  0.4690E+01  0.1524E+03
     11.378  0.4832E+01  0.1529E+03
     11.488  0.4757E+01  0.1535E+03
     11.598  0.3299E+01  0.1539E+03
     11.709  0.3143E+01  0.1542E+03
     11.819  0.2888E+01  0.1546E+03
     11.929  0.3358E+01  0.1549E+03
     12.039  0.3647E+01  0.1553E+03
     12.149  0.3943E+01  0.1557E+03
     12.259  0.6156E+01  0.1562E+03
     12.369  0.6994E+01  0.1569E+03
     12.479  0.9910E+01  0.1579E+03
     12.590  0.1222E+02  0.1591E+03
     12.700  0.1322E+02  0.1605E+03
     12.810  0.1271E+02  0.1620E+03
     12.920  0.1185E+02  0.1634E+03
     13.030  0.9758E+01  0.1646E+03
     13.140  0.7570E+01  0.1655E+03
     13.250  0.6247E+01  0.1663E+03
     13.361  0.5957E+01  0.1670E+03
     13.471  0.3513E+01  0.1675E+03
     13.581  0.1926E+01  0.1678E+03
     13.691  0.6726E+00  0.1679E+03
     13.801  0.7688E-01  0.1680E+03
     13.911  0.4829E-01  0.1680E+03
     14.021  0.2642E-01  0.1680E+03
     14.131  0.1109E-01  0.1680E+03
     14.242  0.2311E-02  0.1680E+03
     14.352  0.0000E+00  0.1680E+03
     14.462  0.0000E+00  0.1680E+03
     14.572  0.0000E+00  0.1680E+03
     14.682  0.0000E+00  0.1680E+03
     14.792  0.0000E+00  0.1680E+03
     14.902  0.0000E+00  0.1680E+03
     15.013  0.0000E+00  0.1680E+03
     15.123  0.0000E+00  0.1680E+03
     15.233  0.0000E+00  0.1680E+03
     15.343  0.0000E+00  0.1680E+03
     15.453  0.0000E+00  0.1680E+03
     15.563  0.0000E+00  0.1680E+03
     15.673  0.0000E+00  0.1680E+03
     15.783  0.0000E+00  0.1680E+03
     15.894  0.0000E+00  0.1680E+03
     16.004  0.0000E+00  0.1680E+03
     16.114  0.0000E+00  0.1680E+03
     16.224  0.0000E+00  0.1680E+03
     16.334  0.0000E+00  0.1680E+03
