 vasp.5.3.5 31Mar14 (build Nov 02 2014 15:17:37) complex                        
  
 executed on        ion-Intel-MKL date 2016.08.31  05:12:26
 running on    6 total cores
 distrk:  each k-point on    6 cores,    1 groups
 distr:  one band on NCORES_PER_BAND=   1 cores,    6 groups


--------------------------------------------------------------------------------------------------------


 INCAR:
 POTCAR:   PAW_PBE C 08Apr2002                    

 ----------------------------------------------------------------------------- 
|                                                                             |
|           W    W    AA    RRRRR   N    N  II  N    N   GGGG   !!!           |
|           W    W   A  A   R    R  NN   N  II  NN   N  G    G  !!!           |
|           W    W  A    A  R    R  N N  N  II  N N  N  G       !!!           |
|           W WW W  AAAAAA  RRRRR   N  N N  II  N  N N  G  GGG   !            |
|           WW  WW  A    A  R   R   N   NN  II  N   NN  G    G                |
|           W    W  A    A  R    R  N    N  II  N    N   GGGG   !!!           |
|                                                                             |
|      For optimal performance we recommend to set                            |
|        NCORE= 4 - approx SQRT( number of cores)                             |
|      NCORE specifies how many cores store one orbital (NPAR=cpu/NCORE).     |
|      This setting can  greatly improve the performance of VASP for DFT.     |
|      The default, NPAR=number of cores might be grossly inefficient         |
|      on modern multi-core architectures or massively parallel machines.     |
|      Do your own testing !!!!                                               |
|      Unfortunately you need to use the default for GW and RPA calculations. |
|      (for HF NCORE is supported but not extensively tested yet)             |
|                                                                             |
 ----------------------------------------------------------------------------- 

 POTCAR:   PAW_PBE C 08Apr2002                    
   VRHFIN =C: s2p2                                                              
   LEXCH  = PE                                                                  
   EATOM  =   147.1560 eV,   10.8157 Ry                                         
                                                                                
   TITEL  = PAW_PBE C 08Apr2002                                                 
   LULTRA =        F    use ultrasoft PP ?                                      
   IUNSCR =        0    unscreen: 0-lin 1-nonlin 2-no                           
   RPACOR =     .000    partial core radius                                     
   POMASS =   12.011; ZVAL   =    4.000    mass and valenz                      
   RCORE  =    1.500    outmost cutoff radius                                   
   RWIGS  =    1.630; RWIGS  =     .863    wigner-seitz radius (au A)           
   ENMAX  =  400.000; ENMIN  =  300.000 eV                                      
   ICORE  =        2    local potential                                         
   LCOR   =        T    correct aug charges                                     
   LPAW   =        T    paw PP                                                  
   EAUG   =  644.873                                                            
   DEXC   =     .000                                                            
   RMAX   =    2.266    core radius for proj-oper                               
   RAUG   =    1.300    factor for augmentation sphere                          
   RDEP   =    1.501    radius for radial grids                                 
   RDEPT  =    1.300    core radius for aug-charge                              
   QCUT   =   -5.516; QGAM   =   11.032    optimization parameters              
                                                                                
   Description                                                                  
     l     E      TYP  RCUT    TYP  RCUT                                        
     0   .000     23  1.200                                                     
     0   .000     23  1.200                                                     
     1   .000     23  1.500                                                     
     1  2.500     23  1.500                                                     
     2   .000      7  1.500                                                     
  local pseudopotential read in
  atomic valenz-charges read in
  non local Contribution for L=           0  read in
    real space projection operators read in
  non local Contribution for L=           0  read in
    real space projection operators read in
  non local Contribution for L=           1  read in
    real space projection operators read in
  non local Contribution for L=           1  read in
    real space projection operators read in
    PAW grid and wavefunctions read in
 
   number of l-projection  operators is LMAX  =           4
   number of lm-projection operators is LMMAX =           8
 

 ----------------------------------------------------------------------------- 
|                                                                             |
|  ADVICE TO THIS USER RUNNING 'VASP/VAMP'   (HEAR YOUR MASTER'S VOICE ...):  |
|                                                                             |
|      You have a (more or less) 'large supercell' and for larger cells       |
|      it might be more efficient to use real space projection operators      |
|      So try LREAL= Auto  in the INCAR   file.                               |
|      Mind: If you want to do a very accurate calculations keep the          |
|      reciprocal projection scheme          (i.e. LREAL=.FALSE.)             |
|                                                                             |
 ----------------------------------------------------------------------------- 

 PAW_PBE C 08Apr2002                    :
 energy of atom  1       EATOM= -147.1560
 kinetic energy error for atom=    0.0057 (will be added to EATOM!!)
 
 
 POSCAR: C                                       
  positions in direct lattice
  No initial velocities read in
 exchange correlation table for  LEXCH =        8
   RHO(1)=    0.500       N(1)  =     2000
   RHO(2)=  100.500       N(2)  =     4000
 


--------------------------------------------------------------------------------------------------------


 ion  position               nearest neighbor table
   1  0.499  0.000  0.124-  19 1.42  18 1.42  20 1.43
   2  1.000  0.000  0.125-  17 1.42  20 1.42  19 1.42
   3  0.500  0.500  0.125-  20 1.42  17 1.42  18 1.42
   4  1.000  0.500  0.125-  19 1.42  18 1.42  17 1.42
   5  0.500  0.000  0.625-  22 1.42  23 1.42  24 1.42
   6  1.000  0.000  0.625-  21 1.42  24 1.42  23 1.42
   7  0.500  0.500  0.625-  24 1.42  21 1.42  22 1.42
   8  1.000  0.500  0.625-  23 1.42  22 1.42  21 1.42
   9  0.000  0.500  0.375-  27 1.42  26 1.42  28 1.42
  10  0.500  0.500  0.375-  28 1.42  25 1.42  27 1.42
  11  0.000  1.000  0.375-  25 1.42  28 1.42  26 1.42
  12  0.500  1.000  0.375-  26 1.42  27 1.42  25 1.42
  13  0.000  0.500  0.875-  31 1.42  30 1.42  32 1.42
  14  0.500  0.500  0.875-  32 1.42  29 1.42  31 1.42
  15  0.000  1.000  0.875-  29 1.42  32 1.42  30 1.42
  16  0.500  1.000  0.875-  30 1.42  31 1.42  29 1.42
  17  0.166  0.334  0.125-   2 1.42   3 1.42   4 1.42
  18  0.666  0.334  0.125-   4 1.42   1 1.42   3 1.42
  19  0.166  0.834  0.125-   1 1.42   4 1.42   2 1.42
  20  0.666  0.834  0.125-   3 1.42   2 1.42   1 1.43
  21  0.166  0.334  0.625-   6 1.42   7 1.42   8 1.42
  22  0.666  0.334  0.625-   5 1.42   8 1.42   7 1.42
  23  0.166  0.834  0.625-   8 1.42   5 1.42   6 1.42
  24  0.666  0.834  0.625-   7 1.42   6 1.42   5 1.42
  25  0.334  0.166  0.375-  11 1.42  10 1.42  12 1.42
  26  0.834  0.166  0.375-  12 1.42   9 1.42  11 1.42
  27  0.334  0.666  0.375-   9 1.42  12 1.42  10 1.42
  28  0.834  0.666  0.375-  10 1.42  11 1.42   9 1.42
  29  0.334  0.166  0.875-  15 1.42  14 1.42  16 1.42
  30  0.834  0.166  0.875-  16 1.42  13 1.42  15 1.42
  31  0.334  0.666  0.875-  13 1.42  16 1.42  14 1.42
  32  0.834  0.666  0.875-  14 1.42  15 1.42  13 1.42
 
  LATTYP: Found a base centered orthorhombic cell.
 ALAT       =     4.9295501972
 B/A-ratio  =     1.7336081796
 C/A-ratio  =     2.6367986748
  
  Lattice vectors:
  
 A1 = (   4.9328744980,  -0.0019192860,   0.0000000000)
 A2 = (  -2.4680993993,   4.2710349859,   0.0000000000)
 A3 = (   0.0000000000,   0.0000000000,  12.9982314272)


Analysis of symmetry for initial positions (statically):
=====================================================================
 Subroutine PRICEL returns:
 Original cell was already a primitive cell.
 

 Routine SETGRP: Setting up the symmetry group for a 
 base centered orthorhombic supercell.


 Subroutine GETGRP returns: Found  1 space group operations
 (whereof  1 operations were pure point group operations)
 out of a pool of  8 trial point group operations.


The static configuration has the point symmetry C_1 .


Analysis of symmetry for dynamics (positions and initial velocities):
=====================================================================
 Subroutine PRICEL returns:
 Original cell was already a primitive cell.
 

 Routine SETGRP: Setting up the symmetry group for a 
 base centered orthorhombic supercell.


 Subroutine GETGRP returns: Found  1 space group operations
 (whereof  1 operations were pure point group operations)
 out of a pool of  8 trial point group operations.


The dynamic configuration has the point symmetry C_1 .
 
 
 KPOINTS: B4C B11C-CBC                            

Automatic generation of k-mesh.
Space group operators:
 irot       det(A)        alpha          n_x          n_y          n_z        tau_x        tau_y        tau_z
    1     1.000000     0.000000     1.000000     0.000000     0.000000     0.000000     0.000000     0.000000
 
 Subroutine IBZKPT returns following result:
 ===========================================
 
 Found    163 irreducible k-points:
 
 Following reciprocal coordinates:
            Coordinates               Weight
  0.000000  0.000000  0.000000      1.000000
  0.111111 -0.000000  0.000000      2.000000
  0.222222 -0.000000  0.000000      2.000000
  0.333333  0.000000  0.000000      2.000000
  0.444444 -0.000000  0.000000      2.000000
 -0.000000  0.111111  0.000000      2.000000
  0.111111  0.111111  0.000000      2.000000
  0.222222  0.111111  0.000000      2.000000
  0.333333  0.111111  0.000000      2.000000
  0.444444  0.111111  0.000000      2.000000
 -0.444444  0.111111  0.000000      2.000000
 -0.333333  0.111111  0.000000      2.000000
 -0.222222  0.111111  0.000000      2.000000
 -0.111111  0.111111  0.000000      2.000000
 -0.000000  0.222222  0.000000      2.000000
  0.111111  0.222222  0.000000      2.000000
  0.222222  0.222222  0.000000      2.000000
  0.333333  0.222222  0.000000      2.000000
  0.444444  0.222222  0.000000      2.000000
 -0.444444  0.222222  0.000000      2.000000
 -0.333333  0.222222  0.000000      2.000000
 -0.222222  0.222222  0.000000      2.000000
 -0.111111  0.222222  0.000000      2.000000
 -0.000000  0.333333  0.000000      2.000000
  0.111111  0.333333  0.000000      2.000000
  0.222222  0.333333  0.000000      2.000000
  0.333333  0.333333  0.000000      2.000000
  0.444444  0.333333  0.000000      2.000000
 -0.444444  0.333333  0.000000      2.000000
 -0.333333  0.333333  0.000000      2.000000
 -0.222222  0.333333  0.000000      2.000000
 -0.111111  0.333333  0.000000      2.000000
 -0.000000  0.444444  0.000000      2.000000
  0.111111  0.444444  0.000000      2.000000
  0.222222  0.444444  0.000000      2.000000
  0.333333  0.444444  0.000000      2.000000
  0.444444  0.444444  0.000000      2.000000
 -0.444444  0.444444  0.000000      2.000000
 -0.333333  0.444444  0.000000      2.000000
 -0.222222  0.444444  0.000000      2.000000
 -0.111111  0.444444  0.000000      2.000000
  0.000000  0.000000  0.250000      2.000000
  0.111111 -0.000000  0.250000      2.000000
  0.222222 -0.000000  0.250000      2.000000
  0.333333  0.000000  0.250000      2.000000
  0.444444 -0.000000  0.250000      2.000000
 -0.444444  0.000000  0.250000      2.000000
 -0.333333  0.000000  0.250000      2.000000
 -0.222222  0.000000  0.250000      2.000000
 -0.111111  0.000000  0.250000      2.000000
 -0.000000  0.111111  0.250000      2.000000
  0.111111  0.111111  0.250000      2.000000
  0.222222  0.111111  0.250000      2.000000
  0.333333  0.111111  0.250000      2.000000
  0.444444  0.111111  0.250000      2.000000
 -0.444444  0.111111  0.250000      2.000000
 -0.333333  0.111111  0.250000      2.000000
 -0.222222  0.111111  0.250000      2.000000
 -0.111111  0.111111  0.250000      2.000000
 -0.000000  0.222222  0.250000      2.000000
  0.111111  0.222222  0.250000      2.000000
  0.222222  0.222222  0.250000      2.000000
  0.333333  0.222222  0.250000      2.000000
  0.444444  0.222222  0.250000      2.000000
 -0.444444  0.222222  0.250000      2.000000
 -0.333333  0.222222  0.250000      2.000000
 -0.222222  0.222222  0.250000      2.000000
 -0.111111  0.222222  0.250000      2.000000
 -0.000000  0.333333  0.250000      2.000000
  0.111111  0.333333  0.250000      2.000000
  0.222222  0.333333  0.250000      2.000000
  0.333333  0.333333  0.250000      2.000000
  0.444444  0.333333  0.250000      2.000000
 -0.444444  0.333333  0.250000      2.000000
 -0.333333  0.333333  0.250000      2.000000
 -0.222222  0.333333  0.250000      2.000000
 -0.111111  0.333333  0.250000      2.000000
 -0.000000  0.444444  0.250000      2.000000
  0.111111  0.444444  0.250000      2.000000
  0.222222  0.444444  0.250000      2.000000
  0.333333  0.444444  0.250000      2.000000
  0.444444  0.444444  0.250000      2.000000
 -0.444444  0.444444  0.250000      2.000000
 -0.333333  0.444444  0.250000      2.000000
 -0.222222  0.444444  0.250000      2.000000
 -0.111111  0.444444  0.250000      2.000000
  0.000000 -0.444444  0.250000      2.000000
  0.111111 -0.444444  0.250000      2.000000
  0.222222 -0.444444  0.250000      2.000000
  0.333333 -0.444444  0.250000      2.000000
  0.444444 -0.444444  0.250000      2.000000
 -0.444444 -0.444444  0.250000      2.000000
 -0.333333 -0.444444  0.250000      2.000000
 -0.222222 -0.444444  0.250000      2.000000
 -0.111111 -0.444444  0.250000      2.000000
  0.000000 -0.333333  0.250000      2.000000
  0.111111 -0.333333  0.250000      2.000000
  0.222222 -0.333333  0.250000      2.000000
  0.333333 -0.333333  0.250000      2.000000
  0.444444 -0.333333  0.250000      2.000000
 -0.444444 -0.333333  0.250000      2.000000
 -0.333333 -0.333333  0.250000      2.000000
 -0.222222 -0.333333  0.250000      2.000000
 -0.111111 -0.333333  0.250000      2.000000
  0.000000 -0.222222  0.250000      2.000000
  0.111111 -0.222222  0.250000      2.000000
  0.222222 -0.222222  0.250000      2.000000
  0.333333 -0.222222  0.250000      2.000000
  0.444444 -0.222222  0.250000      2.000000
 -0.444444 -0.222222  0.250000      2.000000
 -0.333333 -0.222222  0.250000      2.000000
 -0.222222 -0.222222  0.250000      2.000000
 -0.111111 -0.222222  0.250000      2.000000
  0.000000 -0.111111  0.250000      2.000000
  0.111111 -0.111111  0.250000      2.000000
  0.222222 -0.111111  0.250000      2.000000
  0.333333 -0.111111  0.250000      2.000000
  0.444444 -0.111111  0.250000      2.000000
 -0.444444 -0.111111  0.250000      2.000000
 -0.333333 -0.111111  0.250000      2.000000
 -0.222222 -0.111111  0.250000      2.000000
 -0.111111 -0.111111  0.250000      2.000000
  0.000000  0.000000  0.500000      1.000000
  0.111111 -0.000000  0.500000      2.000000
  0.222222 -0.000000  0.500000      2.000000
  0.333333  0.000000  0.500000      2.000000
  0.444444 -0.000000  0.500000      2.000000
 -0.000000  0.111111  0.500000      2.000000
  0.111111  0.111111  0.500000      2.000000
  0.222222  0.111111  0.500000      2.000000
  0.333333  0.111111  0.500000      2.000000
  0.444444  0.111111  0.500000      2.000000
 -0.444444  0.111111  0.500000      2.000000
 -0.333333  0.111111  0.500000      2.000000
 -0.222222  0.111111  0.500000      2.000000
 -0.111111  0.111111  0.500000      2.000000
 -0.000000  0.222222  0.500000      2.000000
  0.111111  0.222222  0.500000      2.000000
  0.222222  0.222222  0.500000      2.000000
  0.333333  0.222222  0.500000      2.000000
  0.444444  0.222222  0.500000      2.000000
 -0.444444  0.222222  0.500000      2.000000
 -0.333333  0.222222  0.500000      2.000000
 -0.222222  0.222222  0.500000      2.000000
 -0.111111  0.222222  0.500000      2.000000
 -0.000000  0.333333  0.500000      2.000000
  0.111111  0.333333  0.500000      2.000000
  0.222222  0.333333  0.500000      2.000000
  0.333333  0.333333  0.500000      2.000000
  0.444444  0.333333  0.500000      2.000000
 -0.444444  0.333333  0.500000      2.000000
 -0.333333  0.333333  0.500000      2.000000
 -0.222222  0.333333  0.500000      2.000000
 -0.111111  0.333333  0.500000      2.000000
 -0.000000  0.444444  0.500000      2.000000
  0.111111  0.444444  0.500000      2.000000
  0.222222  0.444444  0.500000      2.000000
  0.333333  0.444444  0.500000      2.000000
  0.444444  0.444444  0.500000      2.000000
 -0.444444  0.444444  0.500000      2.000000
 -0.333333  0.444444  0.500000      2.000000
 -0.222222  0.444444  0.500000      2.000000
 -0.111111  0.444444  0.500000      2.000000
 
 Following cartesian coordinates:
            Coordinates               Weight
  0.000000  0.000000  0.000000      1.000000
  0.022530  0.013019  0.000000      2.000000
  0.045059  0.026038  0.000000      2.000000
  0.067589  0.039058  0.000000      2.000000
  0.090119  0.052077  0.000000      2.000000
  0.000010  0.026021  0.000000      2.000000
  0.022540  0.039040  0.000000      2.000000
  0.045069  0.052059  0.000000      2.000000
  0.067599  0.065079  0.000000      2.000000
  0.090129  0.078098  0.000000      2.000000
 -0.090109 -0.026056  0.000000      2.000000
 -0.067579 -0.013037  0.000000      2.000000
 -0.045049 -0.000018  0.000000      2.000000
 -0.022520  0.013002  0.000000      2.000000
  0.000020  0.052042  0.000000      2.000000
  0.022550  0.065061  0.000000      2.000000
  0.045080  0.078080  0.000000      2.000000
  0.067609  0.091099  0.000000      2.000000
  0.090139  0.104119  0.000000      2.000000
 -0.090098 -0.000035  0.000000      2.000000
 -0.067569  0.012984  0.000000      2.000000
 -0.045039  0.026003  0.000000      2.000000
 -0.022509  0.039023  0.000000      2.000000
  0.000030  0.078063  0.000000      2.000000
  0.022560  0.091082  0.000000      2.000000
  0.045090  0.104101  0.000000      2.000000
  0.067619  0.117120  0.000000      2.000000
  0.090149  0.130139  0.000000      2.000000
 -0.090088  0.025986  0.000000      2.000000
 -0.067559  0.039005  0.000000      2.000000
 -0.045029  0.052024  0.000000      2.000000
 -0.022499  0.065043  0.000000      2.000000
  0.000040  0.104084  0.000000      2.000000
  0.022570  0.117103  0.000000      2.000000
  0.045100  0.130122  0.000000      2.000000
  0.067630  0.143141  0.000000      2.000000
  0.090159  0.156160  0.000000      2.000000
 -0.090078  0.052007  0.000000      2.000000
 -0.067549  0.065026  0.000000      2.000000
 -0.045019  0.078045  0.000000      2.000000
 -0.022489  0.091064  0.000000      2.000000
  0.000000  0.000000  0.019233      2.000000
  0.022530  0.013019  0.019233      2.000000
  0.045059  0.026038  0.019233      2.000000
  0.067589  0.039058  0.019233      2.000000
  0.090119  0.052077  0.019233      2.000000
 -0.090119 -0.052077  0.019233      2.000000
 -0.067589 -0.039058  0.019233      2.000000
 -0.045059 -0.026038  0.019233      2.000000
 -0.022530 -0.013019  0.019233      2.000000
  0.000010  0.026021  0.019233      2.000000
  0.022540  0.039040  0.019233      2.000000
  0.045069  0.052059  0.019233      2.000000
  0.067599  0.065079  0.019233      2.000000
  0.090129  0.078098  0.019233      2.000000
 -0.090109 -0.026056  0.019233      2.000000
 -0.067579 -0.013037  0.019233      2.000000
 -0.045049 -0.000018  0.019233      2.000000
 -0.022520  0.013002  0.019233      2.000000
  0.000020  0.052042  0.019233      2.000000
  0.022550  0.065061  0.019233      2.000000
  0.045080  0.078080  0.019233      2.000000
  0.067609  0.091099  0.019233      2.000000
  0.090139  0.104119  0.019233      2.000000
 -0.090098 -0.000035  0.019233      2.000000
 -0.067569  0.012984  0.019233      2.000000
 -0.045039  0.026003  0.019233      2.000000
 -0.022509  0.039023  0.019233      2.000000
  0.000030  0.078063  0.019233      2.000000
  0.022560  0.091082  0.019233      2.000000
  0.045090  0.104101  0.019233      2.000000
  0.067619  0.117120  0.019233      2.000000
  0.090149  0.130139  0.019233      2.000000
 -0.090088  0.025986  0.019233      2.000000
 -0.067559  0.039005  0.019233      2.000000
 -0.045029  0.052024  0.019233      2.000000
 -0.022499  0.065043  0.019233      2.000000
  0.000040  0.104084  0.019233      2.000000
  0.022570  0.117103  0.019233      2.000000
  0.045100  0.130122  0.019233      2.000000
  0.067630  0.143141  0.019233      2.000000
  0.090159  0.156160  0.019233      2.000000
 -0.090078  0.052007  0.019233      2.000000
 -0.067549  0.065026  0.019233      2.000000
 -0.045019  0.078045  0.019233      2.000000
 -0.022489  0.091064  0.019233      2.000000
 -0.000040 -0.104084  0.019233      2.000000
  0.022489 -0.091064  0.019233      2.000000
  0.045019 -0.078045  0.019233      2.000000
  0.067549 -0.065026  0.019233      2.000000
  0.090078 -0.052007  0.019233      2.000000
 -0.090159 -0.156160  0.019233      2.000000
 -0.067630 -0.143141  0.019233      2.000000
 -0.045100 -0.130122  0.019233      2.000000
 -0.022570 -0.117103  0.019233      2.000000
 -0.000030 -0.078063  0.019233      2.000000
  0.022499 -0.065043  0.019233      2.000000
  0.045029 -0.052024  0.019233      2.000000
  0.067559 -0.039005  0.019233      2.000000
  0.090088 -0.025986  0.019233      2.000000
 -0.090149 -0.130139  0.019233      2.000000
 -0.067619 -0.117120  0.019233      2.000000
 -0.045090 -0.104101  0.019233      2.000000
 -0.022560 -0.091082  0.019233      2.000000
 -0.000020 -0.052042  0.019233      2.000000
  0.022509 -0.039023  0.019233      2.000000
  0.045039 -0.026003  0.019233      2.000000
  0.067569 -0.012984  0.019233      2.000000
  0.090098  0.000035  0.019233      2.000000
 -0.090139 -0.104119  0.019233      2.000000
 -0.067609 -0.091099  0.019233      2.000000
 -0.045080 -0.078080  0.019233      2.000000
 -0.022550 -0.065061  0.019233      2.000000
 -0.000010 -0.026021  0.019233      2.000000
  0.022520 -0.013002  0.019233      2.000000
  0.045049  0.000018  0.019233      2.000000
  0.067579  0.013037  0.019233      2.000000
  0.090109  0.026056  0.019233      2.000000
 -0.090129 -0.078098  0.019233      2.000000
 -0.067599 -0.065079  0.019233      2.000000
 -0.045069 -0.052059  0.019233      2.000000
 -0.022540 -0.039040  0.019233      2.000000
  0.000000  0.000000  0.038467      1.000000
  0.022530  0.013019  0.038467      2.000000
  0.045059  0.026038  0.038467      2.000000
  0.067589  0.039058  0.038467      2.000000
  0.090119  0.052077  0.038467      2.000000
  0.000010  0.026021  0.038467      2.000000
  0.022540  0.039040  0.038467      2.000000
  0.045069  0.052059  0.038467      2.000000
  0.067599  0.065079  0.038467      2.000000
  0.090129  0.078098  0.038467      2.000000
 -0.090109 -0.026056  0.038467      2.000000
 -0.067579 -0.013037  0.038467      2.000000
 -0.045049 -0.000018  0.038467      2.000000
 -0.022520  0.013002  0.038467      2.000000
  0.000020  0.052042  0.038467      2.000000
  0.022550  0.065061  0.038467      2.000000
  0.045080  0.078080  0.038467      2.000000
  0.067609  0.091099  0.038467      2.000000
  0.090139  0.104119  0.038467      2.000000
 -0.090098 -0.000035  0.038467      2.000000
 -0.067569  0.012984  0.038467      2.000000
 -0.045039  0.026003  0.038467      2.000000
 -0.022509  0.039023  0.038467      2.000000
  0.000030  0.078063  0.038467      2.000000
  0.022560  0.091082  0.038467      2.000000
  0.045090  0.104101  0.038467      2.000000
  0.067619  0.117120  0.038467      2.000000
  0.090149  0.130139  0.038467      2.000000
 -0.090088  0.025986  0.038467      2.000000
 -0.067559  0.039005  0.038467      2.000000
 -0.045029  0.052024  0.038467      2.000000
 -0.022499  0.065043  0.038467      2.000000
  0.000040  0.104084  0.038467      2.000000
  0.022570  0.117103  0.038467      2.000000
  0.045100  0.130122  0.038467      2.000000
  0.067630  0.143141  0.038467      2.000000
  0.090159  0.156160  0.038467      2.000000
 -0.090078  0.052007  0.038467      2.000000
 -0.067549  0.065026  0.038467      2.000000
 -0.045019  0.078045  0.038467      2.000000
 -0.022489  0.091064  0.038467      2.000000
 
 TETIRR: Found    970 inequivalent tetrahedra from     1944


--------------------------------------------------------------------------------------------------------




 Dimension of arrays:
   k-points           NKPTS =    163   k-points in BZ     NKDIM =    163   number of bands    NBANDS=     84
   number of dos      NEDOS =    301   number of ions     NIONS =     32
   non local maximal  LDIM  =      4   non local SUM 2l+1 LMDIM =      8
   total plane-waves  NPLWV = 172800
   max r-space proj   IRMAX =      1   max aug-charges    IRDMAX=   7647
   dimension x,y,z NGX =    40 NGY =   40 NGZ =  108
   dimension x,y,z NGXF=    80 NGYF=   80 NGZF=  216
   support grid    NGXF=    80 NGYF=   80 NGZF=  216
   ions per type =              32
 NGX,Y,Z   is equivalent  to a cutoff of  13.48, 13.48, 13.81 a.u.
 NGXF,Y,Z  is equivalent  to a cutoff of  26.96, 26.96, 27.63 a.u.


 I would recommend the setting:
   dimension x,y,z NGX =    39 NGY =   39 NGZ =  104
 SYSTEM =  graphite                                
 POSCAR =  C                                       

 Startparameter for this run:
   NWRITE =      2    write-flag & timer
   PREC   = accura    normal or accurate (medium, high low for compatibility)
   ISTART =      0    job   : 0-new  1-cont  2-samecut
   ICHARG =      2    charge: 1-file 2-atom 10-const
   ISPIN  =      1    spin polarized calculation?
   LNONCOLLINEAR =      F non collinear calculations
   LSORBIT =      F    spin-orbit coupling
   INIWAV =      1    electr: 0-lowe 1-rand  2-diag
   LASPH  =      F    aspherical Exc in radial PAW
   METAGGA=      F    non-selfconsistent MetaGGA calc.

 Electronic Relaxation 1
   ENCUT  =  600.0 eV  44.10 Ry    6.64 a.u.   9.85  9.85 25.96*2*pi/ulx,y,z
   ENINI  =  600.0     initial cutoff
   ENAUG  =  644.9 eV  augmentation charge cutoff
   NELM   =    200;   NELMIN=  2; NELMDL=  0     # of ELM steps 
   EDIFF  = 0.1E-05   stopping-criterion for ELM
   LREAL  =      F    real-space projection
   NLSPLINE    = F    spline interpolate recip. space projectors
   LCOMPAT=      F    compatible to vasp.4.4
   GGA_COMPAT  = T    GGA compatible to vasp.4.4-vasp.4.6
   LMAXPAW     = -100 max onsite density
   LMAXMIX     =    2 max onsite mixed and CHGCAR
   VOSKOWN=      0    Vosko Wilk Nusair interpolation
   ROPT   =    0.00000
 Ionic relaxation
   EDIFFG = 0.1E-02   stopping-criterion for IOM
   NSW    =      0    number of steps for IOM
   NBLOCK =      1;   KBLOCK =      1    inner block; outer block 
   IBRION =     -1    ionic relax: 0-MD 1-quasi-New 2-CG
   NFREE  =      0    steps in history (QN), initial steepest desc. (CG)
   ISIF   =      2    stress and relaxation
   IWAVPR =     10    prediction:  0-non 1-charg 2-wave 3-comb
   ISYM   =      2    0-nonsym 1-usesym 2-fastsym
   LCORR  =      T    Harris-Foulkes like correction to forces

   POTIM  = 0.5000    time-step for ionic-motion
   TEIN   =    0.0    initial temperature
   TEBEG  =    0.0;   TEEND  =   0.0 temperature during run
   SMASS  =  -3.00    Nose mass-parameter (am)
   estimated Nose-frequenzy (Omega)   =  0.10E-29 period in steps =****** mass=  -0.556E-27a.u.
   SCALEE = 1.0000    scale energy and forces
   NPACO  =    256;   APACO  = 16.0  distance and # of slots for P.C.
   PSTRESS=    0.0 pullay stress

  Mass of Ions in am
   POMASS =  12.01
  Ionic Valenz
   ZVAL   =   4.00
  Atomic Wigner-Seitz radii
   RWIGS  =  -1.00
  virtual crystal weights 
   VCA    =   1.00
   NELECT =     128.0000    total number of electrons
   NUPDOWN=      -1.0000    fix difference up-down

 DOS related values:
   EMIN   =  10.00;   EMAX   =-10.00  energy-range for DOS
   EFERMI =   0.00
   ISMEAR =    -5;   SIGMA  =   0.20  broadening in eV -4-tet -1-fermi 0-gaus

 Electronic relaxation 2 (details)
   IALGO  =     38    algorithm
   LDIAG  =      T    sub-space diagonalisation (order eigenvalues)
   LSUBROT=      F    optimize rotation matrix (better conditioning)
   TURBO    =      0    0=normal 1=particle mesh
   IRESTART =      0    0=no restart 2=restart with 2 vectors
   NREBOOT  =      0    no. of reboots
   NMIN     =      0    reboot dimension
   EREF     =   0.00    reference energy to select bands
   IMIX   =      4    mixing-type and parameters
     AMIX     =   0.40;   BMIX     =  1.00
     AMIX_MAG =   1.60;   BMIX_MAG =  1.00
     AMIN     =   0.10
     WC   =   100.;   INIMIX=   1;  MIXPRE=   1;  MAXMIX= -45

 Intra band minimization:
   WEIMIN = 0.0000     energy-eigenvalue tresh-hold
   EBREAK =  0.30E-08  absolut break condition
   DEPER  =   0.30     relativ break condition  

   TIME   =   0.40     timestep for ELM

  volume/ion in A,a.u.               =       8.56        57.74
  Fermi-wavevector in a.u.,A,eV,Ry     =   1.270588  2.401064 21.965176  1.614395
  Thomas-Fermi vector in A             =   2.403568
 
 Write flags
   LWAVE  =      F    write WAVECAR
   LCHARG =      F    write CHGCAR
   LVTOT  =      F    write LOCPOT, total local potential
   LVHAR  =      F    write LOCPOT, Hartree potential only
   LELF   =      F    write electronic localiz. function (ELF)
   LORBIT =      0    0 simple, 1 ext, 2 COOP (PROOUT)


 Dipole corrections
   LMONO  =      F    monopole corrections only (constant potential shift)
   LDIPOL =      F    correct potential (dipole corrections)
   IDIPOL =      0    1-x, 2-y, 3-z, 4-all directions 
   EPSILON=  1.0000000 bulk dielectric constant

 Exchange correlation treatment:
   GGA     =    PE    GGA type
   LEXCH   =     8    internal setting for exchange type
   VOSKOWN=      0    Vosko Wilk Nusair interpolation
   LHFCALC =     F    Hartree Fock is set to
   LHFONE  =     F    Hartree Fock one center treatment
   AEXX    =    0.0000 exact exchange contribution

 Linear response parameters
   LEPSILON=     F    determine dielectric tensor
   LRPA    =     F    only Hartree local field effects (RPA)
   LNABLA  =     F    use nabla operator in PAW spheres
   LVEL    =     F    velocity operator in full k-point grid
   LINTERFAST=   F  fast interpolation
   KINTER  =     0    interpolate to denser k-point grid
   CSHIFT  =0.1000    complex shift for real part using Kramers Kronig
   OMEGAMAX=  -1.0    maximum frequency
   DEG_THRESHOLD= 0.2000000E-02 threshold for treating states as degnerate
   RTIME   =    0.100 relaxation time in fs

 Orbital magnetization related:
   ORBITALMAG=     F  switch on orbital magnetization
   LCHIMAG   =     F  perturbation theory with respect to B field
   DQ        =  0.001000  dq finite difference perturbation B field



--------------------------------------------------------------------------------------------------------


 Static calculation
 charge density and potential will be updated during run
 non-spin polarized calculation
 Variant of blocked Davidson
 Davidson routine will perform the subspace rotation
 perform sub-space diagonalisation
    after iterative eigenvector-optimisation
 modified Broyden-mixing scheme, WC =      100.0
 initial mixing is a Kerker type mixing with AMIX =  0.4000 and BMIX =      1.0000
 Hartree-type preconditioning will be used
 using additional bands           20
 reciprocal scheme for non local part
 calculate Harris-corrections to forces 
   (improved forces if not selfconsistent)
 use gradient corrections 
 use of overlap-Matrix (Vanderbilt PP)
 Fermi weights with tetrahedron method with Bloechl corrections


--------------------------------------------------------------------------------------------------------


  energy-cutoff  :      600.00
  volume of cell :      273.79
      direct lattice vectors                 reciprocal lattice vectors
     4.932874498 -0.001919286  0.000000000     0.202767147  0.117172881  0.000000000
    -2.468099399  4.271034986  0.000000000     0.000091118  0.234187941  0.000000000
     0.000000000  0.000000000 12.998231427     0.000000000  0.000000000  0.076933543

  length of vectors
     4.932874871  4.932874871 12.998231427     0.234187958  0.234187958  0.076933543


 
 k-points in units of 2pi/SCALE and weight: B4C B11C-CBC                            
   0.00000000  0.00000000  0.00000000       0.003
   0.02252968  0.01301921  0.00000000       0.006
   0.04505937  0.02603842  0.00000000       0.006
   0.06758905  0.03905763  0.00000000       0.006
   0.09011873  0.05207684  0.00000000       0.006
   0.00001012  0.02602088  0.00000000       0.006
   0.02253981  0.03904009  0.00000000       0.006
   0.04506949  0.05205930  0.00000000       0.006
   0.06759917  0.06507851  0.00000000       0.006
   0.09012886  0.07809772  0.00000000       0.006
  -0.09010861 -0.02605595  0.00000000       0.006
  -0.06757892 -0.01303674  0.00000000       0.006
  -0.04504924 -0.00001754  0.00000000       0.006
  -0.02251956  0.01300167  0.00000000       0.006
   0.00002025  0.05204176  0.00000000       0.006
   0.02254993  0.06506097  0.00000000       0.006
   0.04507961  0.07808018  0.00000000       0.006
   0.06760930  0.09109939  0.00000000       0.006
   0.09013898  0.10411860  0.00000000       0.006
  -0.09009848 -0.00003507  0.00000000       0.006
  -0.06756880  0.01298414  0.00000000       0.006
  -0.04503912  0.02600335  0.00000000       0.006
  -0.02250943  0.03902256  0.00000000       0.006
   0.00003037  0.07806265  0.00000000       0.006
   0.02256006  0.09108186  0.00000000       0.006
   0.04508974  0.10410106  0.00000000       0.006
   0.06761942  0.11712027  0.00000000       0.006
   0.09014910  0.13013948  0.00000000       0.006
  -0.09008836  0.02598581  0.00000000       0.006
  -0.06755868  0.03900502  0.00000000       0.006
  -0.04502899  0.05202423  0.00000000       0.006
  -0.02249931  0.06504344  0.00000000       0.006
   0.00004050  0.10408353  0.00000000       0.006
   0.02257018  0.11710274  0.00000000       0.006
   0.04509986  0.13012195  0.00000000       0.006
   0.06762955  0.14314116  0.00000000       0.006
   0.09015923  0.15616037  0.00000000       0.006
  -0.09007824  0.05200669  0.00000000       0.006
  -0.06754855  0.06502590  0.00000000       0.006
  -0.04501887  0.07804511  0.00000000       0.006
  -0.02248919  0.09106432  0.00000000       0.006
   0.00000000  0.00000000  0.01923339       0.006
   0.02252968  0.01301921  0.01923339       0.006
   0.04505937  0.02603842  0.01923339       0.006
   0.06758905  0.03905763  0.01923339       0.006
   0.09011873  0.05207684  0.01923339       0.006
  -0.09011873 -0.05207684  0.01923339       0.006
  -0.06758905 -0.03905763  0.01923339       0.006
  -0.04505937 -0.02603842  0.01923339       0.006
  -0.02252968 -0.01301921  0.01923339       0.006
   0.00001012  0.02602088  0.01923339       0.006
   0.02253981  0.03904009  0.01923339       0.006
   0.04506949  0.05205930  0.01923339       0.006
   0.06759917  0.06507851  0.01923339       0.006
   0.09012886  0.07809772  0.01923339       0.006
  -0.09010861 -0.02605595  0.01923339       0.006
  -0.06757892 -0.01303674  0.01923339       0.006
  -0.04504924 -0.00001754  0.01923339       0.006
  -0.02251956  0.01300167  0.01923339       0.006
   0.00002025  0.05204176  0.01923339       0.006
   0.02254993  0.06506097  0.01923339       0.006
   0.04507961  0.07808018  0.01923339       0.006
   0.06760930  0.09109939  0.01923339       0.006
   0.09013898  0.10411860  0.01923339       0.006
  -0.09009848 -0.00003507  0.01923339       0.006
  -0.06756880  0.01298414  0.01923339       0.006
  -0.04503912  0.02600335  0.01923339       0.006
  -0.02250943  0.03902256  0.01923339       0.006
   0.00003037  0.07806265  0.01923339       0.006
   0.02256006  0.09108186  0.01923339       0.006
   0.04508974  0.10410106  0.01923339       0.006
   0.06761942  0.11712027  0.01923339       0.006
   0.09014910  0.13013948  0.01923339       0.006
  -0.09008836  0.02598581  0.01923339       0.006
  -0.06755868  0.03900502  0.01923339       0.006
  -0.04502899  0.05202423  0.01923339       0.006
  -0.02249931  0.06504344  0.01923339       0.006
   0.00004050  0.10408353  0.01923339       0.006
   0.02257018  0.11710274  0.01923339       0.006
   0.04509986  0.13012195  0.01923339       0.006
   0.06762955  0.14314116  0.01923339       0.006
   0.09015923  0.15616037  0.01923339       0.006
  -0.09007824  0.05200669  0.01923339       0.006
  -0.06754855  0.06502590  0.01923339       0.006
  -0.04501887  0.07804511  0.01923339       0.006
  -0.02248919  0.09106432  0.01923339       0.006
  -0.00004050 -0.10408353  0.01923339       0.006
   0.02248919 -0.09106432  0.01923339       0.006
   0.04501887 -0.07804511  0.01923339       0.006
   0.06754855 -0.06502590  0.01923339       0.006
   0.09007824 -0.05200669  0.01923339       0.006
  -0.09015923 -0.15616037  0.01923339       0.006
  -0.06762955 -0.14314116  0.01923339       0.006
  -0.04509986 -0.13012195  0.01923339       0.006
  -0.02257018 -0.11710274  0.01923339       0.006
  -0.00003037 -0.07806265  0.01923339       0.006
   0.02249931 -0.06504344  0.01923339       0.006
   0.04502899 -0.05202423  0.01923339       0.006
   0.06755868 -0.03900502  0.01923339       0.006
   0.09008836 -0.02598581  0.01923339       0.006
  -0.09014910 -0.13013948  0.01923339       0.006
  -0.06761942 -0.11712027  0.01923339       0.006
  -0.04508974 -0.10410106  0.01923339       0.006
  -0.02256006 -0.09108186  0.01923339       0.006
  -0.00002025 -0.05204176  0.01923339       0.006
   0.02250943 -0.03902256  0.01923339       0.006
   0.04503912 -0.02600335  0.01923339       0.006
   0.06756880 -0.01298414  0.01923339       0.006
   0.09009848  0.00003507  0.01923339       0.006
  -0.09013898 -0.10411860  0.01923339       0.006
  -0.06760930 -0.09109939  0.01923339       0.006
  -0.04507961 -0.07808018  0.01923339       0.006
  -0.02254993 -0.06506097  0.01923339       0.006
  -0.00001012 -0.02602088  0.01923339       0.006
   0.02251956 -0.01300167  0.01923339       0.006
   0.04504924  0.00001754  0.01923339       0.006
   0.06757892  0.01303674  0.01923339       0.006
   0.09010861  0.02605595  0.01923339       0.006
  -0.09012886 -0.07809772  0.01923339       0.006
  -0.06759917 -0.06507851  0.01923339       0.006
  -0.04506949 -0.05205930  0.01923339       0.006
  -0.02253981 -0.03904009  0.01923339       0.006
   0.00000000  0.00000000  0.03846677       0.003
   0.02252968  0.01301921  0.03846677       0.006
   0.04505937  0.02603842  0.03846677       0.006
   0.06758905  0.03905763  0.03846677       0.006
   0.09011873  0.05207684  0.03846677       0.006
   0.00001012  0.02602088  0.03846677       0.006
   0.02253981  0.03904009  0.03846677       0.006
   0.04506949  0.05205930  0.03846677       0.006
   0.06759917  0.06507851  0.03846677       0.006
   0.09012886  0.07809772  0.03846677       0.006
  -0.09010861 -0.02605595  0.03846677       0.006
  -0.06757892 -0.01303674  0.03846677       0.006
  -0.04504924 -0.00001754  0.03846677       0.006
  -0.02251956  0.01300167  0.03846677       0.006
   0.00002025  0.05204176  0.03846677       0.006
   0.02254993  0.06506097  0.03846677       0.006
   0.04507961  0.07808018  0.03846677       0.006
   0.06760930  0.09109939  0.03846677       0.006
   0.09013898  0.10411860  0.03846677       0.006
  -0.09009848 -0.00003507  0.03846677       0.006
  -0.06756880  0.01298414  0.03846677       0.006
  -0.04503912  0.02600335  0.03846677       0.006
  -0.02250943  0.03902256  0.03846677       0.006
   0.00003037  0.07806265  0.03846677       0.006
   0.02256006  0.09108186  0.03846677       0.006
   0.04508974  0.10410106  0.03846677       0.006
   0.06761942  0.11712027  0.03846677       0.006
   0.09014910  0.13013948  0.03846677       0.006
  -0.09008836  0.02598581  0.03846677       0.006
  -0.06755868  0.03900502  0.03846677       0.006
  -0.04502899  0.05202423  0.03846677       0.006
  -0.02249931  0.06504344  0.03846677       0.006
   0.00004050  0.10408353  0.03846677       0.006
   0.02257018  0.11710274  0.03846677       0.006
   0.04509986  0.13012195  0.03846677       0.006
   0.06762955  0.14314116  0.03846677       0.006
   0.09015923  0.15616037  0.03846677       0.006
  -0.09007824  0.05200669  0.03846677       0.006
  -0.06754855  0.06502590  0.03846677       0.006
  -0.04501887  0.07804511  0.03846677       0.006
  -0.02248919  0.09106432  0.03846677       0.006
 
 k-points in reciprocal lattice and weights: B4C B11C-CBC                            
   0.00000000  0.00000000  0.00000000       0.003
   0.11111111 -0.00000000  0.00000000       0.006
   0.22222222 -0.00000000  0.00000000       0.006
   0.33333333  0.00000000  0.00000000       0.006
   0.44444444 -0.00000000  0.00000000       0.006
  -0.00000000  0.11111111  0.00000000       0.006
   0.11111111  0.11111111  0.00000000       0.006
   0.22222222  0.11111111  0.00000000       0.006
   0.33333333  0.11111111  0.00000000       0.006
   0.44444444  0.11111111  0.00000000       0.006
  -0.44444444  0.11111111  0.00000000       0.006
  -0.33333333  0.11111111  0.00000000       0.006
  -0.22222222  0.11111111  0.00000000       0.006
  -0.11111111  0.11111111  0.00000000       0.006
  -0.00000000  0.22222222  0.00000000       0.006
   0.11111111  0.22222222  0.00000000       0.006
   0.22222222  0.22222222  0.00000000       0.006
   0.33333333  0.22222222  0.00000000       0.006
   0.44444444  0.22222222  0.00000000       0.006
  -0.44444444  0.22222222  0.00000000       0.006
  -0.33333333  0.22222222  0.00000000       0.006
  -0.22222222  0.22222222  0.00000000       0.006
  -0.11111111  0.22222222  0.00000000       0.006
  -0.00000000  0.33333333  0.00000000       0.006
   0.11111111  0.33333333  0.00000000       0.006
   0.22222222  0.33333333  0.00000000       0.006
   0.33333333  0.33333333  0.00000000       0.006
   0.44444444  0.33333333  0.00000000       0.006
  -0.44444444  0.33333333  0.00000000       0.006
  -0.33333333  0.33333333  0.00000000       0.006
  -0.22222222  0.33333333  0.00000000       0.006
  -0.11111111  0.33333333  0.00000000       0.006
  -0.00000000  0.44444444  0.00000000       0.006
   0.11111111  0.44444444  0.00000000       0.006
   0.22222222  0.44444444  0.00000000       0.006
   0.33333333  0.44444444  0.00000000       0.006
   0.44444444  0.44444444  0.00000000       0.006
  -0.44444444  0.44444444  0.00000000       0.006
  -0.33333333  0.44444444  0.00000000       0.006
  -0.22222222  0.44444444  0.00000000       0.006
  -0.11111111  0.44444444  0.00000000       0.006
   0.00000000  0.00000000  0.25000000       0.006
   0.11111111 -0.00000000  0.25000000       0.006
   0.22222222 -0.00000000  0.25000000       0.006
   0.33333333  0.00000000  0.25000000       0.006
   0.44444444 -0.00000000  0.25000000       0.006
  -0.44444444  0.00000000  0.25000000       0.006
  -0.33333333  0.00000000  0.25000000       0.006
  -0.22222222  0.00000000  0.25000000       0.006
  -0.11111111  0.00000000  0.25000000       0.006
  -0.00000000  0.11111111  0.25000000       0.006
   0.11111111  0.11111111  0.25000000       0.006
   0.22222222  0.11111111  0.25000000       0.006
   0.33333333  0.11111111  0.25000000       0.006
   0.44444444  0.11111111  0.25000000       0.006
  -0.44444444  0.11111111  0.25000000       0.006
  -0.33333333  0.11111111  0.25000000       0.006
  -0.22222222  0.11111111  0.25000000       0.006
  -0.11111111  0.11111111  0.25000000       0.006
  -0.00000000  0.22222222  0.25000000       0.006
   0.11111111  0.22222222  0.25000000       0.006
   0.22222222  0.22222222  0.25000000       0.006
   0.33333333  0.22222222  0.25000000       0.006
   0.44444444  0.22222222  0.25000000       0.006
  -0.44444444  0.22222222  0.25000000       0.006
  -0.33333333  0.22222222  0.25000000       0.006
  -0.22222222  0.22222222  0.25000000       0.006
  -0.11111111  0.22222222  0.25000000       0.006
  -0.00000000  0.33333333  0.25000000       0.006
   0.11111111  0.33333333  0.25000000       0.006
   0.22222222  0.33333333  0.25000000       0.006
   0.33333333  0.33333333  0.25000000       0.006
   0.44444444  0.33333333  0.25000000       0.006
  -0.44444444  0.33333333  0.25000000       0.006
  -0.33333333  0.33333333  0.25000000       0.006
  -0.22222222  0.33333333  0.25000000       0.006
  -0.11111111  0.33333333  0.25000000       0.006
  -0.00000000  0.44444444  0.25000000       0.006
   0.11111111  0.44444444  0.25000000       0.006
   0.22222222  0.44444444  0.25000000       0.006
   0.33333333  0.44444444  0.25000000       0.006
   0.44444444  0.44444444  0.25000000       0.006
  -0.44444444  0.44444444  0.25000000       0.006
  -0.33333333  0.44444444  0.25000000       0.006
  -0.22222222  0.44444444  0.25000000       0.006
  -0.11111111  0.44444444  0.25000000       0.006
   0.00000000 -0.44444444  0.25000000       0.006
   0.11111111 -0.44444444  0.25000000       0.006
   0.22222222 -0.44444444  0.25000000       0.006
   0.33333333 -0.44444444  0.25000000       0.006
   0.44444444 -0.44444444  0.25000000       0.006
  -0.44444444 -0.44444444  0.25000000       0.006
  -0.33333333 -0.44444444  0.25000000       0.006
  -0.22222222 -0.44444444  0.25000000       0.006
  -0.11111111 -0.44444444  0.25000000       0.006
   0.00000000 -0.33333333  0.25000000       0.006
   0.11111111 -0.33333333  0.25000000       0.006
   0.22222222 -0.33333333  0.25000000       0.006
   0.33333333 -0.33333333  0.25000000       0.006
   0.44444444 -0.33333333  0.25000000       0.006
  -0.44444444 -0.33333333  0.25000000       0.006
  -0.33333333 -0.33333333  0.25000000       0.006
  -0.22222222 -0.33333333  0.25000000       0.006
  -0.11111111 -0.33333333  0.25000000       0.006
   0.00000000 -0.22222222  0.25000000       0.006
   0.11111111 -0.22222222  0.25000000       0.006
   0.22222222 -0.22222222  0.25000000       0.006
   0.33333333 -0.22222222  0.25000000       0.006
   0.44444444 -0.22222222  0.25000000       0.006
  -0.44444444 -0.22222222  0.25000000       0.006
  -0.33333333 -0.22222222  0.25000000       0.006
  -0.22222222 -0.22222222  0.25000000       0.006
  -0.11111111 -0.22222222  0.25000000       0.006
   0.00000000 -0.11111111  0.25000000       0.006
   0.11111111 -0.11111111  0.25000000       0.006
   0.22222222 -0.11111111  0.25000000       0.006
   0.33333333 -0.11111111  0.25000000       0.006
   0.44444444 -0.11111111  0.25000000       0.006
  -0.44444444 -0.11111111  0.25000000       0.006
  -0.33333333 -0.11111111  0.25000000       0.006
  -0.22222222 -0.11111111  0.25000000       0.006
  -0.11111111 -0.11111111  0.25000000       0.006
   0.00000000  0.00000000  0.50000000       0.003
   0.11111111 -0.00000000  0.50000000       0.006
   0.22222222 -0.00000000  0.50000000       0.006
   0.33333333  0.00000000  0.50000000       0.006
   0.44444444 -0.00000000  0.50000000       0.006
  -0.00000000  0.11111111  0.50000000       0.006
   0.11111111  0.11111111  0.50000000       0.006
   0.22222222  0.11111111  0.50000000       0.006
   0.33333333  0.11111111  0.50000000       0.006
   0.44444444  0.11111111  0.50000000       0.006
  -0.44444444  0.11111111  0.50000000       0.006
  -0.33333333  0.11111111  0.50000000       0.006
  -0.22222222  0.11111111  0.50000000       0.006
  -0.11111111  0.11111111  0.50000000       0.006
  -0.00000000  0.22222222  0.50000000       0.006
   0.11111111  0.22222222  0.50000000       0.006
   0.22222222  0.22222222  0.50000000       0.006
   0.33333333  0.22222222  0.50000000       0.006
   0.44444444  0.22222222  0.50000000       0.006
  -0.44444444  0.22222222  0.50000000       0.006
  -0.33333333  0.22222222  0.50000000       0.006
  -0.22222222  0.22222222  0.50000000       0.006
  -0.11111111  0.22222222  0.50000000       0.006
  -0.00000000  0.33333333  0.50000000       0.006
   0.11111111  0.33333333  0.50000000       0.006
   0.22222222  0.33333333  0.50000000       0.006
   0.33333333  0.33333333  0.50000000       0.006
   0.44444444  0.33333333  0.50000000       0.006
  -0.44444444  0.33333333  0.50000000       0.006
  -0.33333333  0.33333333  0.50000000       0.006
  -0.22222222  0.33333333  0.50000000       0.006
  -0.11111111  0.33333333  0.50000000       0.006
  -0.00000000  0.44444444  0.50000000       0.006
   0.11111111  0.44444444  0.50000000       0.006
   0.22222222  0.44444444  0.50000000       0.006
   0.33333333  0.44444444  0.50000000       0.006
   0.44444444  0.44444444  0.50000000       0.006
  -0.44444444  0.44444444  0.50000000       0.006
  -0.33333333  0.44444444  0.50000000       0.006
  -0.22222222  0.44444444  0.50000000       0.006
  -0.11111111  0.44444444  0.50000000       0.006
 
 position of ions in fractional coordinates (direct lattice) 
   0.49895402  0.00032672  0.12428072
   0.99967330  0.00032672  0.12500000
   0.49967330  0.50032672  0.12500000
   0.99967330  0.50032672  0.12500000
   0.49967330  0.00032672  0.62500000
   0.99967330  0.00032672  0.62500000
   0.49967330  0.50032672  0.62500000
   0.99967330  0.50032672  0.62500000
   0.00032672  0.49967330  0.37500000
   0.50032672  0.49967330  0.37500000
   0.00032672  0.99967330  0.37500000
   0.50032672  0.99967330  0.37500000
   0.00032672  0.49967330  0.87500000
   0.50032672  0.49967330  0.87500000
   0.00032672  0.99967330  0.87500000
   0.50032672  0.99967330  0.87500000
   0.16629246  0.33370753  0.12500000
   0.66629246  0.33370753  0.12500000
   0.16629246  0.83370753  0.12500000
   0.66629246  0.83370753  0.12500000
   0.16629246  0.33370753  0.62500000
   0.66629246  0.33370753  0.62500000
   0.16629246  0.83370753  0.62500000
   0.66629246  0.83370753  0.62500000
   0.33370753  0.16629246  0.37500000
   0.83370753  0.16629246  0.37500000
   0.33370753  0.66629246  0.37500000
   0.83370753  0.66629246  0.37500000
   0.33370753  0.16629246  0.87500000
   0.83370753  0.16629246  0.87500000
   0.33370753  0.66629246  0.87500000
   0.83370753  0.66629246  0.87500000
 
 position of ions in cartesian coordinates  (Angst):
   2.46047121  0.00043779  1.61542955
   4.93045658 -0.00052323  1.62477893
   1.22996963  2.13595390  1.62477893
   3.69640688  2.13499426  1.62477893
   2.46401933  0.00043641  8.12389464
   4.93045658 -0.00052323  8.12389464
   1.22996963  2.13595390  8.12389464
   3.69640688  2.13499426  8.12389464
  -1.23163172  2.13412154  4.87433679
   1.23480553  2.13316189  4.87433679
  -2.46568142  4.26963903  4.87433679
   0.00075583  4.26867939  4.87433679
  -1.23163172  2.13412154 11.37345250
   1.23480553  2.13316189 11.37345250
  -2.46568142  4.26963903 11.37345250
   0.00075583  4.26867939 11.37345250
  -0.00332350  1.42495737  1.62477893
   2.46311374  1.42399773  1.62477893
  -1.23737320  3.56047486  1.62477893
   1.22906405  3.55951522  1.62477893
  -0.00332350  1.42495737  8.12389464
   2.46311374  1.42399773  8.12389464
  -1.23737320  3.56047486  8.12389464
   1.22906405  3.55951522  8.12389464
   1.23571103  0.70960044  4.87433679
   3.70214828  0.70864080  4.87433679
   0.00166133  2.84511794  4.87433679
   2.46809858  2.84415829  4.87433679
   1.23571103  0.70960044 11.37345250
   3.70214828  0.70864080 11.37345250
   0.00166133  2.84511794 11.37345250
   2.46809858  2.84415829 11.37345250
 


--------------------------------------------------------------------------------------------------------


 k-point  1 :   0.0000 0.0000 0.0000  plane waves:    9067
 k-point  2 :   0.1111-0.0000 0.0000  plane waves:    9113
 k-point  3 :   0.2222-0.0000 0.0000  plane waves:    9127
 k-point  4 :   0.3333 0.0000 0.0000  plane waves:    9165
 k-point  5 :   0.4444-0.0000 0.0000  plane waves:    9171
 k-point  6 :  -0.0000 0.1111 0.0000  plane waves:    9113
 k-point  7 :   0.1111 0.1111 0.0000  plane waves:    9104
 k-point  8 :   0.2222 0.1111 0.0000  plane waves:    9128
 k-point  9 :   0.3333 0.1111 0.0000  plane waves:    9132
 k-point 10 :   0.4444 0.1111 0.0000  plane waves:    9154
 k-point 11 :  -0.4444 0.1111 0.0000  plane waves:    9138
 k-point 12 :  -0.3333 0.1111 0.0000  plane waves:    9130
 k-point 13 :  -0.2222 0.1111 0.0000  plane waves:    9108
 k-point 14 :  -0.1111 0.1111 0.0000  plane waves:    9113
 k-point 15 :  -0.0000 0.2222 0.0000  plane waves:    9127
 k-point 16 :   0.1111 0.2222 0.0000  plane waves:    9128
 k-point 17 :   0.2222 0.2222 0.0000  plane waves:    9136
 k-point 18 :   0.3333 0.2222 0.0000  plane waves:    9130
 k-point 19 :   0.4444 0.2222 0.0000  plane waves:    9128
 k-point 20 :  -0.4444 0.2222 0.0000  plane waves:    9128
 k-point 21 :  -0.3333 0.2222 0.0000  plane waves:    9130
 k-point 22 :  -0.2222 0.2222 0.0000  plane waves:    9133
 k-point 23 :  -0.1111 0.2222 0.0000  plane waves:    9108
 k-point 24 :  -0.0000 0.3333 0.0000  plane waves:    9165
 k-point 25 :   0.1111 0.3333 0.0000  plane waves:    9132
 k-point 26 :   0.2222 0.3333 0.0000  plane waves:    9130
 k-point 27 :   0.3333 0.3333 0.0000  plane waves:    9132
 k-point 28 :   0.4444 0.3333 0.0000  plane waves:    9134
 k-point 29 :  -0.4444 0.3333 0.0000  plane waves:    9132
 k-point 30 :  -0.3333 0.3333 0.0000  plane waves:    9165
 k-point 31 :  -0.2222 0.3333 0.0000  plane waves:    9130
 k-point 32 :  -0.1111 0.3333 0.0000  plane waves:    9130
 k-point 33 :  -0.0000 0.4444 0.0000  plane waves:    9171
 k-point 34 :   0.1111 0.4444 0.0000  plane waves:    9154
 k-point 35 :   0.2222 0.4444 0.0000  plane waves:    9128
 k-point 36 :   0.3333 0.4444 0.0000  plane waves:    9134
 k-point 37 :   0.4444 0.4444 0.0000  plane waves:    9148
 k-point 38 :  -0.4444 0.4444 0.0000  plane waves:    9171
 k-point 39 :  -0.3333 0.4444 0.0000  plane waves:    9132
 k-point 40 :  -0.2222 0.4444 0.0000  plane waves:    9128
 k-point 41 :  -0.1111 0.4444 0.0000  plane waves:    9138
 k-point 42 :   0.0000 0.0000 0.2500  plane waves:    9082
 k-point 43 :   0.1111-0.0000 0.2500  plane waves:    9120
 k-point 44 :   0.2222-0.0000 0.2500  plane waves:    9136
 k-point 45 :   0.3333 0.0000 0.2500  plane waves:    9152
 k-point 46 :   0.4444-0.0000 0.2500  plane waves:    9143
 k-point 47 :  -0.4444 0.0000 0.2500  plane waves:    9143
 k-point 48 :  -0.3333 0.0000 0.2500  plane waves:    9152
 k-point 49 :  -0.2222 0.0000 0.2500  plane waves:    9136
 k-point 50 :  -0.1111 0.0000 0.2500  plane waves:    9120
 k-point 51 :  -0.0000 0.1111 0.2500  plane waves:    9120
 k-point 52 :   0.1111 0.1111 0.2500  plane waves:    9110
 k-point 53 :   0.2222 0.1111 0.2500  plane waves:    9142
 k-point 54 :   0.3333 0.1111 0.2500  plane waves:    9144
 k-point 55 :   0.4444 0.1111 0.2500  plane waves:    9157
 k-point 56 :  -0.4444 0.1111 0.2500  plane waves:    9143
 k-point 57 :  -0.3333 0.1111 0.2500  plane waves:    9139
 k-point 58 :  -0.2222 0.1111 0.2500  plane waves:    9113
 k-point 59 :  -0.1111 0.1111 0.2500  plane waves:    9117
 k-point 60 :  -0.0000 0.2222 0.2500  plane waves:    9136
 k-point 61 :   0.1111 0.2222 0.2500  plane waves:    9142
 k-point 62 :   0.2222 0.2222 0.2500  plane waves:    9148
 k-point 63 :   0.3333 0.2222 0.2500  plane waves:    9134
 k-point 64 :   0.4444 0.2222 0.2500  plane waves:    9136
 k-point 65 :  -0.4444 0.2222 0.2500  plane waves:    9147
 k-point 66 :  -0.3333 0.2222 0.2500  plane waves:    9143
 k-point 67 :  -0.2222 0.2222 0.2500  plane waves:    9134
 k-point 68 :  -0.1111 0.2222 0.2500  plane waves:    9113
 k-point 69 :  -0.0000 0.3333 0.2500  plane waves:    9152
 k-point 70 :   0.1111 0.3333 0.2500  plane waves:    9144
 k-point 71 :   0.2222 0.3333 0.2500  plane waves:    9134
 k-point 72 :   0.3333 0.3333 0.2500  plane waves:    9145
 k-point 73 :   0.4444 0.3333 0.2500  plane waves:    9137
 k-point 74 :  -0.4444 0.3333 0.2500  plane waves:    9142
 k-point 75 :  -0.3333 0.3333 0.2500  plane waves:    9146
 k-point 76 :  -0.2222 0.3333 0.2500  plane waves:    9143
 k-point 77 :  -0.1111 0.3333 0.2500  plane waves:    9139
 k-point 78 :  -0.0000 0.4444 0.2500  plane waves:    9143
 k-point 79 :   0.1111 0.4444 0.2500  plane waves:    9157
 k-point 80 :   0.2222 0.4444 0.2500  plane waves:    9136
 k-point 81 :   0.3333 0.4444 0.2500  plane waves:    9137
 k-point 82 :   0.4444 0.4444 0.2500  plane waves:    9155
 k-point 83 :  -0.4444 0.4444 0.2500  plane waves:    9150
 k-point 84 :  -0.3333 0.4444 0.2500  plane waves:    9142
 k-point 85 :  -0.2222 0.4444 0.2500  plane waves:    9147
 k-point 86 :  -0.1111 0.4444 0.2500  plane waves:    9143
 k-point 87 :   0.0000-0.4444 0.2500  plane waves:    9143
 k-point 88 :   0.1111-0.4444 0.2500  plane waves:    9143
 k-point 89 :   0.2222-0.4444 0.2500  plane waves:    9147
 k-point 90 :   0.3333-0.4444 0.2500  plane waves:    9142
 k-point 91 :   0.4444-0.4444 0.2500  plane waves:    9150
 k-point 92 :  -0.4444-0.4444 0.2500  plane waves:    9155
 k-point 93 :  -0.3333-0.4444 0.2500  plane waves:    9137
 k-point 94 :  -0.2222-0.4444 0.2500  plane waves:    9136
 k-point 95 :  -0.1111-0.4444 0.2500  plane waves:    9157
 k-point 96 :   0.0000-0.3333 0.2500  plane waves:    9152
 k-point 97 :   0.1111-0.3333 0.2500  plane waves:    9139
 k-point 98 :   0.2222-0.3333 0.2500  plane waves:    9143
 k-point 99 :   0.3333-0.3333 0.2500  plane waves:    9146
 k-point ** :   0.4444-0.3333 0.2500  plane waves:    9142
 k-point ** :  -0.4444-0.3333 0.2500  plane waves:    9137
 k-point ** :  -0.3333-0.3333 0.2500  plane waves:    9145
 k-point ** :  -0.2222-0.3333 0.2500  plane waves:    9134
 k-point ** :  -0.1111-0.3333 0.2500  plane waves:    9144
 k-point ** :   0.0000-0.2222 0.2500  plane waves:    9136
 k-point ** :   0.1111-0.2222 0.2500  plane waves:    9113
 k-point ** :   0.2222-0.2222 0.2500  plane waves:    9134
 k-point ** :   0.3333-0.2222 0.2500  plane waves:    9143
 k-point ** :   0.4444-0.2222 0.2500  plane waves:    9147
 k-point ** :  -0.4444-0.2222 0.2500  plane waves:    9136
 k-point ** :  -0.3333-0.2222 0.2500  plane waves:    9134
 k-point ** :  -0.2222-0.2222 0.2500  plane waves:    9148
 k-point ** :  -0.1111-0.2222 0.2500  plane waves:    9142
 k-point ** :   0.0000-0.1111 0.2500  plane waves:    9120
 k-point ** :   0.1111-0.1111 0.2500  plane waves:    9117
 k-point ** :   0.2222-0.1111 0.2500  plane waves:    9113
 k-point ** :   0.3333-0.1111 0.2500  plane waves:    9139
 k-point ** :   0.4444-0.1111 0.2500  plane waves:    9143
 k-point ** :  -0.4444-0.1111 0.2500  plane waves:    9157
 k-point ** :  -0.3333-0.1111 0.2500  plane waves:    9144
 k-point ** :  -0.2222-0.1111 0.2500  plane waves:    9142
 k-point ** :  -0.1111-0.1111 0.2500  plane waves:    9110
 k-point ** :   0.0000 0.0000 0.5000  plane waves:    9092
 k-point ** :   0.1111-0.0000 0.5000  plane waves:    9098
 k-point ** :   0.2222-0.0000 0.5000  plane waves:    9150
 k-point ** :   0.3333 0.0000 0.5000  plane waves:    9126
 k-point ** :   0.4444-0.0000 0.5000  plane waves:    9156
 k-point ** :  -0.0000 0.1111 0.5000  plane waves:    9098
 k-point ** :   0.1111 0.1111 0.5000  plane waves:    9136
 k-point ** :   0.2222 0.1111 0.5000  plane waves:    9148
 k-point ** :   0.3333 0.1111 0.5000  plane waves:    9138
 k-point ** :   0.4444 0.1111 0.5000  plane waves:    9158
 k-point ** :  -0.4444 0.1111 0.5000  plane waves:    9140
 k-point ** :  -0.3333 0.1111 0.5000  plane waves:    9148
 k-point ** :  -0.2222 0.1111 0.5000  plane waves:    9128
 k-point ** :  -0.1111 0.1111 0.5000  plane waves:    9096
 k-point ** :  -0.0000 0.2222 0.5000  plane waves:    9150
 k-point ** :   0.1111 0.2222 0.5000  plane waves:    9148
 k-point ** :   0.2222 0.2222 0.5000  plane waves:    9118
 k-point ** :   0.3333 0.2222 0.5000  plane waves:    9164
 k-point ** :   0.4444 0.2222 0.5000  plane waves:    9162
 k-point ** :  -0.4444 0.2222 0.5000  plane waves:    9128
 k-point ** :  -0.3333 0.2222 0.5000  plane waves:    9154
 k-point ** :  -0.2222 0.2222 0.5000  plane waves:    9146
 k-point ** :  -0.1111 0.2222 0.5000  plane waves:    9128
 k-point ** :  -0.0000 0.3333 0.5000  plane waves:    9126
 k-point ** :   0.1111 0.3333 0.5000  plane waves:    9138
 k-point ** :   0.2222 0.3333 0.5000  plane waves:    9164
 k-point ** :   0.3333 0.3333 0.5000  plane waves:    9168
 k-point ** :   0.4444 0.3333 0.5000  plane waves:    9162
 k-point ** :  -0.4444 0.3333 0.5000  plane waves:    9140
 k-point ** :  -0.3333 0.3333 0.5000  plane waves:    9132
 k-point ** :  -0.2222 0.3333 0.5000  plane waves:    9154
 k-point ** :  -0.1111 0.3333 0.5000  plane waves:    9148
 k-point ** :  -0.0000 0.4444 0.5000  plane waves:    9156
 k-point ** :   0.1111 0.4444 0.5000  plane waves:    9158
 k-point ** :   0.2222 0.4444 0.5000  plane waves:    9162
 k-point ** :   0.3333 0.4444 0.5000  plane waves:    9162
 k-point ** :   0.4444 0.4444 0.5000  plane waves:    9158
 k-point ** :  -0.4444 0.4444 0.5000  plane waves:    9154
 k-point ** :  -0.3333 0.4444 0.5000  plane waves:    9140
 k-point ** :  -0.2222 0.4444 0.5000  plane waves:    9128
 k-point ** :  -0.1111 0.4444 0.5000  plane waves:    9140

 maximum and minimum number of plane-waves per node :      9171     9067

 maximum number of plane-waves:      9171
 maximum index in each direction: 
   IXMAX=   10   IYMAX=   10   IZMAX=   25
   IXMIN=  -10   IYMIN=  -10   IZMIN=  -26

 WARNING: aliasing errors must be expected set NGX to  42 to avoid them
 WARNING: aliasing errors must be expected set NGY to  42 to avoid them
 NGZ is ok and might be reduce to 104
 aliasing errors are usually negligible using standard VASP settings
 and one can safely disregard these warnings

 serial   3D FFT for wavefunctions
 parallel 3D FFT for charge:
    minimum data exchange during FFTs selected (reduces bandwidth)


 total amount of memory used by VASP on root node   502283. kBytes
========================================================================

   base      :      30000. kBytes
   nonl-proj :     100400. kBytes
   fftplans  :       8783. kBytes
   grid      :      18621. kBytes
   one-center:         98. kBytes
   wavefun   :     344381. kBytes
 
     INWAV:  cpu time    0.00: real time    0.00
 Broyden mixing: mesh for mixing (old mesh)
   NGX = 19   NGY = 19   NGZ = 51
  (NGX  = 80   NGY  = 80   NGZ  =216)
  gives a total of  18411 points

 initial charge density was supplied:
 charge density of overlapping atoms calculated
 number of electron     128.0000000 magnetization 
 keeping initial charge density in first step


--------------------------------------------------------------------------------------------------------


 Maximum index for augmentation-charges         1478 (set IRDMAX)


--------------------------------------------------------------------------------------------------------


 First call to EWALD:  gamma=   0.273
 Maximum number of real-space cells 4x 4x 2
 Maximum number of reciprocal cells 2x 2x 5

 FEWALD executed in parallel
    FEWALD:  cpu time    0.00: real time    0.00


----------------------------------------- Iteration    1(   1)  ---------------------------------------


    POTLOK:  cpu time    0.21: real time    0.21
    SETDIJ:  cpu time    0.01: real time    0.02
     EDDAV:  cpu time  162.77: real time  162.86
 BZINTS: Fermi energy: 16.149371;128.000000 electrons
         Band energy:  86.245394;  BLOECHL correction: -0.130875
       DOS:  cpu time    0.22: real time    0.22
    --------------------------------------------
      LOOP:  cpu time  163.22: real time  163.32

 eigenvalue-minimisations  : 27384
 total energy-change (2. order) : 0.5764855E+03  (-0.7215839E+04)
 number of electron     128.0000000 magnetization 
 augmentation part      128.0000000 magnetization 

 Free energy of the ion-electron system (eV)
  ---------------------------------------------------
  alpha Z        PSCENC =       304.74181339
  Ewald energy   TEWEN  =     -3840.31073748
  -Hartree energ DENC   =     -1089.76527166
  -exchange      EXHF   =         0.00000000
  -V(xc)+E(xc)   XCENC  =       443.58045624
  PAW double counting   =      1210.60617908    -1247.42152856
  entropy T*S    EENTRO =         0.00000000
  eigenvalues    EBANDS =        86.24539424
  atomic energy  EATOM  =      4708.80920826
  ---------------------------------------------------
  free energy    TOTEN  =       576.48551351 eV

  energy without entropy =      576.48551351  energy(sigma->0) =      576.48551351


--------------------------------------------------------------------------------------------------------




----------------------------------------- Iteration    1(   2)  ---------------------------------------


     EDDAV:  cpu time  185.30: real time  185.39
 BZINTS: Fermi energy:  4.276726;128.000000 electrons
         Band energy:-754.838586;  BLOECHL correction: -0.000278
       DOS:  cpu time    0.14: real time    0.14
    --------------------------------------------
      LOOP:  cpu time  185.44: real time  185.53

 eigenvalue-minimisations  : 33984
 total energy-change (2. order) :-0.8410840E+03  (-0.8103427E+03)
 number of electron     128.0000000 magnetization 
 augmentation part      128.0000000 magnetization 

 Free energy of the ion-electron system (eV)
  ---------------------------------------------------
  alpha Z        PSCENC =       304.74181339
  Ewald energy   TEWEN  =     -3840.31073748
  -Hartree energ DENC   =     -1089.76527166
  -exchange      EXHF   =         0.00000000
  -V(xc)+E(xc)   XCENC  =       443.58045624
  PAW double counting   =      1210.60617908    -1247.42152856
  entropy T*S    EENTRO =         0.00000000
  eigenvalues    EBANDS =      -754.83858609
  atomic energy  EATOM  =      4708.80920826
  ---------------------------------------------------
  free energy    TOTEN  =      -264.59846682 eV

  energy without entropy =     -264.59846682  energy(sigma->0) =     -264.59846682


--------------------------------------------------------------------------------------------------------




----------------------------------------- Iteration    1(   3)  ---------------------------------------


     EDDAV:  cpu time  188.67: real time  188.77
 BZINTS: Fermi energy:  3.544601;128.000000 electrons
         Band energy:-802.499490;  BLOECHL correction:  0.000000
       DOS:  cpu time    0.06: real time    0.06
    --------------------------------------------
      LOOP:  cpu time  188.74: real time  188.83

 eigenvalue-minimisations  : 33396
 total energy-change (2. order) :-0.4766090E+02  (-0.4719343E+02)
 number of electron     128.0000000 magnetization 
 augmentation part      128.0000000 magnetization 

 Free energy of the ion-electron system (eV)
  ---------------------------------------------------
  alpha Z        PSCENC =       304.74181339
  Ewald energy   TEWEN  =     -3840.31073748
  -Hartree energ DENC   =     -1089.76527166
  -exchange      EXHF   =         0.00000000
  -V(xc)+E(xc)   XCENC  =       443.58045624
  PAW double counting   =      1210.60617908    -1247.42152856
  entropy T*S    EENTRO =         0.00000000
  eigenvalues    EBANDS =      -802.49948970
  atomic energy  EATOM  =      4708.80920826
  ---------------------------------------------------
  free energy    TOTEN  =      -312.25937043 eV

  energy without entropy =     -312.25937043  energy(sigma->0) =     -312.25937043


--------------------------------------------------------------------------------------------------------




----------------------------------------- Iteration    1(   4)  ---------------------------------------


     EDDAV:  cpu time  193.95: real time  194.05
 BZINTS: Fermi energy:  3.535224;128.000000 electrons
         Band energy:-803.385459;  BLOECHL correction:  0.000000
       DOS:  cpu time    0.07: real time    0.07
    --------------------------------------------
      LOOP:  cpu time  194.02: real time  194.12

 eigenvalue-minimisations  : 34692
 total energy-change (2. order) :-0.8859693E+00  (-0.8842840E+00)
 number of electron     128.0000000 magnetization 
 augmentation part      128.0000000 magnetization 

 Free energy of the ion-electron system (eV)
  ---------------------------------------------------
  alpha Z        PSCENC =       304.74181339
  Ewald energy   TEWEN  =     -3840.31073748
  -Hartree energ DENC   =     -1089.76527166
  -exchange      EXHF   =         0.00000000
  -V(xc)+E(xc)   XCENC  =       443.58045624
  PAW double counting   =      1210.60617908    -1247.42152856
  entropy T*S    EENTRO =         0.00000000
  eigenvalues    EBANDS =      -803.38545895
  atomic energy  EATOM  =      4708.80920826
  ---------------------------------------------------
  free energy    TOTEN  =      -313.14533968 eV

  energy without entropy =     -313.14533968  energy(sigma->0) =     -313.14533968


--------------------------------------------------------------------------------------------------------




----------------------------------------- Iteration    1(   5)  ---------------------------------------


     EDDAV:  cpu time  194.34: real time  194.44
 BZINTS: Fermi energy:  3.535590;128.000000 electrons
         Band energy:-803.410868;  BLOECHL correction:  0.000000
       DOS:  cpu time    0.06: real time    0.06
    CHARGE:  cpu time    7.61: real time    7.61
    MIXING:  cpu time    0.01: real time    0.01
    --------------------------------------------
      LOOP:  cpu time  202.01: real time  202.12

 eigenvalue-minimisations  : 34776
 total energy-change (2. order) :-0.2540871E-01  (-0.2539784E-01)
 number of electron     127.9999998 magnetization 
 augmentation part        3.3972940 magnetization 

 Broyden mixing:
  rms(total) = 0.22075E+01    rms(broyden)= 0.22073E+01
  rms(prec ) = 0.26285E+01
  weight for this iteration     100.00

 Free energy of the ion-electron system (eV)
  ---------------------------------------------------
  alpha Z        PSCENC =       304.74181339
  Ewald energy   TEWEN  =     -3840.31073748
  -Hartree energ DENC   =     -1089.76527166
  -exchange      EXHF   =         0.00000000
  -V(xc)+E(xc)   XCENC  =       443.58045624
  PAW double counting   =      1210.60617908    -1247.42152856
  entropy T*S    EENTRO =         0.00000000
  eigenvalues    EBANDS =      -803.41086767
  atomic energy  EATOM  =      4708.80920826
  ---------------------------------------------------
  free energy    TOTEN  =      -313.17074839 eV

  energy without entropy =     -313.17074839  energy(sigma->0) =     -313.17074839


--------------------------------------------------------------------------------------------------------




----------------------------------------- Iteration    1(   6)  ---------------------------------------


    POTLOK:  cpu time    0.19: real time    0.20
    SETDIJ:  cpu time    0.01: real time    0.02
     EDDAV:  cpu time  175.33: real time  175.42
 BZINTS: Fermi energy:  4.259567;128.000000 electrons
         Band energy:-667.389427;  BLOECHL correction: -0.000000
       DOS:  cpu time    0.06: real time    0.06
    CHARGE:  cpu time    8.69: real time    8.70
    MIXING:  cpu time    0.01: real time    0.01
    --------------------------------------------
      LOOP:  cpu time  184.30: real time  184.40

 eigenvalue-minimisations  : 31296
 total energy-change (2. order) : 0.1430301E+02  (-0.1477408E+01)
 number of electron     127.9999998 magnetization 
 augmentation part        3.2424003 magnetization 

 Broyden mixing:
  rms(total) = 0.11572E+01    rms(broyden)= 0.11572E+01
  rms(prec ) = 0.13672E+01
  weight for this iteration     100.00

 eigenvalues of (default mixing * dielectric matrix)
  average eigenvalue GAMMA=   2.0341
  2.0341

 Free energy of the ion-electron system (eV)
  ---------------------------------------------------
  alpha Z        PSCENC =       304.74181339
  Ewald energy   TEWEN  =     -3840.31073748
  -Hartree energ DENC   =     -1216.86890711
  -exchange      EXHF   =         0.00000000
  -V(xc)+E(xc)   XCENC  =       451.88961343
  PAW double counting   =      1641.43147416    -1681.17077315
  entropy T*S    EENTRO =         0.00000000
  eigenvalues    EBANDS =      -667.38942734
  atomic energy  EATOM  =      4708.80920826
  ---------------------------------------------------
  free energy    TOTEN  =      -298.86773585 eV

  energy without entropy =     -298.86773585  energy(sigma->0) =     -298.86773585


--------------------------------------------------------------------------------------------------------




----------------------------------------- Iteration    1(   7)  ---------------------------------------


    POTLOK:  cpu time    0.22: real time    0.22
    SETDIJ:  cpu time    0.02: real time    0.02
     EDDAV:  cpu time  178.92: real time  179.01
 BZINTS: Fermi energy:  4.964101;128.000000 electrons
         Band energy:-529.371944;  BLOECHL correction:  0.000000
       DOS:  cpu time    0.06: real time    0.06
    CHARGE:  cpu time    8.68: real time    8.68
    MIXING:  cpu time    0.01: real time    0.01
    --------------------------------------------
      LOOP:  cpu time  187.91: real time  188.00

 eigenvalue-minimisations  : 31176
 total energy-change (2. order) : 0.4496704E+01  (-0.1529603E+01)
 number of electron     127.9999999 magnetization 
 augmentation part        3.0783238 magnetization 

 Broyden mixing:
  rms(total) = 0.19135E+00    rms(broyden)= 0.19121E+00
  rms(prec ) = 0.20524E+00
  weight for this iteration     100.00

 eigenvalues of (default mixing * dielectric matrix)
  average eigenvalue GAMMA=   2.1694
  2.1072  2.2315

 Free energy of the ion-electron system (eV)
  ---------------------------------------------------
  alpha Z        PSCENC =       304.74181339
  Ewald energy   TEWEN  =     -3840.31073748
  -Hartree energ DENC   =     -1357.42148615
  -exchange      EXHF   =         0.00000000
  -V(xc)+E(xc)   XCENC  =       461.30566246
  PAW double counting   =      2179.18354750    -2221.30709558
  entropy T*S    EENTRO =         0.00000000
  eigenvalues    EBANDS =      -529.37194449
  atomic energy  EATOM  =      4708.80920826
  ---------------------------------------------------
  free energy    TOTEN  =      -294.37103209 eV

  energy without entropy =     -294.37103209  energy(sigma->0) =     -294.37103209


--------------------------------------------------------------------------------------------------------




----------------------------------------- Iteration    1(   8)  ---------------------------------------


    POTLOK:  cpu time    0.21: real time    0.22
    SETDIJ:  cpu time    0.02: real time    0.02
     EDDAV:  cpu time  177.97: real time  178.06
 BZINTS: Fermi energy:  4.935046;128.000000 electrons
         Band energy:-532.654538;  BLOECHL correction:  0.000000
       DOS:  cpu time    0.07: real time    0.07
    CHARGE:  cpu time    8.66: real time    8.67
    MIXING:  cpu time    0.01: real time    0.01
    --------------------------------------------
      LOOP:  cpu time  186.94: real time  187.04

 eigenvalue-minimisations  : 31044
 total energy-change (2. order) :-0.5724152E-01  (-0.3765491E-01)
 number of electron     127.9999999 magnetization 
 augmentation part        3.0727941 magnetization 

 Broyden mixing:
  rms(total) = 0.26289E-01    rms(broyden)= 0.26259E-01
  rms(prec ) = 0.34036E-01
  weight for this iteration     100.00

 eigenvalues of (default mixing * dielectric matrix)
  average eigenvalue GAMMA=   1.7678
  0.8667  2.4608  1.9758

 Free energy of the ion-electron system (eV)
  ---------------------------------------------------
  alpha Z        PSCENC =       304.74181339
  Ewald energy   TEWEN  =     -3840.31073748
  -Hartree energ DENC   =     -1354.83064189
  -exchange      EXHF   =         0.00000000
  -V(xc)+E(xc)   XCENC  =       461.16915369
  PAW double counting   =      2212.98320068    -2254.33573228
  entropy T*S    EENTRO =         0.00000000
  eigenvalues    EBANDS =      -532.65453799
  atomic energy  EATOM  =      4708.80920826
  ---------------------------------------------------
  free energy    TOTEN  =      -294.42827361 eV

  energy without entropy =     -294.42827361  energy(sigma->0) =     -294.42827361


--------------------------------------------------------------------------------------------------------




----------------------------------------- Iteration    1(   9)  ---------------------------------------


    POTLOK:  cpu time    0.22: real time    0.22
    SETDIJ:  cpu time    0.02: real time    0.02
     EDDAV:  cpu time  182.41: real time  182.50
 BZINTS: Fermi energy:  4.945568;128.000000 electrons
         Band energy:-530.670835;  BLOECHL correction:  0.000000
       DOS:  cpu time    0.07: real time    0.07
    CHARGE:  cpu time    8.90: real time    8.91
    MIXING:  cpu time    0.01: real time    0.01
    --------------------------------------------
      LOOP:  cpu time  191.63: real time  191.73

 eigenvalue-minimisations  : 33432
 total energy-change (2. order) :-0.1351094E-02  (-0.1489992E-02)
 number of electron     127.9999999 magnetization 
 augmentation part        3.0693788 magnetization 

 Broyden mixing:
  rms(total) = 0.11943E-01    rms(broyden)= 0.11939E-01
  rms(prec ) = 0.15576E-01
  weight for this iteration     100.00

 eigenvalues of (default mixing * dielectric matrix)
  average eigenvalue GAMMA=   1.6082
  2.4988  1.9688  1.1503  0.8148

 Free energy of the ion-electron system (eV)
  ---------------------------------------------------
  alpha Z        PSCENC =       304.74181339
  Ewald energy   TEWEN  =     -3840.31073748
  -Hartree energ DENC   =     -1356.98111124
  -exchange      EXHF   =         0.00000000
  -V(xc)+E(xc)   XCENC  =       461.32403085
  PAW double counting   =      2222.09614630    -2263.43813997
  entropy T*S    EENTRO =         0.00000000
  eigenvalues    EBANDS =      -530.67083482
  atomic energy  EATOM  =      4708.80920826
  ---------------------------------------------------
  free energy    TOTEN  =      -294.42962471 eV

  energy without entropy =     -294.42962471  energy(sigma->0) =     -294.42962471


--------------------------------------------------------------------------------------------------------




----------------------------------------- Iteration    1(  10)  ---------------------------------------


    POTLOK:  cpu time    0.22: real time    0.22
    SETDIJ:  cpu time    0.02: real time    0.02
     EDDAV:  cpu time  187.78: real time  187.88
 BZINTS: Fermi energy:  4.948698;128.000000 electrons
         Band energy:-530.167314;  BLOECHL correction:  0.000000
       DOS:  cpu time    0.08: real time    0.08
    CHARGE:  cpu time    8.67: real time    8.68
    MIXING:  cpu time    0.01: real time    0.01
    --------------------------------------------
      LOOP:  cpu time  196.78: real time  196.88

 eigenvalue-minimisations  : 33312
 total energy-change (2. order) :-0.5855170E-03  (-0.2987082E-03)
 number of electron     127.9999999 magnetization 
 augmentation part        3.0685524 magnetization 

 Broyden mixing:
  rms(total) = 0.82376E-02    rms(broyden)= 0.82348E-02
  rms(prec ) = 0.11061E-01
  weight for this iteration     100.00

 eigenvalues of (default mixing * dielectric matrix)
  average eigenvalue GAMMA=   1.5818
  2.6172  1.9793  1.9793  0.7983  0.5349

 Free energy of the ion-electron system (eV)
  ---------------------------------------------------
[...]
     79      12.8411      0.00000
     80      12.8445      0.00000
     81      13.0577      0.00000
     82      13.0595      0.00000
     83      13.2768      0.00000
     84      13.2891      0.00000

 k-point   162 :      -0.2222    0.4444    0.5000
  band No.  band energies     occupation 
      1     -13.7747      2.00000
      2     -13.7743      2.00000
      3     -13.5183      2.00000
      4     -13.5180      2.00000
      5     -11.8380      2.00000
      6     -11.8365      2.00000
      7     -11.8317      2.00000
      8     -11.8303      2.00000
      9     -11.6119      2.00000
     10     -11.6104      2.00000
     11     -11.6056      2.00000
     12     -11.6041      2.00000
     13      -8.5720      2.00000
     14      -8.5704      2.00000
     15      -8.4750      2.00000
     16      -8.4733      2.00000
     17      -7.5909      2.00000
     18      -7.5872      2.00000
     19      -7.5354      2.00000
     20      -7.5321      2.00000
     21      -4.5965      2.00000
     22      -4.5963      2.00000
     23      -4.5889      2.00000
     24      -4.5879      2.00000
     25      -4.4810      2.00000
     26      -4.4809      2.00000
     27      -4.4739      2.00000
     28      -4.4725      2.00000
     29      -4.2890      2.00000
     30      -4.2869      2.00000
     31      -4.1912      2.00000
     32      -4.1890      2.00000
     33      -2.3381      2.00000
     34      -2.3368      2.00000
     35      -1.6646      2.00000
     36      -1.6645      2.00000
     37      -1.6533      2.00000
     38      -1.6515      2.00000
     39      -1.5993      2.00000
     40      -1.5991      2.00000
     41      -1.5877      2.00000
     42      -1.5862      2.00000
     43      -0.7895      2.00000
     44      -0.7885      2.00000
     45      -0.7141      2.00000
     46      -0.7104      2.00000
     47      -0.6781      2.00000
     48      -0.6732      2.00000
     49      -0.0641      2.00000
     50      -0.0623      2.00000
     51      -0.0582      2.00000
     52      -0.0564      2.00000
     53       0.2475      2.00000
     54       0.2527      2.00000
     55       0.2760      2.00000
     56       0.2799      2.00000
     57       1.3101      2.00000
     58       1.3121      2.00000
     59       1.3166      2.00000
     60       1.3186      2.00000
     61       3.3246      2.00000
     62       3.3273      2.00000
     63       3.8993      2.00000
     64       3.9023      2.00000
     65       6.1926      0.00000
     66       6.1984      0.00000
     67       6.2049      0.00000
     68       6.2070      0.00000
     69       9.3640      0.00000
     70       9.3657      0.00000
     71       9.3712      0.00000
     72       9.3730      0.00000
     73      10.0117      0.00000
     74      10.0140      0.00000
     75      10.0150      0.00000
     76      10.0171      0.00000
     77      11.3931      0.00000
     78      11.3950      0.00000
     79      13.5355      0.00000
     80      13.5415      0.00000
     81      13.5478      0.00000
     82      13.5501      0.00000
     83      13.5589      0.00000
     84      13.6633      0.00000

 k-point   163 :      -0.1111    0.4444    0.5000
  band No.  band energies     occupation 
      1     -13.7014      2.00000
      2     -13.7010      2.00000
      3     -13.4461      2.00000
      4     -13.4458      2.00000
      5     -12.4005      2.00000
      6     -12.4002      2.00000
      7     -12.1654      2.00000
      8     -12.1651      2.00000
      9     -11.1376      2.00000
     10     -11.1373      2.00000
     11     -10.9227      2.00000
     12     -10.9224      2.00000
     13      -9.3380      2.00000
     14      -9.3377      2.00000
     15      -9.1594      2.00000
     16      -9.1590      2.00000
     17      -6.8376      2.00000
     18      -6.8357      2.00000
     19      -6.7124      2.00000
     20      -6.7107      2.00000
     21      -5.1810      2.00000
     22      -5.1795      2.00000
     23      -5.0682      2.00000
     24      -5.0667      2.00000
     25      -4.1820      2.00000
     26      -4.1803      2.00000
     27      -4.0895      2.00000
     28      -4.0876      2.00000
     29      -3.9249      2.00000
     30      -3.9246      2.00000
     31      -3.8136      2.00000
     32      -3.8132      2.00000
     33      -2.7276      2.00000
     34      -2.7257      2.00000
     35      -2.6516      2.00000
     36      -2.6497      2.00000
     37      -2.2508      2.00000
     38      -2.2495      2.00000
     39      -1.0573      2.00000
     40      -1.0561      2.00000
     41      -0.9910      2.00000
     42      -0.9897      2.00000
     43      -0.8079      2.00000
     44      -0.8072      2.00000
     45      -0.7543      2.00000
     46      -0.7537      2.00000
     47      -0.7179      2.00000
     48      -0.7166      2.00000
     49      -0.7049      2.00000
     50      -0.7032      2.00000
     51       0.3218      2.00000
     52       0.3236      2.00000
     53       0.3637      2.00000
     54       0.3652      2.00000
     55       0.7152      2.00000
     56       0.7166      2.00000
     57       0.7398      2.00000
     58       0.7411      2.00000
     59       2.0335      2.00000
     60       2.0350      2.00000
     61       2.6885      2.00000
     62       2.6902      2.00000
     63       3.6394      2.00000
     64       3.6415      2.00000
     65       6.4438      0.00000
     66       6.4469      0.00000
     67       6.9495      0.00000
     68       6.9516      0.00000
     69       8.4383      0.00000
     70       8.4402      0.00000
     71       9.0265      0.00000
     72       9.0281      0.00000
     73      10.2678      0.00000
     74      10.2703      0.00000
     75      10.9356      0.00000
     76      10.9374      0.00000
     77      11.4696      0.00000
     78      11.4715      0.00000
     79      12.8319      0.00000
     80      12.8351      0.00000
     81      13.0311      0.00000
     82      13.0319      0.00000
     83      13.2739      0.00000
     84      13.2863      0.00000


--------------------------------------------------------------------------------------------------------


 soft charge-density along one line, spin component           1
         0         1         2         3         4         5         6         7         8         9
 total charge-density along one line
 
 pseudopotential strength for first ion, spin component:           1
  9.755   0.005  -0.000   0.000  -0.000   0.000  -0.000   0.000
  0.005  -0.002   0.000  -0.000  -0.000   0.000  -0.000   0.000
 -0.000   0.000  -3.929  -0.000  -0.000  -0.015  -0.000  -0.000
  0.000  -0.000  -0.000  -3.923   0.000  -0.000  -0.012   0.000
 -0.000  -0.000  -0.000   0.000  -3.929  -0.000   0.000  -0.015
  0.000   0.000  -0.015  -0.000  -0.000  -0.763  -0.000  -0.000
 -0.000  -0.000  -0.000  -0.012   0.000  -0.000  -0.763   0.000
  0.000   0.000  -0.000   0.000  -0.015  -0.000   0.000  -0.763
 total augmentation occupancy for first ion, spin component:           1
  1.471  -1.107   0.000  -0.001  -0.003   0.000   0.001  -0.001
 -1.107   1.039  -0.000  -0.006   0.003  -0.000  -0.002   0.001
  0.000  -0.000   1.225   0.000   0.003   0.225   0.000   0.001
 -0.001  -0.006   0.000   0.927  -0.000   0.000   0.103  -0.000
 -0.003   0.003   0.003  -0.000   1.224   0.001  -0.000   0.225
  0.000  -0.000   0.225   0.000   0.001   0.047   0.000   0.000
  0.001  -0.002   0.000   0.103  -0.000   0.000   0.013  -0.000
 -0.001   0.001   0.001  -0.000   0.225   0.000  -0.000   0.047


------------------------ aborting loop because EDIFF is reached ----------------------------------------


    CHARGE:  cpu time    8.66: real time    8.67
    FORLOC:  cpu time    0.05: real time    0.05
    FORNL :  cpu time   52.78: real time   52.81
    STRESS:  cpu time  100.78: real time  100.83
    FORHAR:  cpu time    0.09: real time    0.09
    MIXING:  cpu time    0.01: real time    0.01
    OFIELD:  cpu time    0.00: real time    0.00

 ---------------------------------------------------------------------------------------------

         DFTD3 V3.0 Rev 1        
 IVDW         = 12
 DF pbe       
 parameters
 VDW_S6       =    1.0000
 VDW_S8       =    0.7875
 VDW_A1       =    0.4289
 VDW_A2       =    4.4407
 k1-k3        =   16.0000    1.3333   -4.0000
 VDW_RADIUS   =   50.2022 A
 VDW_CNRADIUS =   21.1671 A
 Edisp (eV)   -5.19518

 E6    (eV) :    -3.7167
 E8    (eV) :    -1.4785
 % E8        : 28.46
    FORVDW:  cpu time    0.29: real time    0.30

  FORCE on cell =-STRESS in cart. coord.  units (eV):
  Direction    XX          YY          ZZ          XY          YZ          ZX
  --------------------------------------------------------------------------------------
  Alpha Z   304.74181   304.74181   304.74181
  Ewald     463.73771   463.25386 -4767.31934     0.35614     0.00061    -0.00951
  Hartree  1178.11539  1178.11485  -997.92875     0.10471     0.00018    -0.00213
  E(xc)    -467.90765  -467.91457  -484.58342    -0.00307     0.00001    -0.00004
  Local   -3275.87931 -3275.48814  3862.28003    -0.39139    -0.00042     0.00901
  n-local  -112.36813  -112.47875  -102.88647    -0.08987     0.00029    -0.00056
  augment   -12.37922   -12.37832   -11.34118    -0.00046    -0.00000     0.00002
  Kinetic  1921.92836  1922.74251  2205.16075     0.58302    -0.00400     0.00924
  Fock        0.00000     0.00000     0.00000     0.00000     0.00000     0.00000
  vdW        -0.70961    -0.69920    -6.09578     0.00863    -0.00000    -0.00002
  -------------------------------------------------------------------------------------
  Total      -0.72064    -0.10594     2.02766     0.56770    -0.00333     0.00600
  in kB      -4.21704    -0.61993    11.86547     3.32210    -0.01950     0.03509
  external pressure =        2.34 kB  Pullay stress =        0.00 kB


 VOLUME and BASIS-vectors are now :
 -----------------------------------------------------------------------------
  energy-cutoff  :      600.00
  volume of cell :      273.79
      direct lattice vectors                 reciprocal lattice vectors
     4.932874498 -0.001919286  0.000000000     0.202767147  0.117172881  0.000000000
    -2.468099399  4.271034986  0.000000000     0.000091118  0.234187941  0.000000000
     0.000000000  0.000000000 12.998231427     0.000000000  0.000000000  0.076933543

  length of vectors
     4.932874871  4.932874871 12.998231427     0.234187958  0.234187958  0.076933543


 FORCES acting on ions
    electron-ion (+dipol)            ewald-force                    non-local-force                 convergence-correction
 -----------------------------------------------------------------------------------------------
   -.885E+00 0.628E-01 0.161E+01   0.100E+01 -.586E-01 -.164E+01   0.925E-01 0.277E-02 0.171E+00   0.410E-03 0.136E-04 0.679E-03
   0.933E-01 0.650E-01 -.381E+00   -.117E+00 -.617E-01 0.363E+00   -.227E-01 0.266E-02 0.214E-01   -.442E-03 -.179E-04 0.655E-03
   -.859E-01 -.385E-01 -.381E+00   0.875E-01 0.566E-01 0.363E+00   -.118E-01 0.889E-02 0.214E-01   0.160E-04 0.270E-03 0.652E-03
   -.863E-01 0.169E+00 -.382E+00   0.878E-01 -.180E+00 0.364E+00   -.117E-01 -.380E-02 0.215E-01   -.406E-04 -.220E-03 0.652E-03
   -.113E+00 0.654E-01 0.997E-01   0.107E+00 -.618E-01 -.997E-01   -.440E-02 0.261E-02 -.221E-02   -.118E-03 -.410E-04 -.294E-03
   -.112E+00 0.653E-01 0.987E-01   0.107E+00 -.618E-01 -.986E-01   -.438E-02 0.262E-02 -.226E-02   -.110E-03 -.190E-04 -.285E-03
   -.113E+00 0.652E-01 0.987E-01   0.107E+00 -.617E-01 -.986E-01   -.439E-02 0.260E-02 -.226E-02   -.120E-03 0.547E-04 -.284E-03
   -.113E+00 0.653E-01 0.987E-01   0.107E+00 -.619E-01 -.986E-01   -.439E-02 0.261E-02 -.226E-02   -.760E-04 0.652E-04 -.295E-03
   0.113E+00 -.609E-01 0.808E-01   -.107E+00 0.569E-01 -.831E-01   0.447E-02 -.257E-02 0.225E-02   -.233E-04 0.631E-04 0.258E-02
   0.113E+00 -.702E-01 0.805E-01   -.107E+00 0.665E-01 -.830E-01   0.460E-02 -.276E-02 0.259E-02   -.492E-04 0.664E-04 0.259E-02
   0.121E+00 -.657E-01 0.805E-01   -.116E+00 0.618E-01 -.829E-01   0.470E-02 -.278E-02 0.242E-02   -.484E-04 0.262E-04 0.258E-02
   0.104E+00 -.657E-01 0.147E+00   -.977E-01 0.619E-01 -.150E+00   0.444E-02 -.270E-02 0.190E-02   -.261E-04 0.162E-04 0.258E-02
   0.114E+00 -.603E-01 0.855E-01   -.107E+00 0.567E-01 -.829E-01   0.467E-02 -.251E-02 0.259E-02   -.604E-04 -.185E-04 -.272E-02
   0.113E+00 -.702E-01 0.857E-01   -.107E+00 0.670E-01 -.828E-01   0.453E-02 -.271E-02 0.225E-02   -.125E-04 0.180E-04 -.272E-02
   0.122E+00 -.651E-01 0.857E-01   -.116E+00 0.618E-01 -.829E-01   0.477E-02 -.249E-02 0.243E-02   -.587E-04 0.845E-05 -.272E-02
   0.104E+00 -.650E-01 0.152E+00   -.970E-01 0.617E-01 -.150E+00   0.450E-02 -.257E-02 0.202E-02   -.103E-04 0.191E-04 -.273E-02
   0.191E+00 -.647E-01 -.319E+00   -.185E+00 0.616E-01 0.317E+00   0.315E-02 -.247E-02 -.108E-01   -.168E-03 -.214E-04 0.662E-03
   -.130E+00 -.579E-01 -.839E+00   0.133E+00 0.539E-01 0.871E+00   -.223E-01 -.215E-02 -.795E-01   0.201E-03 0.188E-04 0.670E-03
   0.445E+00 0.268E+00 -.843E+00   -.497E+00 -.303E+00 0.876E+00   -.146E-01 0.202E-02 -.797E-01   -.116E-04 -.157E-03 0.669E-03
   0.455E+00 -.401E+00 -.834E+00   -.508E+00 0.430E+00 0.866E+00   -.135E-01 -.747E-02 -.793E-01   0.500E-04 0.610E-04 0.664E-03
   0.111E+00 -.646E-01 0.986E-01   -.106E+00 0.614E-01 -.985E-01   0.417E-02 -.248E-02 0.475E-03   0.125E-03 0.208E-04 -.291E-03
   0.111E+00 -.646E-01 0.992E-01   -.106E+00 0.614E-01 -.990E-01   0.418E-02 -.249E-02 0.461E-03   0.100E-03 -.133E-04 -.284E-03
   0.111E+00 -.645E-01 0.992E-01   -.106E+00 0.614E-01 -.990E-01   0.418E-02 -.249E-02 0.463E-03   0.156E-03 -.621E-04 -.280E-03
   0.111E+00 -.646E-01 0.992E-01   -.106E+00 0.615E-01 -.990E-01   0.417E-02 -.248E-02 0.456E-03   0.955E-04 -.735E-04 -.296E-03
   -.135E+00 0.757E-01 0.944E-01   0.130E+00 -.722E-01 -.968E-01   -.438E-02 0.252E-02 -.120E-02   0.308E-04 -.149E-04 0.260E-02
   -.883E-01 0.809E-01 0.111E+00   0.823E-01 -.777E-01 -.114E+00   -.440E-02 0.264E-02 -.786E-03   0.281E-04 -.143E-04 0.258E-02
   -.116E+00 0.380E-01 0.103E+00   0.111E+00 -.342E-01 -.106E+00   -.450E-02 0.259E-02 -.996E-03   0.179E-04 -.240E-04 0.259E-02
   -.108E+00 0.650E-01 0.748E-01   0.102E+00 -.615E-01 -.772E-01   -.421E-02 0.259E-02 -.267E-03   0.393E-04 -.215E-04 0.260E-02
   -.881E-01 0.480E-01 0.117E+00   0.821E-01 -.447E-01 -.115E+00   -.437E-02 0.238E-02 -.787E-03   0.394E-04 0.155E-04 -.272E-02
   -.135E+00 0.537E-01 0.991E-01   0.130E+00 -.506E-01 -.964E-01   -.438E-02 0.251E-02 -.116E-02   -.358E-05 0.245E-05 -.269E-02
   -.117E+00 0.916E-01 0.108E+00   0.111E+00 -.890E-01 -.105E+00   -.448E-02 0.245E-02 -.951E-03   0.414E-04 0.726E-05 -.270E-02
   -.108E+00 0.645E-01 0.798E-01   0.102E+00 -.614E-01 -.770E-01   -.419E-02 0.244E-02 -.226E-03   -.220E-05 -.342E-04 -.271E-02
 -----------------------------------------------------------------------------------------------
   0.154E-03 0.572E-04 0.567E-02   -.251E-13 0.124E-13 -.142E-13   -.868E-04 -.310E-04 -.871E-02   -.308E-04 -.628E-05 0.197E-02
 
 
 POSITION                                       TOTAL-FORCE (eV/Angst)
 -----------------------------------------------------------------------------------
      2.46047      0.00044      1.61543         0.210239      0.007066      0.134213
      4.93046     -0.00052      1.62478        -0.048528      0.006007      0.004331
      1.22997      2.13595      1.62478        -0.010556      0.027957      0.004395
      3.69641      2.13499      1.62478        -0.010647     -0.015928      0.004364
      2.46402      0.00044      8.12389        -0.010126      0.006180     -0.002398
      4.93046     -0.00052      8.12389        -0.010153      0.006172     -0.002455
      1.22997      2.13595      8.12389        -0.010139      0.006168     -0.002455
      3.69641      2.13499      8.12389        -0.010153      0.006150     -0.002453
     -1.23163      2.13412      4.87434         0.010545     -0.006528      0.002607
      1.23481      2.13316      4.87434         0.010801     -0.006429      0.002704
     -2.46568      4.26964      4.87434         0.010590     -0.006696      0.002653
      0.00076      4.26868      4.87434         0.010801     -0.006538      0.001556
     -1.23163      2.13412     11.37345         0.011057     -0.006089      0.002587
      1.23481      2.13316     11.37345         0.010785     -0.006017      0.002485
     -2.46568      4.26964     11.37345         0.010850     -0.005834      0.002540
      0.00076      4.26868     11.37345         0.011043     -0.005972      0.001540
     -0.00332      1.42496      1.62478         0.008657     -0.005606     -0.012213
      2.46311      1.42400      1.62478        -0.019458     -0.006142     -0.046333
     -1.23737      3.56047      1.62478        -0.066626     -0.032829     -0.045884
      1.22906      3.55952      1.62478        -0.066004      0.021202     -0.046723
     -0.00332      1.42496      8.12389         0.009352     -0.005702      0.000403
      2.46311      1.42400      8.12389         0.009351     -0.005693      0.000375
     -1.23737      3.56047      8.12389         0.009339     -0.005679      0.000373
      1.22906      3.55952      8.12389         0.009355     -0.005685      0.000378
      1.23571      0.70960      4.87434        -0.009737      0.005983     -0.000988
      3.70215      0.70864      4.87434        -0.010415      0.005840     -0.001032
      0.00166      2.84512      4.87434        -0.009950      0.006483     -0.001012
      2.46810      2.84416      4.87434        -0.010166      0.006102     -0.000052
      1.23571      0.70960     11.37345        -0.010416      0.005806     -0.001172
      3.70215      0.70864     11.37345        -0.009662      0.005651     -0.001085
      0.00166      2.84512     11.37345        -0.009915      0.005074     -0.001109
      2.46810      2.84416     11.37345        -0.010114      0.005524     -0.000139
 -----------------------------------------------------------------------------------
    total drift:                                0.000036      0.000020     -0.001063


--------------------------------------------------------------------------------------------------------



  FREE ENERGIE OF THE ION-ELECTRON SYSTEM (eV)
  ---------------------------------------------------
  free  energy   TOTEN  =      -299.62595580 eV

  energy  without entropy=     -299.62595580  energy(sigma->0) =     -299.62595580
 


--------------------------------------------------------------------------------------------------------


    POTLOK:  cpu time    0.23: real time    0.23


--------------------------------------------------------------------------------------------------------


     LOOP+:  cpu time 2957.65: real time 2959.29
    4ORBIT:  cpu time    0.00: real time    0.00
 BZINTS: Fermi energy:  4.953055;128.000000 electrons
         Band energy:-529.500316;  BLOECHL correction:  0.000000

 total amount of memory used by VASP on root node   502283. kBytes
========================================================================

   base      :      30000. kBytes
   nonl-proj :     100400. kBytes
   fftplans  :       8783. kBytes
   grid      :      18621. kBytes
   one-center:         98. kBytes
   wavefun   :     344381. kBytes
 
  
  
 General timing and accounting informations for this job:
 ========================================================
  
                  Total CPU time used (sec):     3002.309
                            User time (sec):     2580.049
                          System time (sec):      422.260
                         Elapsed time (sec):     3004.125
  
                   Maximum memory used (kb):      606668.
                   Average memory used (kb):           0.
  
                          Minor page faults:     37343745
                          Major page faults:            0
                 Voluntary context switches:          976
