   2   2   0   0
  0.4305505E+01  0.2300681E-09  0.2300681E-09  0.2300681E-09  0.5000000E-15
  1.000000000000000E-004
  CAR 
 diamond                                 
     37.96871451    -13.71900225  301     14.19774894      1.00000000
    -13.719  0.0000E+00  0.0000E+00
    -13.547  0.0000E+00  0.0000E+00
    -13.374  0.0000E+00  0.0000E+00
    -13.202  0.0000E+00  0.0000E+00
    -13.030  0.0000E+00  0.0000E+00
    -12.858  0.0000E+00  0.0000E+00
    -12.685  0.0000E+00  0.0000E+00
    -12.513  0.0000E+00  0.0000E+00
    -12.341  0.0000E+00  0.0000E+00
    -12.168  0.0000E+00  0.0000E+00
    -11.996  0.0000E+00  0.0000E+00
    -11.824  0.0000E+00  0.0000E+00
    -11.651  0.0000E+00  0.0000E+00
    -11.479  0.0000E+00  0.0000E+00
    -11.307  0.1041E-04  0.2174E-06
    -11.135  0.1452E-03  0.1146E-04
    -10.962  0.2452E-03  0.4620E-04
    -10.790  0.2891E-03  0.9226E-04
    -10.618  0.3450E-03  0.1470E-03
    -10.445  0.3878E-03  0.2104E-03
    -10.273  0.4213E-03  0.2800E-03
    -10.101  0.4629E-03  0.3561E-03
     -9.929  0.5077E-03  0.4397E-03
     -9.756  0.5359E-03  0.5295E-03
     -9.584  0.5649E-03  0.6244E-03
     -9.412  0.5885E-03  0.7239E-03
     -9.239  0.6127E-03  0.8273E-03
     -9.067  0.6408E-03  0.9352E-03
     -8.895  0.6689E-03  0.1048E-02
     -8.723  0.6943E-03  0.1166E-02
     -8.550  0.7190E-03  0.1287E-02
     -8.378  0.7467E-03  0.1414E-02
     -8.206  0.7750E-03  0.1545E-02
     -8.033  0.7946E-03  0.1680E-02
     -7.861  0.8149E-03  0.1819E-02
     -7.689  0.8349E-03  0.1961E-02
     -7.516  0.8555E-03  0.2106E-02
     -7.344  0.8752E-03  0.2255E-02
     -7.172  0.8954E-03  0.2408E-02
     -7.000  0.9167E-03  0.2564E-02
     -6.827  0.9385E-03  0.2724E-02
     -6.655  0.9611E-03  0.2888E-02
     -6.483  0.9844E-03  0.3055E-02
     -6.310  0.1006E-02  0.3227E-02
     -6.138  0.1028E-02  0.3402E-02
     -5.966  0.1050E-02  0.3581E-02
     -5.794  0.1072E-02  0.3764E-02
     -5.621  0.1093E-02  0.3950E-02
     -5.449  0.1117E-02  0.4140E-02
     -5.277  0.1143E-02  0.4335E-02
     -5.104  0.1173E-02  0.4534E-02
     -4.932  0.1213E-02  0.4740E-02
     -4.760  0.1265E-02  0.4953E-02
     -4.588  0.1326E-02  0.5176E-02
     -4.415  0.1398E-02  0.5411E-02
     -4.243  0.1495E-02  0.5660E-02
     -4.071  0.1561E-02  0.5928E-02
     -3.898  0.1492E-02  0.6190E-02
     -3.726  0.1441E-02  0.6443E-02
     -3.554  0.1423E-02  0.6689E-02
     -3.381  0.1478E-02  0.6936E-02
     -3.209  0.1349E-02  0.7173E-02
     -3.037  0.1292E-02  0.7400E-02
     -2.865  0.1324E-02  0.7625E-02
     -2.692  0.1279E-02  0.7850E-02
     -2.520  0.1201E-02  0.8064E-02
     -2.348  0.1179E-02  0.8268E-02
     -2.175  0.1201E-02  0.8472E-02
     -2.003  0.1277E-02  0.8685E-02
     -1.831  0.1380E-02  0.8915E-02
     -1.659  0.1458E-02  0.9159E-02
     -1.486  0.1530E-02  0.9417E-02
     -1.314  0.1579E-02  0.9684E-02
     -1.142  0.1491E-02  0.9950E-02
     -0.969  0.1372E-02  0.1020E-01
     -0.797  0.1163E-02  0.1042E-01
     -0.625  0.1116E-02  0.1062E-01
     -0.452  0.1044E-02  0.1080E-01
     -0.280  0.1068E-02  0.1098E-01
     -0.108  0.1115E-02  0.1117E-01
      0.064  0.1217E-02  0.1137E-01
      0.237  0.1415E-02  0.1160E-01
      0.409  0.1856E-02  0.1187E-01
      0.581  0.2466E-02  0.1225E-01
      0.754  0.2871E-02  0.1272E-01
      0.926  0.2743E-02  0.1321E-01
      1.098  0.2177E-02  0.1363E-01
      1.270  0.1910E-02  0.1398E-01
      1.443  0.1690E-02  0.1429E-01
      1.615  0.1534E-02  0.1457E-01
      1.787  0.1401E-02  0.1482E-01
      1.960  0.1306E-02  0.1506E-01
      2.132  0.1241E-02  0.1528E-01
      2.304  0.1255E-02  0.1549E-01
      2.476  0.1367E-02  0.1571E-01
      2.649  0.1547E-02  0.1596E-01
      2.821  0.1739E-02  0.1625E-01
      2.993  0.2005E-02  0.1657E-01
      3.166  0.2229E-02  0.1694E-01
      3.338  0.2262E-02  0.1733E-01
      3.510  0.2180E-02  0.1771E-01
      3.683  0.2116E-02  0.1808E-01
      3.855  0.2178E-02  0.1845E-01
      4.027  0.2166E-02  0.1882E-01
      4.199  0.2200E-02  0.1920E-01
      4.372  0.2256E-02  0.1958E-01
      4.544  0.2240E-02  0.1997E-01
      4.716  0.2246E-02  0.2036E-01
      4.889  0.2267E-02  0.2074E-01
      5.061  0.2384E-02  0.2115E-01
      5.233  0.2463E-02  0.2156E-01
      5.405  0.2575E-02  0.2200E-01
      5.578  0.2669E-02  0.2245E-01
      5.750  0.2822E-02  0.2292E-01
      5.922  0.3036E-02  0.2342E-01
      6.095  0.3303E-02  0.2397E-01
      6.267  0.3455E-02  0.2455E-01
      6.439  0.3291E-02  0.2513E-01
      6.611  0.3207E-02  0.2569E-01
      6.784  0.3141E-02  0.2624E-01
      6.956  0.3117E-02  0.2678E-01
      7.128  0.3088E-02  0.2731E-01
      7.301  0.3066E-02  0.2784E-01
      7.473  0.3044E-02  0.2837E-01
      7.645  0.3017E-02  0.2889E-01
      7.818  0.2987E-02  0.2941E-01
      7.990  0.2972E-02  0.2992E-01
      8.162  0.2959E-02  0.3043E-01
      8.334  0.2936E-02  0.3094E-01
      8.507  0.2893E-02  0.3144E-01
      8.679  0.2832E-02  0.3194E-01
      8.851  0.2787E-02  0.3242E-01
      9.024  0.2753E-02  0.3290E-01
      9.196  0.2738E-02  0.3337E-01
      9.368  0.2717E-02  0.3384E-01
      9.540  0.2685E-02  0.3430E-01
      9.713  0.2654E-02  0.3476E-01
      9.885  0.2649E-02  0.3522E-01
     10.057  0.2596E-02  0.3567E-01
     10.230  0.2541E-02  0.3612E-01
     10.402  0.2365E-02  0.3654E-01
     10.574  0.2070E-02  0.3692E-01
     10.747  0.1805E-02  0.3726E-01
     10.919  0.1616E-02  0.3755E-01
     11.091  0.1478E-02  0.3782E-01
     11.263  0.1358E-02  0.3806E-01
     11.436  0.1280E-02  0.3829E-01
     11.608  0.1196E-02  0.3850E-01
     11.780  0.1100E-02  0.3870E-01
     11.953  0.9930E-03  0.3888E-01
     12.125  0.9129E-03  0.3904E-01
     12.297  0.8357E-03  0.3919E-01
     12.469  0.7577E-03  0.3933E-01
     12.642  0.6809E-03  0.3945E-01
     12.814  0.6078E-03  0.3956E-01
     12.986  0.5482E-03  0.3966E-01
     13.159  0.4920E-03  0.3976E-01
     13.331  0.4174E-03  0.3983E-01
     13.503  0.3827E-03  0.3990E-01
     13.675  0.2598E-03  0.3996E-01
     13.848  0.9763E-04  0.3999E-01
     14.020  0.2272E-04  0.4000E-01
     14.192  0.0000E+00  0.4000E-01
     14.365  0.0000E+00  0.4000E-01
     14.537  0.0000E+00  0.4000E-01
     14.709  0.0000E+00  0.4000E-01
     14.882  0.0000E+00  0.4000E-01
     15.054  0.0000E+00  0.4000E-01
     15.226  0.0000E+00  0.4000E-01
     15.398  0.0000E+00  0.4000E-01
     15.571  0.0000E+00  0.4000E-01
     15.743  0.0000E+00  0.4000E-01
     15.915  0.0000E+00  0.4000E-01
     16.088  0.0000E+00  0.4000E-01
     16.260  0.0000E+00  0.4000E-01
     16.432  0.0000E+00  0.4000E-01
     16.604  0.0000E+00  0.4000E-01
     16.777  0.0000E+00  0.4000E-01
     16.949  0.0000E+00  0.4000E-01
     17.121  0.0000E+00  0.4000E-01
     17.294  0.0000E+00  0.4000E-01
     17.466  0.0000E+00  0.4000E-01
     17.638  0.0000E+00  0.4000E-01
     17.811  0.0000E+00  0.4000E-01
     17.983  0.0000E+00  0.4000E-01
     18.155  0.0000E+00  0.4000E-01
     18.327  0.0000E+00  0.4000E-01
     18.500  0.0000E+00  0.4000E-01
     18.672  0.0000E+00  0.4000E-01
     18.844  0.0000E+00  0.4000E-01
     19.017  0.1643E-08  0.4000E-01
     19.189  0.6048E-04  0.4000E-01
     19.361  0.2640E-03  0.4003E-01
     19.533  0.5399E-03  0.4010E-01
     19.706  0.7119E-03  0.4021E-01
     19.878  0.8536E-03  0.4034E-01
     20.050  0.9979E-03  0.4050E-01
     20.223  0.1154E-02  0.4069E-01
     20.395  0.1367E-02  0.4090E-01
     20.567  0.1588E-02  0.4116E-01
     20.739  0.1803E-02  0.4145E-01
     20.912  0.2000E-02  0.4178E-01
     21.084  0.2063E-02  0.4213E-01
     21.256  0.2153E-02  0.4249E-01
     21.429  0.2264E-02  0.4287E-01
     21.601  0.2362E-02  0.4327E-01
     21.773  0.2477E-02  0.4369E-01
     21.946  0.2589E-02  0.4413E-01
     22.118  0.2711E-02  0.4458E-01
     22.290  0.2876E-02  0.4506E-01
     22.462  0.3112E-02  0.4558E-01
     22.635  0.3458E-02  0.4614E-01
     22.807  0.3974E-02  0.4678E-01
     22.979  0.4467E-02  0.4751E-01
     23.152  0.4882E-02  0.4831E-01
     23.324  0.4954E-02  0.4917E-01
     23.496  0.4644E-02  0.5000E-01
     23.668  0.3537E-02  0.5071E-01
     23.841  0.2340E-02  0.5121E-01
     24.013  0.1862E-02  0.5157E-01
     24.185  0.1815E-02  0.5188E-01
     24.358  0.2016E-02  0.5221E-01
     24.530  0.2398E-02  0.5259E-01
     24.702  0.2691E-02  0.5302E-01
     24.874  0.3180E-02  0.5353E-01
     25.047  0.3221E-02  0.5409E-01
     25.219  0.3457E-02  0.5466E-01
     25.391  0.3658E-02  0.5528E-01
     25.564  0.3602E-02  0.5590E-01
     25.736  0.3629E-02  0.5652E-01
     25.908  0.3636E-02  0.5715E-01
     26.081  0.3457E-02  0.5777E-01
     26.253  0.3206E-02  0.5834E-01
     26.425  0.3176E-02  0.5888E-01
     26.597  0.3007E-02  0.5943E-01
     26.770  0.2716E-02  0.5992E-01
     26.942  0.2383E-02  0.6035E-01
     27.114  0.2217E-02  0.6075E-01
     27.287  0.2076E-02  0.6112E-01
     27.459  0.1930E-02  0.6146E-01
     27.631  0.1780E-02  0.6178E-01
     27.803  0.1672E-02  0.6208E-01
     27.976  0.1588E-02  0.6236E-01
     28.148  0.1506E-02  0.6263E-01
     28.320  0.1426E-02  0.6288E-01
     28.493  0.1472E-02  0.6312E-01
     28.665  0.1485E-02  0.6338E-01
     28.837  0.1523E-02  0.6364E-01
     29.010  0.1581E-02  0.6390E-01
     29.182  0.1659E-02  0.6418E-01
     29.354  0.1766E-02  0.6448E-01
     29.526  0.1880E-02  0.6479E-01
     29.699  0.2062E-02  0.6513E-01
     29.871  0.2337E-02  0.6551E-01
     30.043  0.2566E-02  0.6593E-01
     30.216  0.2790E-02  0.6639E-01
     30.388  0.3982E-02  0.6692E-01
     30.560  0.3804E-02  0.6758E-01
     30.732  0.3578E-02  0.6822E-01
     30.905  0.3756E-02  0.6885E-01
     31.077  0.3985E-02  0.6952E-01
     31.249  0.3890E-02  0.7020E-01
     31.422  0.3508E-02  0.7084E-01
     31.594  0.3203E-02  0.7141E-01
     31.766  0.3230E-02  0.7196E-01
     31.938  0.3588E-02  0.7254E-01
     32.111  0.4067E-02  0.7319E-01
     32.283  0.4545E-02  0.7394E-01
     32.455  0.5630E-02  0.7481E-01
     32.628  0.5185E-02  0.7578E-01
     32.800  0.3923E-02  0.7656E-01
     32.972  0.2997E-02  0.7715E-01
     33.145  0.2336E-02  0.7760E-01
     33.317  0.1920E-02  0.7797E-01
     33.489  0.1667E-02  0.7827E-01
     33.661  0.1524E-02  0.7855E-01
     33.834  0.1402E-02  0.7880E-01
     34.006  0.1265E-02  0.7903E-01
     34.178  0.1098E-02  0.7923E-01
     34.351  0.9344E-03  0.7941E-01
     34.523  0.8397E-03  0.7956E-01
     34.695  0.7222E-03  0.7969E-01
     34.867  0.6598E-03  0.7981E-01
     35.040  0.4435E-03  0.7991E-01
     35.212  0.2206E-03  0.7997E-01
     35.384  0.7436E-04  0.7999E-01
     35.557  0.5288E-05  0.8000E-01
     35.729  0.0000E+00  0.8000E-01
     35.901  0.0000E+00  0.8000E-01
     36.073  0.0000E+00  0.8000E-01
     36.246  0.0000E+00  0.8000E-01
     36.418  0.0000E+00  0.8000E-01
     36.590  0.0000E+00  0.8000E-01
     36.763  0.0000E+00  0.8000E-01
     36.935  0.0000E+00  0.8000E-01
     37.107  0.0000E+00  0.8000E-01
     37.280  0.0000E+00  0.8000E-01
     37.452  0.0000E+00  0.8000E-01
     37.624  0.0000E+00  0.8000E-01
     37.796  0.0000E+00  0.8000E-01
     37.969  0.0000E+00  0.8000E-01
