  80  80   0   0
  0.7454622E+01  0.1068440E-08  0.7473395E-09  0.7468742E-09  0.5000000E-15
  1.000000000000000E-004
  CAR 
 diamond                                 
     10.72472462    -17.40396253  301     -2.75360464      1.00000000
    -17.404  0.0000E+00  0.0000E+00
    -17.310  0.0000E+00  0.0000E+00
    -17.216  0.0000E+00  0.0000E+00
    -17.123  0.0000E+00  0.0000E+00
    -17.029  0.0000E+00  0.0000E+00
    -16.935  0.0000E+00  0.0000E+00
    -16.841  0.0000E+00  0.0000E+00
    -16.748  0.0000E+00  0.0000E+00
    -16.654  0.0000E+00  0.0000E+00
    -16.560  0.0000E+00  0.0000E+00
    -16.466  0.0000E+00  0.0000E+00
    -16.373  0.0000E+00  0.0000E+00
    -16.279  0.0000E+00  0.0000E+00
    -16.185  0.0000E+00  0.0000E+00
    -16.091  0.0000E+00  0.0000E+00
    -15.998  0.0000E+00  0.0000E+00
    -15.904  0.0000E+00  0.0000E+00
    -15.810  0.0000E+00  0.0000E+00
    -15.716  0.0000E+00  0.0000E+00
    -15.622  0.0000E+00  0.0000E+00
    -15.529  0.0000E+00  0.0000E+00
    -15.435  0.0000E+00  0.0000E+00
    -15.341  0.1578E+00  0.4286E-02
    -15.247  0.2946E+00  0.3729E-01
    -15.154  0.0000E+00  0.4000E-01
    -15.060  0.0000E+00  0.4000E-01
    -14.966  0.0000E+00  0.4000E-01
    -14.872  0.0000E+00  0.4000E-01
    -14.779  0.0000E+00  0.4000E-01
    -14.685  0.0000E+00  0.4000E-01
    -14.591  0.0000E+00  0.4000E-01
    -14.497  0.0000E+00  0.4000E-01
    -14.404  0.0000E+00  0.4000E-01
    -14.310  0.0000E+00  0.4000E-01
    -14.216  0.0000E+00  0.4000E-01
    -14.122  0.0000E+00  0.4000E-01
    -14.029  0.0000E+00  0.4000E-01
    -13.935  0.0000E+00  0.4000E-01
    -13.841  0.0000E+00  0.4000E-01
    -13.747  0.0000E+00  0.4000E-01
    -13.653  0.3132E+00  0.4687E-01
    -13.560  0.9245E-01  0.7889E-01
    -13.466  0.4118E+00  0.9117E-01
    -13.372  0.1061E+00  0.1161E+00
    -13.278  0.0000E+00  0.1200E+00
    -13.185  0.0000E+00  0.1200E+00
    -13.091  0.0000E+00  0.1200E+00
    -12.997  0.0000E+00  0.1200E+00
    -12.903  0.0000E+00  0.1200E+00
    -12.810  0.0000E+00  0.1200E+00
    -12.716  0.0000E+00  0.1200E+00
    -12.622  0.0000E+00  0.1200E+00
    -12.528  0.0000E+00  0.1200E+00
    -12.435  0.0000E+00  0.1200E+00
    -12.341  0.0000E+00  0.1200E+00
    -12.247  0.0000E+00  0.1200E+00
    -12.153  0.0000E+00  0.1200E+00
    -12.060  0.0000E+00  0.1200E+00
    -11.966  0.0000E+00  0.1200E+00
    -11.872  0.0000E+00  0.1200E+00
    -11.778  0.0000E+00  0.1200E+00
    -11.684  0.0000E+00  0.1200E+00
    -11.591  0.0000E+00  0.1200E+00
    -11.497  0.0000E+00  0.1200E+00
    -11.403  0.0000E+00  0.1200E+00
    -11.309  0.0000E+00  0.1200E+00
    -11.216  0.0000E+00  0.1200E+00
    -11.122  0.0000E+00  0.1200E+00
    -11.028  0.0000E+00  0.1200E+00
    -10.934  0.0000E+00  0.1200E+00
    -10.841  0.2011E+00  0.1286E+00
    -10.747  0.1825E+00  0.1585E+00
    -10.653  0.0000E+00  0.1600E+00
    -10.559  0.0000E+00  0.1600E+00
    -10.466  0.0000E+00  0.1600E+00
    -10.372  0.0000E+00  0.1600E+00
    -10.278  0.0000E+00  0.1600E+00
    -10.184  0.0000E+00  0.1600E+00
    -10.091  0.0000E+00  0.1600E+00
     -9.997  0.0000E+00  0.1600E+00
     -9.903  0.0000E+00  0.1600E+00
     -9.809  0.0000E+00  0.1600E+00
     -9.715  0.0000E+00  0.1600E+00
     -9.622  0.0000E+00  0.1600E+00
     -9.528  0.0000E+00  0.1600E+00
     -9.434  0.0000E+00  0.1600E+00
     -9.340  0.0000E+00  0.1600E+00
     -9.247  0.0000E+00  0.1600E+00
     -9.153  0.0000E+00  0.1600E+00
     -9.059  0.0000E+00  0.1600E+00
     -8.965  0.0000E+00  0.1600E+00
     -8.872  0.1137E+00  0.1710E+00
     -8.778  0.8889E-01  0.1795E+00
     -8.684  0.1272E+00  0.1903E+00
     -8.590  0.2741E-01  0.1984E+00
     -8.497  0.4560E-02  0.1999E+00
     -8.403  0.0000E+00  0.2000E+00
     -8.309  0.0000E+00  0.2000E+00
     -8.215  0.0000E+00  0.2000E+00
     -8.121  0.1852E-02  0.2000E+00
     -8.028  0.1014E-01  0.2006E+00
     -7.934  0.1844E-01  0.2019E+00
     -7.840  0.3862E-01  0.2047E+00
     -7.746  0.4662E-01  0.2087E+00
     -7.653  0.5213E-01  0.2133E+00
     -7.559  0.5350E-01  0.2184E+00
     -7.465  0.6254E-01  0.2235E+00
     -7.371  0.7663E-01  0.2306E+00
     -7.278  0.4863E-01  0.2367E+00
     -7.184  0.1511E-01  0.2396E+00
     -7.090  0.0000E+00  0.2400E+00
     -6.996  0.3276E-01  0.2405E+00
     -6.903  0.6310E-01  0.2453E+00
     -6.809  0.8607E-01  0.2525E+00
     -6.715  0.7712E-01  0.2602E+00
     -6.621  0.6674E-01  0.2670E+00
     -6.528  0.4926E-01  0.2724E+00
     -6.434  0.6209E-01  0.2787E+00
     -6.340  0.2256E+00  0.2879E+00
     -6.246  0.9626E-01  0.3193E+00
     -6.152  0.2143E+00  0.3326E+00
     -6.059  0.2046E+00  0.3505E+00
     -5.965  0.2029E+00  0.3673E+00
     -5.871  0.2999E+00  0.3920E+00
     -5.777  0.2743E+00  0.4239E+00
     -5.684  0.2634E+00  0.4465E+00
     -5.590  0.2687E+00  0.4693E+00
     -5.496  0.9824E-01  0.4808E+00
     -5.402  0.1047E+00  0.4897E+00
     -5.309  0.7371E-01  0.4971E+00
     -5.215  0.1525E+00  0.5084E+00
     -5.121  0.6407E-01  0.5210E+00
     -5.027  0.2181E+00  0.5345E+00
     -4.934  0.1036E+00  0.5512E+00
     -4.840  0.5196E-01  0.5585E+00
     -4.746  0.9227E-01  0.5631E+00
     -4.652  0.1808E+00  0.5779E+00
     -4.559  0.1165E+00  0.5910E+00
     -4.465  0.2661E-01  0.5995E+00
     -4.371  0.0000E+00  0.6000E+00
     -4.277  0.0000E+00  0.6000E+00
     -4.183  0.0000E+00  0.6000E+00
     -4.090  0.0000E+00  0.6000E+00
     -3.996  0.0000E+00  0.6000E+00
     -3.902  0.0000E+00  0.6000E+00
     -3.808  0.0000E+00  0.6000E+00
     -3.715  0.0000E+00  0.6000E+00
     -3.621  0.0000E+00  0.6000E+00
     -3.527  0.0000E+00  0.6000E+00
     -3.433  0.0000E+00  0.6000E+00
     -3.340  0.0000E+00  0.6000E+00
     -3.246  0.0000E+00  0.6000E+00
     -3.152  0.0000E+00  0.6000E+00
     -3.058  0.1065E-01  0.6001E+00
     -2.965  0.8790E-01  0.6044E+00
     -2.871  0.4732E+00  0.6260E+00
     -2.777  0.0000E+00  0.6400E+00
     -2.683  0.0000E+00  0.6400E+00
     -2.590  0.0000E+00  0.6400E+00
     -2.496  0.0000E+00  0.6400E+00
     -2.402  0.0000E+00  0.6400E+00
     -2.308  0.0000E+00  0.6400E+00
     -2.214  0.0000E+00  0.6400E+00
     -2.121  0.0000E+00  0.6400E+00
     -2.027  0.0000E+00  0.6400E+00
     -1.933  0.0000E+00  0.6400E+00
     -1.839  0.0000E+00  0.6400E+00
     -1.746  0.0000E+00  0.6400E+00
     -1.652  0.0000E+00  0.6400E+00
     -1.558  0.0000E+00  0.6400E+00
     -1.464  0.0000E+00  0.6400E+00
     -1.371  0.0000E+00  0.6400E+00
     -1.277  0.0000E+00  0.6400E+00
     -1.183  0.0000E+00  0.6400E+00
     -1.089  0.0000E+00  0.6400E+00
     -0.996  0.0000E+00  0.6400E+00
     -0.902  0.0000E+00  0.6400E+00
     -0.808  0.0000E+00  0.6400E+00
     -0.714  0.0000E+00  0.6400E+00
     -0.621  0.0000E+00  0.6400E+00
     -0.527  0.0000E+00  0.6400E+00
     -0.433  0.0000E+00  0.6400E+00
     -0.339  0.0000E+00  0.6400E+00
     -0.245  0.0000E+00  0.6400E+00
     -0.152  0.0000E+00  0.6400E+00
     -0.058  0.0000E+00  0.6400E+00
      0.036  0.0000E+00  0.6400E+00
      0.130  0.0000E+00  0.6400E+00
      0.223  0.0000E+00  0.6400E+00
      0.317  0.0000E+00  0.6400E+00
      0.411  0.0000E+00  0.6400E+00
      0.505  0.0000E+00  0.6400E+00
      0.598  0.0000E+00  0.6400E+00
      0.692  0.0000E+00  0.6400E+00
      0.786  0.0000E+00  0.6400E+00
      0.880  0.0000E+00  0.6400E+00
      0.973  0.0000E+00  0.6400E+00
      1.067  0.0000E+00  0.6400E+00
      1.161  0.0000E+00  0.6400E+00
      1.255  0.0000E+00  0.6400E+00
      1.348  0.0000E+00  0.6400E+00
      1.442  0.0000E+00  0.6400E+00
      1.536  0.0000E+00  0.6400E+00
      1.630  0.0000E+00  0.6400E+00
      1.724  0.0000E+00  0.6400E+00
      1.817  0.0000E+00  0.6400E+00
      1.911  0.0000E+00  0.6400E+00
      2.005  0.0000E+00  0.6400E+00
      2.099  0.5682E-01  0.6406E+00
      2.192  0.1206E+00  0.6498E+00
      2.286  0.9234E-01  0.6611E+00
      2.380  0.8857E-01  0.6690E+00
      2.474  0.5133E-01  0.6758E+00
      2.567  0.1904E-01  0.6788E+00
      2.661  0.4593E-02  0.6799E+00
      2.755  0.0000E+00  0.6800E+00
      2.849  0.0000E+00  0.6800E+00
      2.942  0.0000E+00  0.6800E+00
      3.036  0.0000E+00  0.6800E+00
      3.130  0.0000E+00  0.6800E+00
      3.224  0.0000E+00  0.6800E+00
      3.318  0.0000E+00  0.6800E+00
      3.411  0.6078E-03  0.6800E+00
      3.505  0.7643E-02  0.6804E+00
      3.599  0.1483E-01  0.6814E+00
      3.693  0.2372E-01  0.6832E+00
      3.786  0.4391E-01  0.6861E+00
      3.880  0.6478E-01  0.6917E+00
      3.974  0.8682E-01  0.6985E+00
      4.068  0.1265E+00  0.7097E+00
      4.161  0.3889E-01  0.7179E+00
      4.255  0.3125E-01  0.7204E+00
      4.349  0.1359E+00  0.7269E+00
      4.443  0.1277E+00  0.7412E+00
      4.536  0.1001E+00  0.7514E+00
      4.630  0.3942E-01  0.7589E+00
      4.724  0.3409E-01  0.7610E+00
      4.818  0.8839E-01  0.7674E+00
      4.911  0.9894E-01  0.7763E+00
      5.005  0.1172E+00  0.7865E+00
      5.099  0.9242E-01  0.7966E+00
      5.193  0.8146E-01  0.8030E+00
      5.287  0.7777E-01  0.8113E+00
      5.380  0.6520E-01  0.8179E+00
      5.474  0.7403E-01  0.8243E+00
      5.568  0.7662E-01  0.8320E+00
      5.662  0.6359E-01  0.8385E+00
      5.755  0.4932E-01  0.8439E+00
      5.849  0.9790E-01  0.8504E+00
      5.943  0.6386E-01  0.8586E+00
      6.037  0.5422E-01  0.8643E+00
      6.130  0.4688E-01  0.8688E+00
      6.224  0.4933E-01  0.8735E+00
      6.318  0.2836E-01  0.8771E+00
      6.412  0.2461E-01  0.8794E+00
      6.505  0.1789E-01  0.8812E+00
      6.599  0.3279E-01  0.8836E+00
      6.693  0.4600E-01  0.8873E+00
      6.787  0.6155E-01  0.8922E+00
      6.880  0.1150E+00  0.8999E+00
      6.974  0.1043E+00  0.9110E+00
      7.068  0.8241E-01  0.9197E+00
      7.162  0.6427E-01  0.9258E+00
      7.256  0.9708E-01  0.9333E+00
      7.349  0.6500E-01  0.9422E+00
      7.443  0.1252E+00  0.9514E+00
      7.537  0.5658E-01  0.9600E+00
      7.631  0.7266E-01  0.9649E+00
      7.724  0.1468E+00  0.9752E+00
      7.818  0.1442E+00  0.9888E+00
      7.912  0.5156E-01  0.9982E+00
      8.006  0.7776E-01  0.1003E+01
      8.099  0.1120E+00  0.1011E+01
      8.193  0.1782E+00  0.1024E+01
      8.287  0.1159E+00  0.1037E+01
      8.381  0.1142E+00  0.1049E+01
      8.474  0.5027E-01  0.1056E+01
      8.568  0.1931E-01  0.1059E+01
      8.662  0.3148E-02  0.1060E+01
      8.756  0.0000E+00  0.1060E+01
      8.849  0.0000E+00  0.1060E+01
      8.943  0.0000E+00  0.1060E+01
      9.037  0.0000E+00  0.1060E+01
      9.131  0.0000E+00  0.1060E+01
      9.225  0.0000E+00  0.1060E+01
      9.318  0.0000E+00  0.1060E+01
      9.412  0.0000E+00  0.1060E+01
      9.506  0.0000E+00  0.1060E+01
      9.600  0.0000E+00  0.1060E+01
      9.693  0.0000E+00  0.1060E+01
      9.787  0.0000E+00  0.1060E+01
      9.881  0.0000E+00  0.1060E+01
      9.975  0.0000E+00  0.1060E+01
     10.068  0.0000E+00  0.1060E+01
     10.162  0.0000E+00  0.1060E+01
     10.256  0.0000E+00  0.1060E+01
     10.350  0.0000E+00  0.1060E+01
     10.443  0.0000E+00  0.1060E+01
     10.537  0.0000E+00  0.1060E+01
     10.631  0.0000E+00  0.1060E+01
     10.725  0.0000E+00  0.1060E+01
