   80   80  200    1
  0.7454622E+01  0.1068440E-08  0.7473395E-09  0.7468742E-09  0.5000000E-15
  1.000000000000000E-004
  CAR 
 diamond                                 
    128     27    106
 
  0.0000000E+00  0.0000000E+00  0.0000000E+00  0.1562500E-01
    1      -15.403963
    2      -15.335408
    3      -15.233614
    4      -15.227272
    5      -13.698306
    6      -13.667052
    7      -13.563593
    8      -13.529142
    9      -13.488760
   10      -13.468098
   11      -13.407305
   12      -13.298842
   13      -10.927670
   14      -10.897402
   15      -10.761180
   16      -10.728555
   17       -8.937162
   18       -8.858748
   19       -8.509485
   20       -8.447750
   21       -8.147989
   22       -8.114764
   23       -7.582388
   24       -7.567414
   25       -6.497847
   26       -6.465579
   27       -6.404210
   28       -6.395226
   29       -6.365469
   30       -6.329105
   31       -6.253402
   32       -6.200061
   33       -6.184121
   34       -6.084748
   35       -6.081782
   36       -6.028632
   37       -6.027854
   38       -6.004365
   39       -5.997938
   40       -5.896659
   41       -5.863963
   42       -5.782456
   43       -5.754586
   44       -5.749873
   45       -5.687450
   46       -5.672006
   47       -5.640744
   48       -5.493363
   49       -5.488056
   50       -5.315366
   51       -5.287818
   52       -5.233204
   53       -5.072091
   54       -5.065497
   55       -5.036695
   56       -4.799210
   57       -4.779435
   58       -4.683496
   59       -4.481595
   60       -4.424729
   61       -3.093668
   62       -2.917064
   63       -2.854037
   64       -2.783602
   65        2.060562
   66        2.080134
   67        2.531956
   68        2.737284
   69        3.380528
   70        3.601122
   71        3.816347
   72        4.281441
   73        4.338645
   74        4.509801
   75        4.541084
   76        4.541594
   77        4.575993
   78        4.879895
   79        4.988753
   80        5.291002
   81        5.524450
   82        5.602507
   83        5.667627
   84        5.758013
   85        5.801901
   86        6.089094
   87        6.264552
   88        6.283895
   89        6.651022
   90        6.655210
   91        6.799860
   92        6.904502
   93        7.093937
   94        7.155646
   95        7.318195
   96        7.441216
   97        7.511038
   98        7.637498
   99        7.669734
  100        7.993302
  101        8.047932
  102        8.095969
  103        8.172474
  104        8.178827
  105        8.291361
  106        8.328061
 
  0.2500000E+00  0.0000000E+00  0.0000000E+00  0.3125000E-01
    1      -15.394273
    2      -15.345839
    3      -15.232518
    4      -15.228019
    5      -13.696742
    6      -13.674152
    7      -13.573418
    8      -13.555938
    9      -13.463596
   10      -13.455862
   11      -13.387635
   12      -13.311395
   13      -10.923260
   14      -10.901888
   15      -10.756463
   16      -10.733405
   17       -8.926358
   18       -8.870946
   19       -8.500976
   20       -8.457348
   21       -8.152113
   22       -8.129730
   23       -7.594423
   24       -7.584630
   25       -6.491761
   26       -6.469852
   27       -6.409094
   28       -6.394137
   29       -6.358710
   30       -6.336371
   31       -6.312397
   32       -6.232037
   33       -6.105809
   34       -6.103166
   35       -6.047311
   36       -5.995750
   37       -5.932972
   38       -5.927382
   39       -5.896650
   40       -5.892386
   41       -5.884245
   42       -5.772102
   43       -5.758699
   44       -5.756135
   45       -5.718707
   46       -5.676512
   47       -5.639984
   48       -5.526586
   49       -5.511759
   50       -5.502942
   51       -5.192312
   52       -5.104920
   53       -5.086613
   54       -5.079555
   55       -5.070388
   56       -4.837421
   57       -4.823257
   58       -4.748340
   59       -4.490845
   60       -4.445917
   61       -3.035673
   62       -2.898946
   63       -2.854791
   64       -2.819890
   65        2.130849
   66        2.176212
   67        2.466221
   68        2.641323
   69        3.429742
   70        3.698252
   71        3.735367
   72        4.256429
   73        4.313553
   74        4.322848
   75        4.417529
   76        4.497488
   77        4.764324
   78        4.969862
   79        5.030619
   80        5.374118
   81        5.510318
   82        5.526379
   83        5.592284
   84        5.670900
   85        6.053149
   86        6.200207
   87        6.359105
   88        6.435611
   89        6.517671
   90        6.585798
   91        6.756510
   92        6.814561
   93        6.907139
   94        7.174701
   95        7.423909
   96        7.511250
   97        7.646027
   98        7.881631
   99        7.889174
  100        7.891133
  101        7.930456
  102        7.948501
  103        7.976138
  104        8.062820
  105        8.169879
  106        8.211082
 
  0.5000000E+00  0.0000000E+00  0.0000000E+00  0.1562500E-01
    1      -15.370393
    2      -15.370393
    3      -15.230056
    4      -15.230056
    5      -13.688079
    6      -13.688076
    7      -13.577115
    8      -13.577114
    9      -13.446851
   10      -13.446850
   11      -13.346022
   12      -13.346019
   13      -10.912607
   14      -10.912607
   15      -10.744971
   16      -10.744971
   17       -8.899300
   18       -8.899300
   19       -8.479706
   20       -8.479706
   21       -8.150210
   22       -8.150210
   23       -7.603724
   24       -7.603724
   25       -6.480020
   26       -6.480017
   27       -6.396650
   28       -6.396649
   29       -6.371899
   30       -6.371899
   31       -6.282956
   32       -6.282956
   33       -6.087463
   34       -6.087460
   35       -5.964591
   36       -5.964590
   37       -5.840290
   38       -5.840290
   39       -5.827916
   40       -5.827915
   41       -5.807469
   42       -5.807468
   43       -5.779176
   44       -5.779175
   45       -5.766638
   46       -5.766637
   47       -5.630779
   48       -5.630776
   49       -5.530889
   50       -5.530887
   51       -5.129280
   52       -5.129279
   53       -5.099604
   54       -5.099603
   55       -4.944776
   56       -4.944774
   57       -4.845099
   58       -4.845099
   59       -4.482345
   60       -4.482344
   61       -2.917518
   62       -2.917518
   63       -2.868388
   64       -2.868388
   65        2.300376
   66        2.300376
   67        2.408923
   68        2.408924
   69        3.567056
   70        3.567058
   71        3.969026
   72        3.969028
   73        4.265389
   74        4.265390
   75        4.411962
   76        4.411962
   77        4.914773
   78        4.914774
   79        5.353779
   80        5.353779
   81        5.523502
   82        5.523502
   83        5.536663
   84        5.536663
   85        6.125577
   86        6.125578
   87        6.513077
   88        6.513080
   89        6.545536
   90        6.545538
   91        6.847162
   92        6.847164
   93        6.971874
   94        6.971875
   95        7.518088
   96        7.518089
   97        7.682677
   98        7.682678
   99        7.856851
  100        7.856852
  101        7.864612
  102        7.864612
  103        7.912210
  104        7.912211
  105        8.098519
  106        8.098519
 
  0.0000000E+00  0.2500000E+00  0.0000000E+00  0.3125000E-01
    1      -15.377865
    2      -15.317619
    3      -15.257096
    4      -15.240839
    5      -13.666395
    6      -13.653948
    7      -13.557932
    8      -13.549512
    9      -13.503791
   10      -13.462134
   11      -13.438861
   12      -13.327957
   13      -10.893840
   14      -10.863632
   15      -10.771109
   16      -10.741410
   17       -8.949328
   18       -8.908155
   19       -8.715729
   20       -8.707638
   21       -7.807291
   22       -7.701663
   23       -7.419708
   24       -7.347260
   25       -6.657054
   26       -6.560608
   27       -6.478151
   28       -6.446700
   29       -6.396462
   30       -6.369786
   31       -6.326165
   32       -6.281460
   33       -6.259669
   34       -6.157733
   35       -6.073733
   36       -6.069287
   37       -5.987670
   38       -5.934341
   39       -5.923298
   40       -5.911998
   41       -5.850062
   42       -5.823327
   43       -5.770093
   44       -5.757397
   45       -5.715219
   46       -5.651084
   47       -5.587042
   48       -5.503931
   49       -5.498359
   50       -5.398678
   51       -5.288993
   52       -5.254518
   53       -5.233280
   54       -5.015161
   55       -5.014377
   56       -4.898686
   57       -4.639826
   58       -4.593876
   59       -4.471055
   60       -4.429614
   61       -3.062005
   62       -2.939988
   63       -2.841822
   64       -2.793506
   65        2.075323
   66        2.087199
   67        2.525246
   68        2.658958
   69        3.496056
   70        3.783537
   71        3.873788
   72        4.292491
   73        4.417585
   74        4.503748
   75        4.563309
   76        4.569361
   77        4.823732
   78        4.843438
   79        5.027520
   80        5.157814
   81        5.170946
   82        5.211380
   83        5.436407
   84        5.517056
   85        5.785308
   86        5.969536
   87        6.292694
   88        6.485786
   89        6.759852
   90        6.768694
   91        6.817812
   92        6.862300
   93        6.995007
   94        7.179389
   95        7.345219
   96        7.378176
   97        7.420287
   98        7.552549
   99        7.943926
  100        8.077157
  101        8.183655
  102        8.248512
  103        8.307610
  104        8.313561
  105        8.372068
  106        8.388115
 
  0.2500000E+00  0.2500000E+00  0.0000000E+00  0.6250000E-01
    1      -15.369259
    2      -15.326658
    3      -15.254529
    4      -15.243019
    5      -13.669696
    6      -13.659749
    7      -13.571686
    8      -13.571607
    9      -13.476260
   10      -13.452796
   11      -13.416737
   12      -13.339438
   13      -10.889460
   14      -10.868106
   15      -10.766864
   16      -10.745871
   17       -8.944421
   18       -8.915410
   19       -8.717453
   20       -8.711957
   21       -7.798483
   22       -7.725190
   23       -7.425161
   24       -7.374233
   25       -6.656641
   26       -6.608280
   27       -6.485103
   28       -6.465188
   29       -6.348349
   30       -6.327420
   31       -6.293632
   32       -6.292823
   33       -6.223183
   34       -6.190552
   35       -6.013812
   36       -6.004201
   37       -5.980283
   38       -5.961705
   39       -5.928694
   40       -5.848177
   41       -5.839876
   42       -5.811979
   43       -5.798002
   44       -5.772257
   45       -5.721087
   46       -5.653053
   47       -5.582573
   48       -5.518146
   49       -5.504186
   50       -5.453142
   51       -5.276251
   52       -5.237325
   53       -5.161755
   54       -5.033973
   55       -5.028097
   56       -4.934568
   57       -4.680238
   58       -4.643412
   59       -4.490890
   60       -4.455136
   61       -3.011849
   62       -2.917170
   63       -2.848688
   64       -2.824961
   65        2.142327
   66        2.172469
   67        2.461975
   68        2.577613
   69        3.541118
   70        3.813528
   71        3.847386
   72        4.201190
   73        4.428122
   74        4.539528
   75        4.560515
   76        4.574641
   77        4.735639
   78        4.791729
   79        4.987136
   80        5.026952
   81        5.279001
   82        5.295471
   83        5.514850
   84        5.775622
   85        5.930268
   86        6.087810
   87        6.208150
   88        6.353377
   89        6.387901
   90        6.679649
   91        6.779765
   92        6.851275
   93        6.991502
   94        7.100490
   95        7.450434
   96        7.580830
   97        7.736730
   98        7.817823
   99        7.840652
  100        7.955220
  101        8.009193
  102        8.117552
  103        8.189133
  104        8.299228
  105        8.319446
  106        8.331736
 
  0.5000000E+00  0.2500000E+00  0.0000000E+00  0.3125000E-01
    1      -15.348184
    2      -15.348183
    3      -15.248604
    4      -15.248604
    5      -13.668987
    6      -13.668984
    7      -13.584163
    8      -13.584162
    9      -13.451518
   10      -13.451517
   11      -13.373088
   12      -13.373085
   13      -10.878860
   14      -10.878860
   15      -10.756472
   16      -10.756472
   17       -8.931101
   18       -8.931101
   19       -8.717744
   20       -8.717744
   21       -7.768905
   22       -7.768904
   23       -7.415333
   24       -7.415333
   25       -6.646188
   26       -6.646188
   27       -6.485566
   28       -6.485565
   29       -6.315733
   30       -6.315730
   31       -6.305497
   32       -6.305495
   33       -6.093552
   34       -6.093550
   35       -6.068086
   36       -6.068085
   37       -5.958174
   38       -5.958173
   39       -5.832982
   40       -5.832981
   41       -5.820285
   42       -5.820284
   43       -5.812462
   44       -5.812460
   45       -5.682203
   46       -5.682201
   47       -5.557564
   48       -5.557563
   49       -5.494896
   50       -5.494895
   51       -5.252991
   52       -5.252991
   53       -5.048498
   54       -5.048498
   55       -5.031223
   56       -5.031221
   57       -4.709557
   58       -4.709556
   59       -4.494627
   60       -4.494627
   61       -2.909539
   62       -2.909539
   63       -2.875200
   64       -2.875199
   65        2.303691
   66        2.303691
   67        2.376960
   68        2.376960
   69        3.667602
   70        3.667604
   71        4.014207
   72        4.014208
   73        4.477316
   74        4.477316
   75        4.608017
   76        4.608017
   77        4.688157
   78        4.688158
   79        4.979394
   80        4.979394
   81        5.496955
   82        5.496955
   83        5.511302
   84        5.511302
   85        6.091607
   86        6.091608
   87        6.467522
   88        6.467522
   89        6.591511
   90        6.591511
   91        6.606478
   92        6.606479
   93        6.828982
   94        6.828983
   95        7.573343
   96        7.573344
   97        7.815524
   98        7.815524
   99        7.859425
  100        7.859426
  101        7.969576
  102        7.969577
  103        8.303710
  104        8.303711
  105        8.349465
  106        8.349465
 
  0.0000000E+00  0.5000000E+00  0.0000000E+00  0.1562500E-01
    1      -15.316168
    2      -15.316168
    3      -15.277098
    4      -15.277098
    5      -13.613638
    6      -13.613638
    7      -13.586963
    8      -13.586963
    9      -13.502861
   10      -13.502861
   11      -13.396315
   12      -13.396315
   13      -10.821115
   14      -10.821115
   15      -10.792132
   16      -10.792132
   17       -8.904303
   18       -8.904303
   19       -8.896148
   20       -8.896148
   21       -7.215927
   22       -7.215927
   23       -7.117433
   24       -7.117433
   25       -7.004768
   26       -7.004768
   27       -6.833695
   28       -6.833695
   29       -6.315861
   30       -6.315861
   31       -6.285902
   32       -6.285902
   33       -6.196929
   34       -6.196929
   35       -6.137455
   36       -6.137455
   37       -5.944662
   38       -5.944662
   39       -5.814157
   40       -5.814157
   41       -5.782739
   42       -5.782739
   43       -5.764112
   44       -5.764112
   45       -5.730815
   46       -5.730815
   47       -5.582226
   48       -5.582226
   49       -5.509402
   50       -5.509402
   51       -5.258696
   52       -5.258696
   53       -5.098252
   54       -5.098252
   55       -5.075383
   56       -5.075383
   57       -4.492164
   58       -4.492164
   59       -4.476862
   60       -4.476862
   61       -2.997083
   62       -2.997083
   63       -2.816708
   64       -2.816708
   65        2.094509
   66        2.094509
   67        2.560215
   68        2.560215
   69        3.767615
   70        3.767615
   71        4.107975
   72        4.107975
   73        4.644235
   74        4.644235
   75        4.716815
   76        4.716815
   77        4.838481
   78        4.838481
   79        4.861362
   80        4.861362
   81        4.978544
   82        4.978544
   83        5.195778
   84        5.195778
   85        5.968331
   86        5.968331
   87        6.241527
   88        6.241527
   89        6.496876
   90        6.496876
   91        6.949050
   92        6.949050
   93        7.313945
   94        7.313945
   95        7.519731
   96        7.519731
   97        7.592018
   98        7.592018
   99        7.832952
  100        7.832952
  101        8.408852
  102        8.408852
  103        8.482205
  104        8.482205
  105        8.532040
  106        8.532040
 
  0.2500000E+00  0.5000000E+00  0.0000000E+00  0.3125000E-01
    1      -15.310432
    2      -15.310432
    3      -15.282773
    4      -15.282773
    5      -13.618902
    6      -13.618902
    7      -13.606897
    8      -13.606897
    9      -13.470610
   10      -13.470610
   11      -13.402078
   12      -13.402078
   13      -10.816976
   14      -10.816976
   15      -10.796491
   16      -10.796491
   17       -8.905873
   18       -8.905873
   19       -8.900052
   20       -8.900052
   21       -7.205900
   22       -7.205900
   23       -7.135183
   24       -7.135183
   25       -7.000843
   26       -7.000843
   27       -6.880292
   28       -6.880292
   29       -6.319491
   30       -6.319491
   31       -6.288823
   32       -6.288823
   33       -6.121087
   34       -6.121087
   35       -6.112375
   36       -6.112375
   37       -5.894785
   38       -5.894785
   39       -5.838789
   40       -5.838789
   41       -5.805576
   42       -5.805576
   43       -5.752687
   44       -5.752687
   45       -5.723049
   46       -5.723049
   47       -5.621161
   48       -5.621161
   49       -5.447431
   50       -5.447431
   51       -5.286650
   52       -5.286650
   53       -5.099930
   54       -5.099930
   55       -5.084978
   56       -5.084978
   57       -4.526783
   58       -4.526783
   59       -4.510284
   60       -4.510284
   61       -2.961948
   62       -2.961948
   63       -2.836487
   64       -2.836487
   65        2.162805
   66        2.162805
   67        2.492163
   68        2.492163
   69        3.825469
   70        3.825469
   71        4.148448
   72        4.148448
   73        4.409581
   74        4.409581
   75        4.672980
   76        4.672980
   77        4.750700
   78        4.750700
   79        4.853559
   80        4.853559
   81        5.206994
   82        5.206994
   83        5.556062
   84        5.556062
   85        5.915263
   86        5.915263
   87        6.083231
   88        6.083231
   89        6.345367
   90        6.345367
   91        6.907333
   92        6.907333
   93        7.294510
   94        7.294510
   95        7.523004
   96        7.523004
   97        7.819918
   98        7.819918
   99        7.824600
  100        7.824600
  101        7.923503
  102        7.923503
  103        8.563704
  104        8.563704
  105        8.572198
  106        8.572198
 
  0.5000000E+00  0.5000000E+00  0.0000000E+00  0.1562500E-01
    1      -15.296555
    2      -15.296554
    3      -15.296552
    4      -15.296552
    5      -13.622312
    6      -13.622312
    7      -13.622309
    8      -13.622309
    9      -13.426268
   10      -13.426268
   11      -13.426266
   12      -13.426266
   13      -10.806847
   14      -10.806846
   15      -10.806846
   16      -10.806846
   17       -8.905710
   18       -8.905709
   19       -8.905709
   20       -8.905709
   21       -7.175469
   22       -7.175469
   23       -7.175468
   24       -7.175468
   25       -6.958497
   26       -6.958497
   27       -6.958496
   28       -6.958496
   29       -6.309234
   30       -6.309234
   31       -6.309231
   32       -6.309231
   33       -6.052256
   34       -6.052256
   35       -6.052256
   36       -6.052256
   37       -5.862134
   38       -5.862134
   39       -5.862134
   40       -5.862134
   41       -5.807039
   42       -5.807039
   43       -5.807039
   44       -5.807039
   45       -5.661251
   46       -5.661251
   47       -5.661251
   48       -5.661251
   49       -5.359472
   50       -5.359472
   51       -5.359469
   52       -5.359469
   53       -5.098495
   54       -5.098495
   55       -5.098495
   56       -5.098494
   57       -4.553124
   58       -4.553123
   59       -4.553123
   60       -4.553123
   61       -2.891855
   62       -2.891855
   63       -2.891853
   64       -2.891853
   65        2.327610
   66        2.327610
   67        2.327610
   68        2.327610
   69        3.994815
   70        3.994815
   71        3.994817
   72        3.994817
   73        4.469045
   74        4.469045
   75        4.469046
   76        4.469046
   77        4.799566
   78        4.799566
   79        4.799566
   80        4.799566
   81        5.535855
   82        5.535855
   83        5.535855
   84        5.535855
   85        6.045188
   86        6.045188
   87        6.045189
   88        6.045189
   89        6.412900
   90        6.412900
   91        6.412900
   92        6.412900
   93        7.417497
   94        7.417497
   95        7.417498
   96        7.417498
   97        7.724337
   98        7.724337
   99        7.724337
  100        7.724337
  101        8.373879
  102        8.373879
  103        8.373881
  104        8.373881
  105        8.597521
  106        8.597522
 
  0.0000000E+00  0.0000000E+00  0.2500000E+00  0.3125000E-01
    1      -15.376094
    2      -15.317418
    3      -15.250559
    4      -15.244930
    5      -13.669091
    6      -13.662702
    7      -13.592007
    8      -13.525589
    9      -13.521034
   10      -13.444241
   11      -13.439127
   12      -13.324603
   13      -10.875370
   14      -10.856237
   15      -10.756999
   16      -10.738772
   17       -8.955721
   18       -8.883731
   19       -8.663985
   20       -8.598967
   21       -7.924483
   22       -7.855960
   23       -7.414986
   24       -7.369205
   25       -6.733205
   26       -6.688340
   27       -6.504047
   28       -6.487162
   29       -6.454535
   30       -6.326839
   31       -6.315890
   32       -6.241422
   33       -6.223519
   34       -6.216971
   35       -6.192042
   36       -6.059847
   37       -5.949475
   38       -5.945470
   39       -5.942207
   40       -5.937284
   41       -5.863889
   42       -5.836545
   43       -5.782592
   44       -5.696563
   45       -5.622674
   46       -5.546432
   47       -5.537710
   48       -5.481719
   49       -5.461640
   50       -5.367301
   51       -5.166669
   52       -5.155901
   53       -5.109814
   54       -4.980408
   55       -4.933336
   56       -4.796051
   57       -4.773836
   58       -4.658801
   59       -4.599434
   60       -4.526106
   61       -3.047447
   62       -2.889680
   63       -2.882549
   64       -2.798831
   65        2.097722
   66        2.122686
   67        2.438168
   68        2.623301
   69        3.546908
   70        3.779604
   71        3.892993
   72        4.273924
   73        4.436747
   74        4.494575
   75        4.567456
   76        4.676082
   77        4.694113
   78        4.695401
   79        4.701634
   80        5.027322
   81        5.105339
   82        5.405013
   83        5.708388
   84        5.737996
   85        5.768221
   86        5.902144
   87        6.124788
   88        6.461558
   89        6.898525
   90        6.931682
   91        6.995712
   92        7.054093
   93        7.083668
   94        7.385969
   95        7.495119
   96        7.526121
   97        7.599662
   98        7.619108
   99        7.698101
  100        7.947202
  101        7.974795
  102        8.096062
  103        8.105557
  104        8.111058
  105        8.151155
  106        8.231802
 
  0.2500000E+00  0.0000000E+00  0.2500000E+00  0.6250000E-01
    1      -15.367679
    2      -15.326183
    3      -15.249519
    4      -15.245536
    5      -13.673682
    6      -13.667864
    7      -13.597605
    8      -13.571102
    9      -13.473469
   10      -13.439623
   11      -13.416042
   12      -13.336354
   13      -10.872838
   14      -10.859309
   15      -10.754530
   16      -10.741682
   17       -8.946384
   18       -8.895571
   19       -8.654989
   20       -8.609018
   21       -7.922985
   22       -7.875929
   23       -7.426068
   24       -7.395507
   25       -6.734643
   26       -6.707697
   27       -6.532055
   28       -6.508731
   29       -6.409575
   30       -6.313130
   31       -6.296037
   32       -6.268844
   33       -6.257924
   34       -6.205252
   35       -6.125794
   36       -5.963057
   37       -5.949187
   38       -5.906138
   39       -5.880161
   40       -5.870287
   41       -5.833818
   42       -5.810394
   43       -5.763675
   44       -5.699445
   45       -5.629496
   46       -5.615468
   47       -5.570037
   48       -5.514128
   49       -5.494605
   50       -5.448680
   51       -5.163856
   52       -5.142541
   53       -5.105935
   54       -4.957988
   55       -4.951141
   56       -4.817580
   57       -4.800171
   58       -4.713208
   59       -4.593822
   60       -4.541988
   61       -3.003816
   62       -2.883073
   63       -2.877793
   64       -2.829958
   65        2.173707
   66        2.174002
   67        2.399221
   68        2.541885
   69        3.607630
   70        3.838649
   71        3.877785
   72        4.155010
   73        4.464964
   74        4.520075
   75        4.548755
   76        4.646116
   77        4.650390
   78        4.692150
   79        4.755967
   80        5.007497
   81        5.280104
   82        5.395799
   83        5.651842
   84        5.672266
   85        5.843688
   86        5.922168
   87        6.179022
   88        6.412843
   89        6.776892
   90        6.867155
   91        6.886188
   92        6.949698
   93        7.188847
   94        7.334553
   95        7.431735
   96        7.432702
   97        7.460205
   98        7.641193
   99        7.671135
  100        7.908043
  101        8.017321
  102        8.087677
  103        8.140132
  104        8.238049
  105        8.300556
  106        8.324295
 
  0.5000000E+00  0.0000000E+00  0.2500000E+00  0.3125000E-01
    1      -15.347133
    2      -15.347133
    3      -15.247323
    4      -15.247323
    5      -13.675326
    6      -13.675323
    7      -13.596950
    8      -13.596949
    9      -13.443430
   10      -13.443429
   11      -13.370896
   12      -13.370893
   13      -10.866353
   14      -10.866352
   15      -10.748349
   16      -10.748349
   17       -8.922230
   18       -8.922229
   19       -8.632551
   20       -8.632551
   21       -7.908481
   22       -7.908481
   23       -7.428670
   24       -7.428670
   25       -6.729995
   26       -6.729995
   27       -6.537958
   28       -6.537957
   29       -6.330113
   30       -6.330111
   31       -6.298539
   32       -6.298537
   33       -6.244467
   34       -6.244465
   35       -6.002104
   36       -6.002101
   37       -5.825315
   38       -5.825315
   39       -5.818432
   40       -5.818432
   41       -5.737625
   42       -5.737625
   43       -5.725616
   44       -5.725616
   45       -5.722421
   46       -5.722418
   47       -5.569993
   48       -5.569990
   49       -5.544302
   50       -5.544300
   51       -5.191891
   52       -5.191891
   53       -5.011412
   54       -5.011411
   55       -4.872560
   56       -4.872559
   57       -4.804008
   58       -4.804008
   59       -4.572855
   60       -4.572854
   61       -2.910898
   62       -2.910898
   63       -2.874887
   64       -2.874887
   65        2.292516
   66        2.292516
   67        2.355907
   68        2.355908
   69        3.760772
   70        3.760774
   71        3.986410
   72        3.986412
   73        4.473261
   74        4.473262
   75        4.538322
   76        4.538322
   77        4.741383
   78        4.741383
   79        4.876181
   80        4.876183
   81        5.519357
   82        5.519357
   83        5.530939
   84        5.530940
   85        5.915846
   86        5.915847
   87        6.241232
   88        6.241233
   89        6.843436
   90        6.843437
   91        6.897478
   92        6.897479
   93        6.985830
   94        6.985831
   95        7.395642
   96        7.395642
   97        7.687853
   98        7.687854
   99        7.850851
  100        7.850852
  101        8.031324
  102        8.031324
  103        8.177899
  104        8.177900
  105        8.242934
  106        8.242936
 
  0.0000000E+00  0.2500000E+00  0.2500000E+00  0.6250000E-01
    1      -15.354874
    2      -15.304983
    3      -15.261816
    4      -15.257450
    5      -13.650470
    6      -13.637856
    7      -13.578844
    8      -13.554913
    9      -13.493552
   10      -13.479016
   11      -13.470912
   12      -13.354720
   13      -10.858186
   14      -10.840476
   15      -10.769096
   16      -10.754529
   17       -8.925322
   18       -8.891167
   19       -8.643680
   20       -8.612167
   21       -7.897972
   22       -7.809525
   23       -7.226068
   24       -7.138419
   25       -6.984701
   26       -6.983680
   27       -6.441188
   28       -6.383291
   29       -6.371313
   30       -6.322377
   31       -6.310194
   32       -6.291543
   33       -6.218235
   34       -6.131027
   35       -6.116147
   36       -6.088521
   37       -6.036301
   38       -6.004311
   39       -5.962133
   40       -5.920350
   41       -5.919744
   42       -5.902855
   43       -5.741365
   44       -5.683354
   45       -5.630570