16   
1    

1    
  0.0100000000000000   0.0000000000000000   0.0000000000000000
  -0.4441266300   -0.0040041300   -0.0028313500
   0.0662439000    0.0000177500    0.0000125500
   0.0020302800    0.0369963700   -0.0114263400
   0.0020858800   -0.0371124400    0.0113294300
   0.0020302800    0.0015592600    0.0386892900
   0.0020858800   -0.0016893200   -0.0387664200
  -0.0007582200   -0.0000552400   -0.0000390600
   0.0043076500    0.0000125800    0.0000088900
   0.1251948700    0.0324309900    0.0229321700
   0.1195323300   -0.0287119300   -0.0203024000
   0.0694723800    0.0003778100    0.0001342400
  -0.0062948300   -0.0000643400    0.0000279900
   0.0694723800    0.0002525000    0.0003114600
  -0.0062948300    0.0000049400   -0.0000699900
  -0.0025040100   -0.0022059100   -0.0015598100
  -0.0024773000    0.0021911100    0.0015493500
