mesh: [     9,     9,     4 ]
nqpoint: 324    
reciprocal_lattice:
- [   0.38221988,  -0.22067475,  -0.15604061 ] # a*
- [   0.00000000,   0.44134950,  -0.15604061 ] # b*
- [   0.00000000,   0.00000000,   0.46812184 ] # c*
natom:   2      
lattice:
- [     2.616295099300000,     0.000000000000000,     0.000000000000000 ] # a
- [     1.308147549600000,     2.265778019800000,     0.000000000000000 ] # b
- [     1.308147549600000,     0.755259339900000,     2.136196003200000 ] # c
points:
- symbol: C  # 1
  coordinates: [  0.000000000000000,  0.000000000000000,  0.000000000000000 ]
  mass: 12.010700
- symbol: C  # 2
  coordinates: [  0.250000000000000,  0.250000000000000,  0.249999985000000 ]
  mass: 12.010700
phonon:
- q-position: [    0.0000000,    0.0000000,    0.1250000 ]
  weight: 1    
  band:
  - # 1
    frequency:     5.4548367488
  - # 2
    frequency:     5.4548367489
  - # 3
    frequency:     9.2946314622
  - # 4
    frequency:    34.3604619127
  - # 5
    frequency:    34.3604619135
  - # 6
    frequency:    34.9919874679

- q-position: [    0.1111111,    0.0000000,    0.1250000 ]
  weight: 1    
  band:
  - # 1
    frequency:     6.2683437572
  - # 2
    frequency:     6.2691585527
  - # 3
    frequency:     9.8669377518
  - # 4
    frequency:    34.2597505350
  - # 5
    frequency:    34.2607899171
  - # 6
    frequency:    35.0710278430

- q-position: [    0.2222222,    0.0000000,    0.1250000 ]
  weight: 1    
  band:
  - # 1
    frequency:     9.6441992519
  - # 2
    frequency:     9.7538538734
  - # 3
    frequency:    15.1646148796
  - # 4
    frequency:    33.5985252600
  - # 5
    frequency:    33.6674637923
  - # 6
    frequency:    35.3552030874

- q-position: [    0.3333333,    0.0000000,    0.1250000 ]
  weight: 1    
  band:
  - # 1
    frequency:    13.2907944692
  - # 2
    frequency:    13.7963982537
  - # 3
    frequency:    20.8344006344
  - # 4
    frequency:    32.4981776220
  - # 5
    frequency:    32.7871500939
  - # 6
    frequency:    35.3217084706

- q-position: [    0.4444444,    0.0000000,    0.1250000 ]
  weight: 1    
  band:
  - # 1
    frequency:    16.0211971304
  - # 2
    frequency:    17.0162239882
  - # 3
    frequency:    25.1631093239
  - # 4
    frequency:    31.3682523504
  - # 5
    frequency:    31.8724460184
  - # 6
    frequency:    34.7216859262

- q-position: [   -0.4444444,    0.0000000,    0.1250000 ]
  weight: 1    
  band:
  - # 1
    frequency:    16.7510676378
  - # 2
    frequency:    18.2362802792
  - # 3
    frequency:    26.5862996508
  - # 4
    frequency:    31.0032069920
  - # 5
    frequency:    31.5481639477
  - # 6
    frequency:    34.2507053957

- q-position: [   -0.3333333,    0.0000000,    0.1250000 ]
  weight: 1    
  band:
  - # 1
    frequency:    15.0777465801
  - # 2
    frequency:    16.8510387294
  - # 3
    frequency:    24.0889149524
  - # 4
    frequency:    31.7545745738
  - # 5
    frequency:    32.1821722078
  - # 6
    frequency:    34.7587389978

- q-position: [   -0.2222222,    0.0000000,    0.1250000 ]
  weight: 1    
  band:
  - # 1
    frequency:    11.8459430493
  - # 2
    frequency:    13.5033382001
  - # 3
    frequency:    19.2345898143
  - # 4
    frequency:    32.9372064103
  - # 5
    frequency:    33.1743525180
  - # 6
    frequency:    35.1979796643

- q-position: [   -0.1111111,    0.0000000,    0.1250000 ]
  weight: 1    
  band:
  - # 1
    frequency:     8.1453001647
  - # 2
    frequency:     9.1438450974
  - # 3
    frequency:    13.6448298765
  - # 4
    frequency:    33.8946942323
  - # 5
    frequency:    33.9447499744
  - # 6
    frequency:    35.1842977994

- q-position: [    0.0000000,    0.1111111,    0.1250000 ]
  weight: 1    
  band:
  - # 1
    frequency:     6.2683437573
  - # 2
    frequency:     6.2691585527
  - # 3
    frequency:     9.8669377518
  - # 4
    frequency:    34.2597505347
  - # 5
    frequency:    34.2607899175
  - # 6
    frequency:    35.0710278430

- q-position: [    0.1111111,    0.1111111,    0.1250000 ]
  weight: 1    
  band:
  - # 1
    frequency:     5.0568455902
  - # 2
    frequency:     5.1442103632
  - # 3
    frequency:     8.6712793837
  - # 4
    frequency:    34.4042547460
  - # 5
    frequency:    34.4073700408
  - # 6
    frequency:    34.9583564730

- q-position: [    0.2222222,    0.1111111,    0.1250000 ]
  weight: 1    
  band:
  - # 1
    frequency:     7.7102317247
  - # 2
    frequency:     8.5963652406
  - # 3
    frequency:    12.9541301831
  - # 4
    frequency:    33.9821088378
  - # 5
    frequency:    34.0174752848
  - # 6
    frequency:    35.1613924357

- q-position: [    0.3333333,    0.1111111,    0.1250000 ]
  weight: 1    
  band:
  - # 1
    frequency:    11.4557212539
  - # 2
    frequency:    12.9578015366
  - # 3
    frequency:    18.6923017378
  - # 4
    frequency:    33.0594566977
  - # 5
    frequency:    33.2559247345
  - # 6
    frequency:    35.2397074014

- q-position: [    0.4444444,    0.1111111,    0.1250000 ]
  weight: 1    
  band:
  - # 1
    frequency:    14.7857537859
  - # 2
    frequency:    16.4096825599
  - # 3
    frequency:    23.7317175543
  - # 4
    frequency:    31.8809496583
  - # 5
    frequency:    32.2529456654
  - # 6
    frequency:    34.8757345567

- q-position: [    0.5555556,    0.1111111,    0.1250000 ]
  weight: 1    
  band:
  - # 1
    frequency:    16.6229682396
  - # 2
    frequency:    18.0072400346
  - # 3
    frequency:    26.5032555461
  - # 4
    frequency:    31.0707374091
  - # 5
    frequency:    31.5635042923
  - # 6
    frequency:    34.3411780887

- q-position: [   -0.3333333,    0.1111111,    0.1250000 ]
  weight: 1    
  band:
  - # 1
    frequency:    16.0733478069
  - # 2
    frequency:    17.0320858522
  - # 3
    frequency:    25.3828906082
  - # 4
    frequency:    31.3471339795
  - # 5
    frequency:    31.8255502768
  - # 6
    frequency:    34.7080524926

- q-position: [   -0.2222222,    0.1111111,    0.1250000 ]
  weight: 1    
  band:
  - # 1
    frequency:    13.4340489378
  - # 2
    frequency:    13.9748420173
  - # 3
    frequency:    21.1718871437
  - # 4
    frequency:    32.4441910431
  - # 5
    frequency:    32.7381419418
  - # 6
    frequency:    35.3029364790

- q-position: [   -0.1111111,    0.1111111,    0.1250000 ]
  weight: 1    
  band:
  - # 1
    frequency:     9.7639782035
  - # 2
    frequency:     9.9732109778
  - # 3
    frequency:    15.4665450703
  - # 4
    frequency:    33.5618657897
  - # 5
    frequency:    33.6443483123
  - # 6
    frequency:    35.3530835349

- q-position: [    0.0000000,    0.2222222,    0.1250000 ]
  weight: 1    
  band:
  - # 1
    frequency:     9.6441992518
  - # 2
    frequency:     9.7538538734
  - # 3
    frequency:    15.1646148797
  - # 4
    frequency:    33.5985252597
  - # 5
    frequency:    33.6674637925
  - # 6
    frequency:    35.3552030876

- q-position: [    0.1111111,    0.2222222,    0.1250000 ]
  weight: 1    
  band:
  - # 1
    frequency:     7.7102317246
  - # 2
    frequency:     8.5963652406
  - # 3
    frequency:    12.9541301832
  - # 4
    frequency:    33.9821088375
  - # 5
    frequency:    34.0174752848
  - # 6
    frequency:    35.1613924360

- q-position: [    0.2222222,    0.2222222,    0.1250000 ]
  weight: 1    
  band:
  - # 1
    frequency:     9.3334774258
  - # 2
    frequency:     9.4045553331
  - # 3
    frequency:    14.9102217394
  - # 4
    frequency:    33.6755721364
  - # 5
    frequency:    33.7539403187
  - # 6
    frequency:    35.3137148200

- q-position: [    0.3333333,    0.2222222,    0.1250000 ]
  weight: 1    
  band:
  - # 1
    frequency:    12.0288556386
  - # 2
    frequency:    13.4612010815
  - # 3
    frequency:    18.9152654850
  - # 4
    frequency:    32.8705502161
  - # 5
    frequency:    33.1061879483
  - # 6
    frequency:    35.2793455785

- q-position: [    0.4444444,    0.2222222,    0.1250000 ]
  weight: 1    
  band:
  - # 1
    frequency:    15.2094071807
  - # 2
    frequency:    17.6479409353
  - # 3
    frequency:    23.0753141954
  - # 4
    frequency:    31.6418846624
  - # 5
    frequency:    32.3675713881
  - # 6
    frequency:    34.6060885437

- q-position: [    0.5555556,    0.2222222,    0.1250000 ]
  weight: 1    
  band:
  - # 1
    frequency:    17.5342813980
  - # 2
    frequency:    20.2977330436
  - # 3
    frequency:    26.2691902893
  - # 4
    frequency:    30.5114159950
  - # 5
    frequency:    31.7118586179
  - # 6
    frequency:    33.4869080547

- q-position: [   -0.3333333,    0.2222222,    0.1250000 ]
  weight: 1    
  band:
  - # 1
    frequency:    17.7236215651
  - # 2
    frequency:    20.3026616589
  - # 3
    frequency:    26.5108028323
  - # 4
    frequency:    30.4147862815
  - # 5
    frequency:    31.5905870036
  - # 6
    frequency:    33.4929548708

- q-position: [   -0.2222222,    0.2222222,    0.1250000 ]
  weight: 1    
  band:
  - # 1
    frequency:    15.6320438037
  - # 2
    frequency:    17.6974450495
  - # 3
    frequency:    23.5751406547
  - # 4
    frequency:    31.4584753552
  - # 5
    frequency:    32.1557099190
  - # 6
    frequency:    34.6569368655

- q-position: [   -0.1111111,    0.2222222,    0.1250000 ]
  weight: 1    
  band:
  - # 1
    frequency:    12.4817149689
  - # 2
    frequency:    13.6681438304
  - # 3
    frequency:    19.3941636000
  - # 4
    frequency:    32.7211848860
  - # 5
    frequency:    32.9355871979
  - # 6
    frequency:    35.3449114832

- q-position: [    0.0000000,    0.3333333,    0.1250000 ]
  weight: 1    
  band:
  - # 1
    frequency:    13.2907944691
  - # 2
    frequency:    13.7963982537
  - # 3
    frequency:    20.8344006346
  - # 4
    frequency:    32.4981776217
  - # 5
    frequency:    32.7871500939
  - # 6
    frequency:    35.3217084709

- q-position: [    0.1111111,    0.3333333,    0.1250000 ]
  weight: 1    
  band:
  - # 1
    frequency:    11.4557212538
  - # 2
    frequency:    12.9578015366
  - # 3
    frequency:    18.6923017381
  - # 4
    frequency:    33.0594566974
  - # 5
    frequency:    33.2559247345
  - # 6
    frequency:    35.2397074018

- q-position: [    0.2222222,    0.3333333,    0.1250000 ]
  weight: 1    
  band:
  - # 1
    frequency:    12.0288556385
  - # 2
    frequency:    13.4612010815
  - # 3
    frequency:    18.9152654851
  - # 4
    frequency:    32.8705502158
  - # 5
    frequency:    33.1061879483
  - # 6
    frequency:    35.2793455787

- q-position: [    0.3333333,    0.3333333,    0.1250000 ]
  weight: 1    
  band:
  - # 1
    frequency:    14.3756464835
  - # 2
    frequency:    14.9432292934
  - # 3
    frequency:    21.6479378034
  - # 4
    frequency:    32.0293757072
  - # 5
    frequency:    32.2504433851
  - # 6
    frequency:    35.4205368389

- q-position: [    0.4444444,    0.3333333,    0.1250000 ]
  weight: 1    
  band:
  - # 1
    frequency:    17.0194173063
  - # 2
    frequency:    18.5143595397
  - # 3
    frequency:    24.7201405052
  - # 4
    frequency:    30.7337575106
  - # 5
    frequency:    31.2990202136
  - # 6
    frequency:    34.8013661102

- q-position: [    0.5555556,    0.3333333,    0.1250000 ]
  weight: 1    
  band:
  - # 1
    frequency:    19.4915033842
  - # 2
    frequency:    22.3752001621
  - # 3
    frequency:    27.0098264235
  - # 4
    frequency:    29.2806446586
  - # 5
    frequency:    30.6659313047
  - # 6
    frequency:    33.1853735862

- q-position: [   -0.3333333,    0.3333333,    0.1250000 ]
  weight: 1    
  band:
  - # 1
    frequency:    20.0998505480
  - # 2
    frequency:    24.4148441423
  - # 3
    frequency:    27.4572706656
  - # 4
    frequency:    28.8172264523
  - # 5
    frequency:    30.9250448564
  - # 6
    frequency:    31.7529389381

- q-position: [   -0.2222222,    0.3333333,    0.1250000 ]
  weight: 1    
  band:
  - # 1
    frequency:    18.2934712905
  - # 2
    frequency:    22.3329537625
  - # 3
    frequency:    25.5742630519
  - # 4
    frequency:    30.0002165257
  - # 5
    frequency:    31.7310405383
  - # 6
    frequency:    32.9480800760

- q-position: [   -0.1111111,    0.3333333,    0.1250000 ]
  weight: 1    
  band:
  - # 1
    frequency:    15.5956774054
  - # 2
    frequency:    17.8209324269
  - # 3
    frequency:    23.4001910039
  - # 4
    frequency:    31.4643062433
  - # 5
    frequency:    32.1821058229
  - # 6
    frequency:    34.6412467043

- q-position: [    0.0000000,    0.4444444,    0.1250000 ]
  weight: 1    
  band:
  - # 1
    frequency:    16.0211971302
  - # 2
    frequency:    17.0162239881
  - # 3
    frequency:    25.1631093242
  - # 4
    frequency:    31.3682523501
  - # 5
    frequency:    31.8724460184
  - # 6
    frequency:    34.7216859266

- q-position: [    0.1111111,    0.4444444,    0.1250000 ]
  weight: 1    
  band:
  - # 1
    frequency:    14.7857537858
  - # 2
    frequency:    16.4096825599
  - # 3
    frequency:    23.7317175546
  - # 4
    frequency:    31.8809496579
  - # 5
    frequency:    32.2529456653
  - # 6
    frequency:    34.8757345571

- q-position: [    0.2222222,    0.4444444,    0.1250000 ]
  weight: 1    
  band:
  - # 1
    frequency:    15.2094071806
  - # 2
    frequency:    17.6479409352
  - # 3
    frequency:    23.0753141957
  - # 4
    frequency:    31.6418846622
  - # 5
    frequency:    32.3675713880
  - # 6
    frequency:    34.6060885441

- q-position: [    0.3333333,    0.4444444,    0.1250000 ]
  weight: 1    
  band:
  - # 1
    frequency:    17.0194173062
  - # 2
    frequency:    18.5143595397
  - # 3
    frequency:    24.7201405053
  - # 4
    frequency:    30.7337575105
  - # 5
    frequency:    31.2990202136
  - # 6
    frequency:    34.8013661103

- q-position: [    0.4444444,    0.4444444,    0.1250000 ]
  weight: 1    
  band:
  - # 1
    frequency:    19.1566850078
  - # 2
    frequency:    20.2050060854
  - # 3
    frequency:    27.3770749164
  - # 4
    frequency:    29.4616038766
  - # 5
    frequency:    29.7158824650
  - # 6
    frequency:    34.5404401395

- q-position: [    0.5555556,    0.4444444,    0.1250000 ]
  weight: 1    
  band:
  - # 1
    frequency:    21.6700873322
  - # 2
    frequency:    22.8103972578
  - # 3
    frequency:    27.8398535330
  - # 4
    frequency:    28.4621153528
  - # 5
    frequency:    29.6007247134
  - # 6
    frequency:    33.1383774971

- q-position: [    0.6666667,    0.4444444,    0.1250000 ]
  weight: 1    
  band:
  - # 1
    frequency:    22.4202179723
  - # 2
    frequency:    25.5445626816
  - # 3
    frequency:    27.3216253297
  - # 4
    frequency:    28.4148118874
  - # 5
    frequency:    29.7351672155
  - # 6
    frequency:    31.4604445557

- q-position: [   -0.2222222,    0.4444444,    0.1250000 ]
  weight: 1    
  band:
  - # 1
    frequency:    20.3003293174
  - # 2
    frequency:    24.8759388458
  - # 3
    frequency:    27.3892337418
  - # 4
    frequency:    28.6845876597
  - # 5
    frequency:    30.7972656807
  - # 6
    frequency:    31.6461980688

- q-position: [   -0.1111111,    0.4444444,    0.1250000 ]
  weight: 1    
  band:
  - # 1
    frequency:    17.8420737307
  - # 2
    frequency:    20.6357116697
  - # 3
    frequency:    26.4070245853
  - # 4
    frequency:    30.3327763781
  - # 5
    frequency:    31.6107991170
  - # 6
    frequency:    33.3879661771

- q-position: [    0.0000000,   -0.4444444,    0.1250000 ]
  weight: 1    
  band:
  - # 1
    frequency:    16.7510676376
  - # 2
    frequency:    18.2362802792
  - # 3
    frequency:    26.5862996511
  - # 4
    frequency:    31.0032069917
  - # 5
    frequency:    31.5481639476
  - # 6
    frequency:    34.2507053961

- q-position: [    0.1111111,    0.5555556,    0.1250000 ]
  weight: 1    
  band:
  - # 1
    frequency:    16.6229682395
  - # 2
    frequency:    18.0072400346
  - # 3
    frequency:    26.5032555464
  - # 4
    frequency:    31.0707374088
  - # 5
    frequency:    31.5635042922
  - # 6
    frequency:    34.3411780891

- q-position: [    0.2222222,    0.5555556,    0.1250000 ]
  weight: 1    
  band:
  - # 1
    frequency:    17.5342813979
  - # 2
    frequency:    20.2977330434
  - # 3
    frequency:    26.2691902896
  - # 4
    frequency:    30.5114159949
  - # 5
    frequency:    31.7118586177
  - # 6
    frequency:    33.4869080551

- q-position: [    0.3333333,    0.5555556,    0.1250000 ]
  weight: 1    
  band:
  - # 1
    frequency:    19.4915033841
  - # 2
    frequency:    22.3752001620
  - # 3
    frequency:    27.0098264237
  - # 4
    frequency:    29.2806446585
  - # 5
    frequency:    30.6659313046
  - # 6
    frequency:    33.1853735863

- q-position: [    0.4444444,    0.5555556,    0.1250000 ]
  weight: 1    
  band:
  - # 1
    frequency:    21.6700873322
  - # 2
    frequency:    22.8103972578
  - # 3
    frequency:    27.8398535330
  - # 4
    frequency:    28.4621153528
  - # 5
    frequency:    29.6007247135
  - # 6
    frequency:    33.1383774971

- q-position: [    0.5555556,    0.5555556,    0.1250000 ]
  weight: 1    
  band:
  - # 1
    frequency:    22.2452504334
  - # 2
    frequency:    24.0564342049
  - # 3
    frequency:    26.8207242554
  - # 4
    frequency:    27.1814672987
  - # 5
    frequency:    31.4562966835
  - # 6
    frequency:    32.3766573207

- q-position: [   -0.3333333,   -0.4444444,    0.1250000 ]
  weight: 1    
  band:
  - # 1
    frequency:    22.1641133761
  - # 2
    frequency:    23.1806175402
  - # 3
    frequency:    27.5320869503
  - # 4
    frequency:    28.1566667297
  - # 5
    frequency:    30.0454192915
  - # 6
    frequency:    32.8305133653

- q-position: [   -0.2222222,   -0.4444444,    0.1250000 ]
  weight: 1    
  band:
  - # 1
    frequency:    19.9971840763
  - # 2
    frequency:    22.9178752112
  - # 3
    frequency:    27.4390869686
  - # 4
    frequency:    28.9450951978
  - # 5
    frequency:    30.3861571487
  - # 6
    frequency:    32.9567471517

- q-position: [   -0.1111111,   -0.4444444,    0.1250000 ]
  weight: 1    
  band:
  - # 1
    frequency:    17.9042852388
  - # 2
    frequency:    20.8217546058
  - # 3
    frequency:    26.5183686808
  - # 4
    frequency:    30.2949567803
  - # 5
    frequency:    31.6394008672
  - # 6
    frequency:    33.2496761916

- q-position: [    0.0000000,   -0.3333333,    0.1250000 ]
  weight: 1    
  band:
  - # 1
    frequency:    15.0777465800
  - # 2
    frequency:    16.8510387294
  - # 3
    frequency:    24.0889149527
  - # 4
    frequency:    31.7545745735
  - # 5
    frequency:    32.1821722077
  - # 6
    frequency:    34.7587389983

- q-position: [    0.1111111,   -0.3333333,    0.1250000 ]
  weight: 1    
  band:
  - # 1
    frequency:    16.0733478067
  - # 2
    frequency:    17.0320858522
  - # 3
    frequency:    25.3828906085
  - # 4
    frequency:    31.3471339792
  - # 5
    frequency:    31.8255502768
  - # 6
    frequency:    34.7080524930

- q-position: [    0.2222222,   -0.3333333,    0.1250000 ]
  weight: 1    
  band:
  - # 1
    frequency:    17.7236215650
  - # 2
    frequency:    20.3026616588
  - # 3
    frequency:    26.5108028326
  - # 4
    frequency:    30.4147862814
  - # 5
    frequency:    31.5905870034
  - # 6
    frequency:    33.4929548712

- q-position: [    0.3333333,   -0.3333333,    0.1250000 ]
  weight: 1    
  band:
  - # 1
    frequency:    20.0998505480
  - # 2
    frequency:    24.4148441420
  - # 3
    frequency:    27.4572706659
  - # 4
    frequency:    28.8172264523
  - # 5
    frequency:    30.9250448563
  - # 6
    frequency:    31.7529389382

- q-position: [    0.4444444,    0.6666667,    0.1250000 ]
  weight: 1    
  band:
  - # 1
    frequency:    22.4202179723
  - # 2
    frequency:    25.5445626816
  - # 3
    frequency:    27.3216253297
  - # 4
    frequency:    28.4148118874
  - # 5
    frequency:    29.7351672156
  - # 6
    frequency:    31.4604445557

- q-position: [   -0.4444444,   -0.3333333,    0.1250000 ]
  weight: 1    
  band:
  - # 1
    frequency:    22.1641133761
  - # 2
    frequency:    23.1806175401
  - # 3
    frequency:    27.5320869503
  - # 4
    frequency:    28.1566667297
  - # 5
    frequency:    30.0454192914
  - # 6
    frequency:    32.8305133654

- q-position: [   -0.3333333,   -0.3333333,    0.1250000 ]
  weight: 1    
  band:
  - # 1
    frequency:    19.6975958836
  - # 2
    frequency:    20.8142651208
  - # 3
    frequency:    27.9743235082
  - # 4
    frequency:    29.1000513498
  - # 5
    frequency:    29.3488527541
  - # 6
    frequency:    34.3329920251

- q-position: [   -0.2222222,   -0.3333333,    0.1250000 ]
  weight: 1    
  band:
  - # 1
    frequency:    17.6361134864
  - # 2
    frequency:    19.1155247168
  - # 3
    frequency:    25.3793390440
  - # 4
    frequency:    30.3959992161
  - # 5
    frequency:    31.0058124997
  - # 6
    frequency:    34.6671512747

- q-position: [   -0.1111111,   -0.3333333,    0.1250000 ]
  weight: 1    
  band:
  - # 1
    frequency:    15.7427616761
  - # 2
    frequency:    18.2573648467
  - # 3
    frequency:    23.6056488211
  - # 4
    frequency:    31.3936567984
  - # 5
    frequency:    32.2072733538
  - # 6
    frequency:    34.4724000738

- q-position: [    0.0000000,   -0.2222222,    0.1250000 ]
  weight: 1    
  band:
  - # 1
    frequency:    11.8459430491
  - # 2
    frequency:    13.5033382001
  - # 3
    frequency:    19.2345898145
  - # 4
    frequency:    32.9372064100
  - # 5
    frequency:    33.1743525179
  - # 6
    frequency:    35.1979796647

- q-position: [    0.1111111,   -0.2222222,    0.1250000 ]
  weight: 1    
  band:
  - # 1
    frequency:    13.4340489376
  - # 2
    frequency:    13.9748420173
  - # 3
    frequency:    21.1718871439
  - # 4
    frequency:    32.4441910427
  - # 5
    frequency:    32.7381419418
  - # 6
    frequency:    35.3029364794

- q-position: [    0.2222222,   -0.2222222,    0.1250000 ]
  weight: 1    
  band:
  - # 1
    frequency:    15.6320438036
  - # 2
    frequency:    17.6974450494
  - # 3
    frequency:    23.5751406549
  - # 4
    frequency:    31.4584753551
  - # 5
    frequency:    32.1557099189
  - # 6
    frequency:    34.6569368657

- q-position: [    0.3333333,   -0.2222222,    0.1250000 ]
  weight: 1    
  band:
  - # 1
    frequency:    18.2934712905
  - # 2
    frequency:    22.3329537625
  - # 3
    frequency:    25.5742630519
  - # 4
    frequency:    30.0002165257
  - # 5
    frequency:    31.7310405383
  - # 6
    frequency:    32.9480800760

- q-position: [    0.4444444,   -0.2222222,    0.1250000 ]
  weight: 1    
  band:
  - # 1
    frequency:    20.3003293174
  - # 2
    frequency:    24.8759388461
  - # 3
    frequency:    27.3892337414
  - # 4
    frequency:    28.6845876597
  - # 5
    frequency:    30.7972656807
  - # 6
    frequency:    31.6461980687

- q-position: [   -0.4444444,   -0.2222222,    0.1250000 ]
  weight: 1    
  band:
  - # 1
    frequency:    19.9971840764
  - # 2
    frequency:    22.9178752114
  - # 3
    frequency:    27.4390869683
  - # 4
    frequency:    28.9450951979
  - # 5
    frequency:    30.3861571487
  - # 6
    frequency:    32.9567471517

- q-position: [   -0.3333333,   -0.2222222,    0.1250000 ]
  weight: 1    
  band:
  - # 1
    frequency:    17.6361134864
  - # 2
    frequency:    19.1155247168
  - # 3
    frequency:    25.3793390439
  - # 4
    frequency:    30.3959992162
  - # 5
    frequency:    31.0058124997
  - # 6
    frequency:    34.6671512747

- q-position: [   -0.2222222,   -0.2222222,    0.1250000 ]
  weight: 1    
  band:
  - # 1
    frequency:    14.9999484830
  - # 2
    frequency:    15.6280105549
  - # 3
    frequency:    22.4356156429
  - # 4
    frequency:    31.7544176545
  - # 5
    frequency:    31.9899861023
  - # 6
    frequency:    35.3780203923

- q-position: [   -0.1111111,   -0.2222222,    0.1250000 ]
  weight: 1    
  band:
  - # 1
    frequency:    12.6446290144
  - # 2
    frequency:    14.1041044259
  - # 3
    frequency:    19.6775274864
  - # 4
    frequency:    32.6611020518
  - # 5
    frequency:    32.9330294623
  - # 6
    frequency:    35.2666842709

- q-position: [    0.0000000,   -0.1111111,    0.1250000 ]
  weight: 1    
  band:
  - # 1
    frequency:     8.1453001646
  - # 2
    frequency:     9.1438450974
  - # 3
    frequency:    13.6448298766
  - # 4
    frequency:    33.8946942320
  - # 5
    frequency:    33.9447499745
  - # 6
    frequency:    35.1842977997

- q-position: [    0.1111111,   -0.1111111,    0.1250000 ]
  weight: 1    
  band:
  - # 1
    frequency:     9.7639782034
  - # 2
    frequency:     9.9732109778
  - # 3
    frequency:    15.4665450704
  - # 4
    frequency:    33.5618657893
  - # 5
    frequency:    33.6443483124
  - # 6
    frequency:    35.3530835352

- q-position: [    0.2222222,   -0.1111111,    0.1250000 ]
  weight: 1    
  band:
  - # 1
    frequency:    12.4817149689
  - # 2
    frequency:    13.6681438304
  - # 3
    frequency:    19.3941636001
  - # 4
    frequency:    32.7211848860
  - # 5
    frequency:    32.9355871979
  - # 6
    frequency:    35.3449114832

- q-position: [    0.3333333,   -0.1111111,    0.1250000 ]
  weight: 1    
  band:
  - # 1
    frequency:    15.5956774055
  - # 2
    frequency:    17.8209324269
  - # 3
    frequency:    23.4001910038
  - # 4
    frequency:    31.4643062434
  - # 5
    frequency:    32.1821058230
  - # 6
    frequency:    34.6412467041

- q-position: [    0.4444444,   -0.1111111,    0.1250000 ]
  weight: 1    
  band:
  - # 1
    frequency:    17.8420737307
  - # 2
    frequency:    20.6357116699
  - # 3
    frequency:    26.4070245850
  - # 4
    frequency:    30.3327763782
  - # 5
    frequency:    31.6107991172
  - # 6
    frequency:    33.3879661768

- q-position: [   -0.4444444,   -0.1111111,    0.1250000 ]
  weight: 1    
  band:
  - # 1
    frequency:    17.9042852389
  - # 2
    frequency:    20.8217546060
  - # 3
    frequency:    26.5183686804
  - # 4
    frequency:    30.2949567804
  - # 5
    frequency:    31.6394008675
  - # 6
    frequency:    33.2496761912

- q-position: [   -0.3333333,   -0.1111111,    0.1250000 ]
  weight: 1    
  band:
  - # 1
    frequency:    15.7427616762
  - # 2
    frequency:    18.2573648468
  - # 3
    frequency:    23.6056488208
  - # 4
    frequency:    31.3936567985
  - # 5
    frequency:    32.2072733540
  - # 6
    frequency:    34.4724000734

- q-position: [   -0.2222222,   -0.1111111,    0.1250000 ]
  weight: 1    
  band:
  - # 1
    frequency:    12.6446290145
  - # 2
    frequency:    14.1041044259
  - # 3
    frequency:    19.6775274862
  - # 4
    frequency:    32.6611020520
  - # 5
    frequency:    32.9330294622
  - # 6
    frequency:    35.2666842707

- q-position: [   -0.1111111,   -0.1111111,    0.1250000 ]
  weight: 1    
  band:
  - # 1
    frequency:     9.9560339061
  - # 2
    frequency:    10.0854025040
  - # 3
    frequency:    15.7740886367
  - # 4
    frequency:    33.5228441054
  - # 5
    frequency:    33.6185334507
  - # 6
    frequency:    35.3563368881

- q-position: [    0.0000000,    0.0000000,    0.3750000 ]
  weight: 1    
  band:
  - # 1
    frequency:    14.3706320768
  - # 2
    frequency:    14.3706320772
  - # 3
    frequency:    23.8729554972
  - # 4
    frequency:    32.1182462474
  - # 5
    frequency:    32.1182462481
  - # 6
    frequency:    35.4054220299

- q-position: [    0.1111111,    0.0000000,    0.3750000 ]
  weight: 1    
  band:
  - # 1
    frequency:    14.3783345835
  - # 2
    frequency:    14.9405982852
  - # 3
    frequency:    22.7397654494
  - # 4
    frequency:    32.0908426858
  - # 5
    frequency:    32.4303129682
  - # 6
    frequency:    35.1913588366

- q-position: [    0.2222222,    0.0000000,    0.3750000 ]
  weight: 1    
  band:
  - # 1
    frequency:    15.7325867958
  - # 2
    frequency:    16.6523563672
  - # 3
    frequency:    23.3887294120
  - # 4
    frequency:    31.4215388771
  - # 5
    frequency:    31.7671402427
  - # 6
    frequency:    35.1828008317

- q-position: [    0.3333333,    0.0000000,    0.3750000 ]
  weight: 1    
  band:
  - # 1
    frequency:    17.9578186257
  - # 2
    frequency:    18.0742606772
  - # 3
    frequency:    26.1215814861
  - # 4
    frequency:    30.1865824614
  - # 5
    frequency:    30.2193545325
  - # 6
    frequency:    35.2525360980

- q-position: [    0.4444444,    0.0000000,    0.3750000 ]
  weight: 1    
  band:
  - # 1
    frequency:    20.3022766813
  - # 2
    frequency:    20.6962260730
  - # 3
    frequency:    28.5951759672
  - # 4
    frequency:    28.6627726579
  - # 5
    frequency:    28.9352673969
  - # 6
    frequency:    34.4142954048

- q-position: [    0.5555556,    0.0000000,    0.3750000 ]
  weight: 1    
  band:
  - # 1
    frequency:    21.4713567504
  - # 2
    frequency:    24.5345301722
  - # 3
    frequency:    27.5017774970
  - # 4
    frequency:    27.8184994558
  - # 5
    frequency:    30.0933806734
  - # 6
    frequency:    32.6698220209

- q-position: [   -0.3333333,    0.0000000,    0.3750000 ]
  weight: 1    
  band:
  - # 1
    frequency:    20.2538846476
  - # 2
    frequency:    25.9787717120
  - # 3
    frequency:    27.5959441782
  - # 4
    frequency:    28.7473102931
  - # 5
    frequency:    29.1181316357
  - # 6
    frequency:    32.2758520074

- q-position: [   -0.2222222,    0.0000000,    0.3750000 ]
  weight: 1    
  band:
  - # 1
    frequency:    17.9149599526
  - # 2
    frequency:    21.8625162766
  - # 3
    frequency:    26.3867144834
  - # 4
    frequency:    30.2852448657
  - # 5
    frequency:    31.6022663161
  - # 6
    frequency:    32.8867156474

- q-position: [   -0.1111111,    0.0000000,    0.3750000 ]
  weight: 1    
  band:
  - # 1
    frequency:    15.7078853974
  - # 2
    frequency:    17.1205325806
  - # 3
    frequency:    25.2517795272
  - # 4
    frequency:    31.4957835625
  - # 5
    frequency:    31.8701200086
  - # 6
    frequency:    34.6922271630

- q-position: [    0.0000000,    0.1111111,    0.3750000 ]
  weight: 1    
  band:
  - # 1