   32   32    1    1
  0.5760957E+01  0.4934311E-09  0.4934311E-09  0.8743465E-09  0.5000000E-15
  1.000000000000000E-004
  CAR 
 graphite                                
    128    163     84
 
  0.0000000E+00  0.0000000E+00  0.0000000E+00  0.3086420E-02
    1      -12.076235
    2      -10.668963
    3      -10.664583
    4       -8.155555
    5       -6.402515
    6       -6.399628
    7       -6.396498
    8       -5.578962
    9       -5.577437
   10       -5.575539
   11       -5.250139
   12       -5.245412
   13       -5.243914
   14       -5.243536
   15       -5.242037
   16       -5.237390
   17       -4.203513
   18       -4.198750
   19       -4.197675
   20       -4.197069
   21       -4.196597
   22       -4.191548
   23       -2.914136
   24       -2.911802
   25       -2.908632
   26       -2.646002
   27       -2.643746
   28       -2.641229
   29       -2.173167
   30        2.254115
   31        2.256888
   32        2.258075
   33        2.938060
   34        2.940194
   35        2.942356
   36        2.943172
   37        2.944020
   38        2.945168
   39        2.946326
   40        2.948920
   41        3.730054
   42        3.733456
   43        3.734512
   44        3.777854
   45        3.780641
   46        3.782570
   47        6.037176
   48        6.042752
   49        6.360723
   50        6.365446
   51        6.370312
   52        6.374876
   53        6.519162
   54        6.520282
   55        6.522082
   56        6.683029
   57        6.688166
   58        7.668329
   59        7.671883
   60        7.673329
   61        7.673768
   62        7.675271
   63        7.678703
   64        8.528333
   65       11.175947
   66       11.186335
   67       11.187631
   68       11.188488
   69       11.189389
   70       11.199658
   71       13.556144
   72       13.558388
   73       13.560794
   74       14.537212
   75       14.542128
   76       14.545516
   77       14.684251
   78       14.684862
   79       14.685634
   80       16.705329
   81       16.710455
   82       16.712583
   83       16.714780
   84       16.718189
 
  0.1111111E+00 -0.1387779E-16  0.0000000E+00  0.6172840E-02
    1      -11.998837
    2      -10.593521
    3      -10.589148
    4       -8.088057
    5       -7.280190
    6       -6.685718
    7       -6.682494
    8       -6.031627
    9       -6.027832
   10       -5.481613
   11       -5.478006
   12       -5.476341
   13       -5.473496
   14       -5.181015
   15       -5.178957
   16       -4.711309
   17       -3.842304
   18       -3.840693
   19       -3.839280
   20       -3.835361
   21       -3.703474
   22       -3.303505
   23       -3.299188
   24       -3.268069
   25       -3.265877
   26       -2.166172
   27       -2.163915
   28       -2.081845
   29       -1.620121
   30        1.990300
   31        1.993196
   32        2.332724
   33        2.695240
   34        2.699092
   35        2.701279
   36        2.702435
   37        3.015422
   38        3.016440
   39        3.019432
   40        3.021822
   41        3.172909
   42        3.541081
   43        3.544197
   44        3.659545
   45        3.662381
   46        3.803673
   47        5.659354
   48        5.831275
   49        6.054785
   50        6.062288
   51        6.206729
   52        6.214220
   53        6.455987
   54        6.591540
   55        6.780553
   56        6.782786
   57        7.210469
   58        7.301362
   59        7.305147
   60        7.625687
   61        7.629864
   62        7.631566
   63        7.633450
   64        8.588644
   65       11.310415
   66       11.314338
   67       11.316377
   68       11.325388
   69       11.620349
   70       11.628479
   71       13.154229
   72       13.224881
   73       13.227349
   74       14.601256
   75       14.829888
   76       14.831596
   77       14.930707
   78       14.936966
   79       15.191575
   80       16.796894
   81       16.800244
   82       17.030497
   83       17.037661
   84       17.050576
 
  0.2222222E+00 -0.1387779E-16  0.0000000E+00  0.6172840E-02
    1      -11.766875
    2      -10.367568
    3      -10.363217
    4       -8.359701
    5       -7.886129
    6       -7.070030
    7       -7.067183
    8       -7.063279
    9       -7.059714
   10       -5.830545
   11       -5.827587
   12       -5.825657
   13       -5.823236
   14       -4.975383
   15       -4.522076
   16       -4.519904
   17       -3.526523
   18       -3.525216
   19       -3.126639
   20       -3.124650
   21       -3.123085
   22       -3.119776
   23       -2.956928
   24       -1.942590
   25       -1.938448
   26       -1.809114
   27       -1.501333
   28       -1.498839
   29       -0.378895
   30        1.310838
   31        1.313409
   32        2.046139
   33        2.050539
   34        2.052300
   35        2.053821
   36        2.089336
   37        2.557028
   38        3.020442
   39        3.023414
   40        3.231571
   41        3.235471
   42        3.241165
   43        3.246300
   44        3.415799
   45        3.418754
   46        4.008709
   47        4.670316
   48        5.219112
   49        5.225697
   50        5.314693
   51        5.782878
   52        5.786371
   53        5.792181
   54        6.285557
   55        6.517766
   56        6.521124
   57        7.446818
   58        7.449252
   59        7.526454
   60        7.530937
   61        7.533562
   62        7.534970
   63        8.465001
   64        8.765498
   65       11.620436
   66       11.623849
   67       11.625577
   68       11.633690
   69       12.481814
   70       12.483925
   71       12.590518
   72       12.596293
   73       12.654487
   74       14.780889
   75       15.030436
   76       15.032274
   77       16.003331
   78       16.009180
   79       16.078109
   80       16.895612
   81       17.060224
   82       17.062967
   83       17.084775
   84       17.092115
 
  0.3333333E+00 -0.2775558E-16  0.0000000E+00  0.6172840E-02
    1      -11.381426
    2       -9.992286
    3       -9.987972
    4       -9.326910
    5       -7.998208
    6       -7.994092
    7       -7.550804
    8       -7.346613
    9       -7.344189
   10       -6.091627
   11       -6.088919
   12       -6.086871
   13       -6.084607
   14       -5.776035
   15       -4.214994
   16       -4.212556
   17       -3.191817
   18       -3.190137
   19       -2.290688
   20       -2.288640
   21       -2.287092
   22       -2.283740
   23       -1.453046
   24       -1.356832
   25       -0.909076
   26       -0.906370
   27       -0.478021
   28       -0.473905
   29        0.548774
   30        0.550774
   31        0.928272
   32        1.017248
   33        1.180624
   34        1.184207
   35        1.185440
   36        1.187341
   37        2.286662
   38        2.289377
   39        2.922878
   40        3.195828
   41        3.198593
   42        3.309086
   43        3.523139
   44        3.528009
   45        3.582707
   46        3.587201
   47        4.113249
   48        4.117671
   49        4.339669
   50        4.668644
   51        4.782633
   52        5.214383
   53        5.220422
   54        5.670101
   55        5.673794
   56        5.818460
   57        7.425631
   58        7.430542
   59        7.433683
   60        7.434999
   61        8.349560
   62        8.352215
   63        9.042278
   64        9.450581
   65       11.535711
   66       11.537868
   67       11.959024
   68       11.961476
   69       11.962744
   70       11.969908
   71       12.672376
   72       13.701304
   73       13.705104
   74       15.074048
   75       15.146162
   76       15.147780
   77       16.447119
   78       16.489555
   79       16.495196
   80       16.618389
   81       17.059416
   82       17.501064
   83       17.514381
   84       17.544496
 
  0.4444444E+00 -0.2775558E-16  0.0000000E+00  0.6172840E-02
    1      -10.844057
    2      -10.157689
    3       -9.469854
    4       -9.465587
    5       -8.803246
    6       -8.799046
    7       -7.488633
    8       -7.486295
    9       -7.084104
   10       -6.489928
   11       -6.227002
   12       -6.224412
   13       -6.222317
   14       -6.220084
   15       -4.246321
   16       -4.243874
   17       -2.406281
   18       -2.403641
   19       -1.520084
   20       -1.518608
   21       -1.517273
   22       -1.512892
   23       -1.082918
   24       -1.080705
   25       -0.729002
   26        0.067096
   27        0.145285
   28        0.368206
   29        0.371759
   30        0.373416
   31        0.374887
   32        0.569358
   33        0.571554
   34        1.030501
   35        1.034829
   36        1.500273
   37        1.502652
   38        1.760117
   39        2.262162
   40        2.515915
   41        2.520606
   42        3.073161
   43        3.075807
   44        3.416158
   45        3.571591
   46        4.011649
   47        4.052266
   48        4.057491
   49        4.238395
   50        4.242507
   51        4.611929
   52        4.617178
   53        4.777386
   54        4.890183
   55        4.894224
   56        5.288399
   57        7.365234
   58        7.370299
   59        7.373660
   60        7.375079
   61        9.374229
   62        9.375839
   63        9.378578
   64        9.640884
   65       10.487763
   66       10.489961
   67       12.177135
   68       12.178429
   69       12.179112
   70       12.185598
   71       13.636767
   72       14.768490
   73       14.771940
   74       15.118710
   75       15.189767
   76       15.191189
   77       15.468883
   78       15.707657
   79       15.712014
   80       15.942031
   81       18.084596
   82       18.088384
   83       18.096778
   84       18.729065
 
  0.1694066E-20  0.1111111E+00  0.0000000E+00  0.6172840E-02
    1      -11.998835
    2      -10.593518
    3      -10.589146
    4       -8.088052
    5       -7.280260
    6       -6.685837
    7       -6.682130
    8       -6.031768
    9       -6.027969
   10       -5.481313
   11       -5.477694
   12       -5.476485
   13       -5.473009
   14       -5.181948
   15       -5.178533
   16       -4.711548
   17       -3.844915
   18       -3.840915
   19       -3.839342
   20       -3.835464
   21       -3.701988
   22       -3.301761
   23       -3.298473
   24       -3.269481
   25       -3.265445
   26       -2.167950
   27       -2.163383
   28       -2.081852
   29       -1.619002
   30        1.991908
   31        1.993233
   32        2.331109
   33        2.697390
   34        2.698953
   35        2.701845
   36        2.703207
   37        3.014308
   38        3.015792
   39        3.017677
   40        3.021937
   41        3.171781
   42        3.542842
   43        3.544222
   44        3.659887
   45        3.663581
   46        3.801832
   47        5.663005
   48        5.827538
   49        6.061681
   50        6.062492
   51        6.206500
   52        6.207261
   53        6.459548
   54        6.587939
   55        6.779951
   56        6.782179
   57        7.211138
   58        7.300959
   59        7.303119
   60        7.626624
   61        7.629973
   62        7.631807
   63        7.635207
   64        8.588623
   65       11.306898
   66       11.314285
   67       11.316496
   68       11.323591
   69       11.623376
   70       11.629941
   71       13.156081
   72       13.223329
   73       13.227351
   74       14.600353
   75       14.829020
   76       14.832151
   77       14.932673
   78       14.935965
   79       15.191739
   80       16.796528
   81       16.799570
   82       17.033916
   83       17.037528
   84       17.088813
 
  0.1111111E+00  0.1111111E+00  0.0000000E+00  0.6172840E-02
    1      -11.844142
    2      -10.442782
    3      -10.438424
    4       -7.953360
    5       -7.778190
    6       -7.774792
    7       -6.506938
    8       -6.502563
    9       -6.501273
   10       -6.497323
   11       -6.198590
   12       -5.369386
   13       -5.053497
   14       -5.049953
   15       -4.579219
   16       -4.576455
   17       -4.006332
   18       -4.001613
   19       -3.535813
   20       -3.532781
   21       -2.740472
   22       -2.602215
   23       -2.596643
   24       -2.595777
   25       -2.592538
   26       -2.506216
   27       -1.899863
   28       -0.984146
   29       -0.980135
   30        1.225650
   31        1.973624
   32        1.977779
   33        2.144986
   34        2.148377
   35        2.704004
   36        2.706755
   37        2.843143
   38        2.844826
   39        2.845551
   40        2.850846
   41        2.953103
   42        3.167621
   43        3.172764
   44        3.679170
   45        3.682877
   46        4.018886
   47        5.049874
   48        5.362213
   49        5.513557
   50        5.520725
   51        5.883860
   52        5.891222
   53        6.100597
   54        6.328201
   55        6.761268
   56        6.987773
   57        6.989426
   58        6.990622
   59        6.995498
   60        7.885494
   61        7.887515
   62        7.908708
   63        7.913079
   64        8.707334
   65       11.178118
   66       11.187569
   67       12.079152
   68       12.086630
   69       12.088272
   70       12.090249
   71       12.676333
   72       12.742933
   73       12.745430
   74       14.760035
   75       15.049600
   76       15.055103
   77       15.520562
   78       15.523241
   79       15.948623
   80       17.172586
   81       17.201422
   82       17.203277
   83       17.219744
   84       17.262725
 
  0.2222222E+00  0.1111111E+00  0.0000000E+00  0.6172840E-02
    1      -11.535427
    2      -10.142168
    3      -10.137839
    4       -8.804005
    5       -8.140371
    6       -7.684731
    7       -7.492627
    8       -7.488580
    9       -6.852716
   10       -6.848757
   11       -6.271646
   12       -5.334335
   13       -5.085227
   14       -5.081610
   15       -4.790256
   16       -4.780754
   17       -3.479587
   18       -3.475141
   19       -2.945549
   20       -2.786300
   21       -2.184901
   22       -1.935076
   23       -1.792938
   24       -1.789801
   25       -1.537335
   26       -1.185367
   27       -1.181391
   28       -0.322129
   29        0.278055
   30        0.280316
   31        1.016370
   32        1.020502
   33        1.580507
   34        1.606275
   35        2.145602
   36        2.275480
   37        2.277850
   38        2.341054
   39        2.456214
   40        3.132887
   41        3.136902
   42        3.228015
   43        3.447293
   44        3.452422
   45        3.951213
   46        3.952568
   47        4.134488
   48        4.571051
   49        4.578081
   50        4.637718
   51        5.329395
   52        5.336777
   53        5.385306
   54        5.883250
   55        6.148304
   56        6.151666
   57        6.742209
   58        6.744922
   59        7.253900
   60        8.094177
   61        8.098551
   62        8.704263
   63        8.935542
   64        9.098816
   65       11.193089
   66       11.201504
   67       11.682115
   68       12.163717
   69       12.456271
   70       12.591720
   71       12.596293
   72       13.159403
   73       13.163801
   74       14.873673
   75       15.288886
   76       15.662204
   77       16.180971
   78       16.411151
   79       16.871602
   80       16.878745
   81       16.984499
   82       17.119011
   83       17.431001
   84       17.538721
 
  0.3333333E+00  0.1111111E+00  0.0000000E+00  0.6172840E-02
    1      -11.074001
    2       -9.704093
    3       -9.693032
    4       -9.688696
    5       -8.364644
    6       -8.360672
    7       -8.357510
    8       -7.283650
    9       -7.065339
   10       -7.061349
   11       -6.438683
   12       -6.098475
   13       -5.227073
   14       -5.223381
   15       -4.958259
   16       -3.956226
   17       -3.094503
   18       -2.673647
   19       -2.669344
   20       -1.902697
   21       -1.602418
   22       -0.997592
   23       -0.970328
   24       -0.967106
   25       -0.630863
   26       -0.286738
   27       -0.025144
   28        0.023975
   29        0.028233
   30        0.294146
   31        0.298151
   32        0.590040
   33        1.197329
   34        1.250121
   35        1.523709
   36        1.526567
   37        1.569276
   38        2.113506
   39        2.531027
   40        2.573076
   41        2.917581
   42        3.158648
   43        3.164221
   44        3.551531
   45        3.555660
   46        3.826355
   47        4.048339
   48        4.052129
   49        4.113819
   50        4.340438
   51        4.423629
   52        4.700058
   53        4.706521
   54        5.326595
   55        5.330397
   56        5.358463
   57        6.585695
   58        6.588650
   59        8.117098
   60        8.184497
   61        8.187968
   62        9.247491
   63        9.575940
   64        9.691998
   65       10.537941
   66       11.276303
   67       11.282376
   68       11.463531
   69       12.957572
   70       12.991011
   71       12.994720
   72       14.276713
   73       14.279827
   74       14.976950
   75       15.631380
   76       15.667302
   77       15.759996
   78       16.190487
   79       16.195934
   80       16.540900
   81       17.387162
   82       17.770481
   83       18.015978
   84       18.019522
 
  0.4444444E+00  0.1111111E+00  0.0000000E+00  0.6172840E-02
    1      -10.463948
    2      -10.460427
    3       -9.101595
    4       -9.097240
    5       -9.096179
    6       -9.091827
    7       -8.435246
    8       -7.136663
    9       -7.132664
   10       -6.754989
   11       -6.751370
   12       -6.501316
   13       -5.283298
   14       -5.279587
   15       -5.017801
   16       -3.537762
   17       -3.012927
   18       -2.153956
   19       -2.150354
   20       -1.928503
   21       -1.280292
   22       -0.556532
   23       -0.552730
   24       -0.487536
   25       -0.483435
   26       -0.395719
   27       -0.286172
   28       -0.282828
   29        0.055825
   30        0.574089
   31        0.964618
   32        0.968732
   33        1.050890
   34        1.055482
   35        1.504813
   36        1.775281
   37        1.782909
   38        1.783766
   39        1.784190
   40        2.036101
   41        2.040935
   42        2.803825
   43        2.808088
   44        3.547796
   45        3.553385
   46        4.076603
   47        4.078605
   48        4.078919
   49        4.084303
   50        4.098294
   51        4.605378
   52        4.609441
   53        4.612216
   54        4.617200
   55        4.819969
   56        4.826368
   57        6.532115
   58        6.535246
   59        8.209464
   60        8.212016
   61        8.902449
   62        9.573002
   63        9.575281
   64        9.663676
   65       10.201079
   66       10.901133
   67       11.321225
   68       11.325084
   69       13.143139
   70       13.146786
   71       14.256557
   72       14.261191
   73       15.014440
   74       15.304456
   75       15.309578
   76       15.312469
   77       15.314977
   78       15.651188
   79       16.059678
   80       16.063366
   81       18.426975
   82       18.432285
   83       18.573379
   84       18.576030
 
 -0.4444444E+00  0.1111111E+00  0.0000000E+00  0.6172840E-02
    1      -11.074086
    2       -9.703967
    3       -9.693114
    4       -9.688775
    5       -8.363147
    6       -8.361293
    7       -8.358323
    8       -7.283745
    9       -7.065616
   10       -7.061627
   11       -6.438363
   12       -6.098357
   13       -5.226647
   14       -5.222984
   15       -4.958525
   16       -3.954620
   17       -3.095640
   18       -2.672567
   19       -2.669605
   20       -1.903478
   21       -1.602313
   22       -0.997699
   23       -0.971888
   24       -0.967209
   25       -0.631239
   26       -0.286935
   27       -0.025014
   28        0.023934
   29        0.026602
   30        0.293578
   31        0.297938
   32        0.590213
   33        1.197609
   34        1.249278
   35        1.523780
   36        1.528674
   37        1.568739
   38        2.113204
   39        2.531288
   40        2.574249
   41        2.918214
   42        3.159893
   43        3.163856
   44        3.551638
   45        3.556323
   46        3.826727
   47        4.048272
   48        4.052024
   49        4.114257
   50        4.340818
   51        4.423034
   52        4.700439
   53        4.705027
   54        5.326683
   55        5.330523
   56        5.358024
   57        6.585250
   58        6.588507
   59        8.118448
   60        8.185852
   61        8.187849
   62        9.247368
   63        9.574019
   64        9.691991
   65       10.536204
   66       11.276647
   67       11.281007
   68       11.465516
   69       12.957586
   70       12.990697
   71       12.995444
   72       14.276121
   73       14.280023
   74       14.977127
   75       15.631065
   76       15.667265
   77       15.760130
   78       16.191146
   79       16.195313
   80       16.541094
   81       17.387136
   82       17.773934
   83       18.015541
   84       18.019291
 
 -0.3333333E+00  0.1111111E+00  0.0000000E+00  0.6172840E-02
    1      -11.535487
    2      -10.142228
    3      -10.137899
    4       -8.803842
    5       -8.140771
    6       -7.684777
    7       -7.492475
    8       -7.488423
    9       -6.853134
   10       -6.849175
   11       -6.270887
   12       -5.334213
   13       -5.084150
   14       -5.080716
   15       -4.790902
   16       -4.779678
   17       -3.478740
   18       -3.475843
   19       -2.945972
   20       -2.786830
   21       -2.185195
   22       -1.934698
   23       -1.794193
   24       -1.790124
   25       -1.537415
   26       -1.185771
   27       -1.181645
   28       -0.322729
   29        0.277277
   30        0.279647
   31        1.016024
   32        1.018613
   33        1.581820
   34        1.606502
   35        2.144595
   36        2.275809
   37        2.280227
   38        2.340443
   39        2.456624
   40        3.133063
   41        3.137412
   42        3.229082
   43        3.447238
   44        3.452339
   45        3.950374
   46        3.954091
   47        4.135528
   48        4.573415
   49        4.576808
   50        4.637474
   51        5.330765
   52        5.334218
   53        5.385221
   54        5.882780
   55        6.148369
   56        6.151884
   57        6.741245
   58        6.744615
   59        7.254884
   60        8.096530
   61        8.098586
   62        8.702475
   63        8.935447
   64        9.098611
   65       11.193142
   66       11.199569
   67       11.680172
   68       12.165596
   69       12.456449
   70       12.591513
   71       12.597530
   72       13.158897
   73       13.163882
   74       14.873982
   75       15.288644
   76       15.662233
   77       16.184483
   78       16.411015
   79       16.872569
   80       16.877044
   81       16.984016
   82       17.119013
   83       17.426568
   84       17.536233
 
 -0.2222222E+00  0.1111111E+00  0.0000000E+00  0.6172840E-02
    1      -11.844178
    2      -10.442817
    3      -10.438459
    4       -7.953412
    5       -7.777104
    6       -7.776285
    7       -6.505446
    8       -6.502994
    9       -6.501605
   10       -6.499011
   11       -6.197182
   12       -5.368975
   13       -5.051470
   14       -5.048611
   15       -4.579317
   16       -4.577476
   17       -4.005630
   18       -4.003462
   19       -3.535375
   20       -3.533266
   21       -2.739675
   22       -2.600524
   23       -2.598063
   24       -2.596497
   25       -2.593868
   26       -2.506765
   27       -1.899911
   28       -0.983112
   29       -0.982018
   30        1.224399
   31        1.973251
   32        1.975655
   33        2.147318
   34        2.147803
   35        2.704050
   36        2.705989
   37        2.844209
   38        2.845314
   39        2.848430
   40        2.849510
   41        2.952032
   42        3.167586
   43        3.172713
   44        3.681297
   45        3.682070
   46        4.020328
   47        5.050268
   48        5.361835
   49        5.517271
   50        5.517850
   51        5.886756
   52        5.887333
   53        6.100925
   54        6.327728
   55        6.761989
   56        6.986740
   57        6.990206
   58        6.990648
   59        6.994121
   60        7.885217
   61        7.886264
   62        7.911170
   63        7.913363
   64        8.707274
   65       11.177857
   66       11.185453
   67       12.080389
   68       12.085286
   69       12.087526
   70       12.092227
   71       12.674387
   72       12.743559
   73       12.746803
   74       14.760383
   75       15.052693
   76       15.055399
   77       15.521532
   78       15.522169
   79       15.944785
   80       17.174322
   81       17.202592
   82       17.205125
   83       17.218863
   84       17.254523
 
 -0.1111111E+00  0.1111111E+00  0.0000000E+00  0.6172840E-02
    1      -11.998847
    2      -10.593530
    3      -10.589158
    4       -8.088064
    5       -7.281112
    6       -6.684765
    7       -6.681846
    8       -6.032713
    9       -6.028893
   10       -5.480190
   11       -5.477335
   12       -5.475615
   13       -5.472390
   14       -5.180849
   15       -5.179028
   16       -4.712961
   17       -3.844726
   18       -3.840221
   19       -3.839010
   20       -3.837431
   21       -3.701577
   22       -3.302453
   23       -3.298454
   24       -3.268372
   25       -3.266063
   26       -2.167061
   27       -2.164544
   28       -2.081868
   29       -1.619299
   30        1.990499
   31        1.993352
   32        2.332565
   33        2.697016
   34        2.698499
   35        2.699278
   36        2.704119
   37        3.014748
   38        3.016606
   39        3.019257
   40        3.021737
   41        3.170606
   42        3.541218
   43        3.544715
   44        3.661138
   45        3.663907
   46        3.803039
   47        5.663113
   48        5.827393
   49        6.058703
   50        6.065985
   51        6.202828
   52        6.210355
   53        6.459821
   54        6.587669
   55        6.780305
   56        6.782493
   57        7.209924
   58        7.299007
   59        7.302730
   60        7.628443
   61        7.630233
   62        7.631928
   63        7.636007
   64        8.588602
   65       11.305562
   66       11.315254
   67       11.316948
   68       11.320964
   69       11.623638
   70       11.631716
   71       13.157615
   72       13.223419
   73       13.225701
   74       14.604007
   75       14.829805
   76       14.831363
   77       14.929837
   78       14.934995
   79       15.191854
   80       16.799095
   81       16.802871
   82       17.030921
   83       17.036377
   84       17.053652
 
  0.1694066E-20  0.2222222E+00  0.0000000E+00  0.6172840E-02
    1      -11.766867
    2      -10.367559
    3      -10.363208
    4       -8.359659
    5       -7.886125
    6       -7.071130
    7       -7.067050
    8       -7.063059
    9       -7.058895
   10       -5.831255
   11       -5.827272
   12       -5.826029
   13       -5.822180
   14       -4.975513
   15       -4.522435
   16       -4.519323
   17       -3.528303
   18       -3.525045
   19       -3.129370
   20       -3.125016
   21       -3.123342
   22       -3.119199
   23       -2.955453
   24       -1.940993
   25       -1.937772
   26       -1.809137
   27       -1.503257
   28       -1.498413
   29       -0.377655
   30        1.312029
   31        1.314174
   32        2.047847
   33        2.050504
   34        2.053043
   35        2.054745
   36        2.088857
   37        2.555344
   38        3.021669
   39        3.023940
   40        3.230610
   41        3.232702
   42        3.241196
   43        3.246297
   44        3.415817
   45        3.420067
   46        4.006765
   47        4.673373
   48        5.224646
   49        5.226066
   50        5.311826
   51        5.780086
   52        5.783089
   53        5.794882
   54        6.282145
   55        6.517383
   56        6.520222
   57        7.445811
   58        7.449143
   59        7.527259
   60        7.530880
   61        7.533363
   62        7.537173
   63        8.464667
   64        8.765403
   65       11.616960
   66       11.623777
   67       11.625643
   68       11.632225
   69       12.480591
   70       12.484264
   71       12.592762
   72       12.597266
   73       12.656468
   74       14.779935
   75       15.029225
   76       15.032854
   77       16.004795
   78       16.008896
   79       16.078250
   80       16.892623
   81       17.059905
   82       17.062554
   83       17.083362
   84       17.087683
 
  0.1111111E+00  0.2222222E+00  0.0000000E+00  0.6172840E-02
    1      -11.535421
    2      -10.142161
    3      -10.137832
    4       -8.803950
    5       -8.140428
    6       -7.684690
    7       -7.492597
    8       -7.488554
    9       -6.852746
   10       -6.848784
   11       -6.271649
   12       -5.334361
   13       -5.085195
   14       -5.081588
   15       -4.789902
   16       -4.780989
   17       -3.479613
   18       -3.475342
   19       -2.945368
   20       -2.787873
   21       -2.183510
   22       -1.935580
   23       -1.794591
   24       -1.790653
   25       -1.537353
   26       -1.183652
   27       -1.180557
   28       -0.323664
   29        0.279515
   30        0.280717
   31        1.016560
   32        1.020525
   33        1.582394
   34        1.605841
   35        2.145639
   36        2.276539
   37        2.280349
   38        2.341681
   39        2.454291
   40        3.131927
   41        3.134085
   42        3.229843
   43        3.447278
   44        3.452401
   45        3.948758
   46        3.954965
   47        4.134689
   48        4.573832
   49        4.578144