natom:  384
displacements:
- atom:    1
  direction:
    [   1.0000000000000000,  0.0000000000000000,  0.0000000000000000 ]
  displacement:
    [   0.0100000000000000,  0.0000000000000000,  0.0000000000000000 ]
- atom:    1
  direction:
    [  -1.0000000000000000,  0.0000000000000000,  0.0000000000000000 ]
  displacement:
    [  -0.0100000000000000,  0.0000000000000000,  0.0000000000000000 ]
- atom:    1
  direction:
    [   0.0000000000000000,  1.0000000000000000,  0.0000000000000000 ]
  displacement:
    [   0.0000000000000000,  0.0100000000000000,  0.0000000000000000 ]
- atom:    1
  direction:
    [   0.0000000000000000, -1.0000000000000000,  0.0000000000000000 ]
  displacement:
    [   0.0000000000000000, -0.0100000000000000,  0.0000000000000000 ]
- atom:    1
  direction:
    [   0.0000000000000000,  0.0000000000000000,  1.0000000000000000 ]
  displacement:
    [   0.0000000000000000,  0.0000000000000000,  0.0100000000000000 ]
- atom:    1
  direction:
    [   0.0000000000000000,  0.0000000000000000, -1.0000000000000000 ]
  displacement:
    [   0.0000000000000000,  0.0000000000000000, -0.0100000000000000 ]
- atom:   65
  direction:
    [   1.0000000000000000,  0.0000000000000000,  0.0000000000000000 ]
  displacement:
    [   0.0100000000000000,  0.0000000000000000,  0.0000000000000000 ]
- atom:   65
  direction:
    [  -1.0000000000000000,  0.0000000000000000,  0.0000000000000000 ]
  displacement:
    [  -0.0100000000000000,  0.0000000000000000,  0.0000000000000000 ]
- atom:   65
  direction:
    [   0.0000000000000000,  1.0000000000000000,  0.0000000000000000 ]
  displacement:
    [   0.0000000000000000,  0.0100000000000000,  0.0000000000000000 ]
- atom:   65
  direction:
    [   0.0000000000000000, -1.0000000000000000,  0.0000000000000000 ]
  displacement:
    [   0.0000000000000000, -0.0100000000000000,  0.0000000000000000 ]
- atom:   65
  direction:
    [   0.0000000000000000,  0.0000000000000000,  1.0000000000000000 ]
  displacement:
    [   0.0000000000000000,  0.0000000000000000,  0.0100000000000000 ]
- atom:   65
  direction:
    [   0.0000000000000000,  0.0000000000000000, -1.0000000000000000 ]
  displacement:
    [   0.0000000000000000,  0.0000000000000000, -0.0100000000000000 ]
- atom:  129
  direction:
    [   1.0000000000000000,  0.0000000000000000,  0.0000000000000000 ]
  displacement:
    [   0.0100000000000000,  0.0000000000000000,  0.0000000000000000 ]
- atom:  129
  direction:
    [  -1.0000000000000000,  0.0000000000000000,  0.0000000000000000 ]
  displacement:
    [  -0.0100000000000000,  0.0000000000000000,  0.0000000000000000 ]
- atom:  129
  direction:
    [   0.0000000000000000,  1.0000000000000000,  0.0000000000000000 ]
  displacement:
    [   0.0000000000000000,  0.0100000000000000,  0.0000000000000000 ]
- atom:  129
  direction:
    [   0.0000000000000000, -1.0000000000000000,  0.0000000000000000 ]
  displacement:
    [   0.0000000000000000, -0.0100000000000000,  0.0000000000000000 ]
- atom:  129
  direction:
    [   0.0000000000000000,  0.0000000000000000,  1.0000000000000000 ]
  displacement:
    [   0.0000000000000000,  0.0000000000000000,  0.0100000000000000 ]
- atom:  129
  direction:
    [   0.0000000000000000,  0.0000000000000000, -1.0000000000000000 ]
  displacement:
    [   0.0000000000000000,  0.0000000000000000, -0.0100000000000000 ]
- atom:  193
  direction:
    [   1.0000000000000000,  0.0000000000000000,  0.0000000000000000 ]
  displacement:
    [   0.0100000000000000,  0.0000000000000000,  0.0000000000000000 ]
- atom:  193
  direction:
    [  -1.0000000000000000,  0.0000000000000000,  0.0000000000000000 ]
  displacement:
    [  -0.0100000000000000,  0.0000000000000000,  0.0000000000000000 ]
- atom:  193
  direction:
    [   0.0000000000000000,  1.0000000000000000,  0.0000000000000000 ]
  displacement:
    [   0.0000000000000000,  0.0100000000000000,  0.0000000000000000 ]
- atom:  193
  direction:
    [   0.0000000000000000, -1.0000000000000000,  0.0000000000000000 ]
  displacement:
    [   0.0000000000000000, -0.0100000000000000,  0.0000000000000000 ]
- atom:  193
  direction:
    [   0.0000000000000000,  0.0000000000000000,  1.0000000000000000 ]
  displacement:
    [   0.0000000000000000,  0.0000000000000000,  0.0100000000000000 ]
- atom:  193
  direction:
    [   0.0000000000000000,  0.0000000000000000, -1.0000000000000000 ]
  displacement:
    [   0.0000000000000000,  0.0000000000000000, -0.0100000000000000 ]
- atom:  257
  direction:
    [   1.0000000000000000,  0.0000000000000000,  0.0000000000000000 ]
  displacement:
    [   0.0100000000000000,  0.0000000000000000,  0.0000000000000000 ]
- atom:  257
  direction:
    [  -1.0000000000000000,  0.0000000000000000,  0.0000000000000000 ]
  displacement:
    [  -0.0100000000000000,  0.0000000000000000,  0.0000000000000000 ]
- atom:  257
  direction:
    [   0.0000000000000000,  1.0000000000000000,  0.0000000000000000 ]
  displacement:
    [   0.0000000000000000,  0.0100000000000000,  0.0000000000000000 ]
- atom:  257
  direction:
    [   0.0000000000000000, -1.0000000000000000,  0.0000000000000000 ]
  displacement:
    [   0.0000000000000000, -0.0100000000000000,  0.0000000000000000 ]
- atom:  257
  direction:
    [   0.0000000000000000,  0.0000000000000000,  1.0000000000000000 ]
  displacement:
    [   0.0000000000000000,  0.0000000000000000,  0.0100000000000000 ]
- atom:  257
  direction:
    [   0.0000000000000000,  0.0000000000000000, -1.0000000000000000 ]
  displacement:
    [   0.0000000000000000,  0.0000000000000000, -0.0100000000000000 ]
- atom:  321
  direction:
    [   1.0000000000000000,  0.0000000000000000,  0.0000000000000000 ]
  displacement:
    [   0.0100000000000000,  0.0000000000000000,  0.0000000000000000 ]
- atom:  321
  direction:
    [  -1.0000000000000000,  0.0000000000000000,  0.0000000000000000 ]
  displacement:
    [  -0.0100000000000000,  0.0000000000000000,  0.0000000000000000 ]
- atom:  321
  direction:
    [   0.0000000000000000,  1.0000000000000000,  0.0000000000000000 ]
  displacement:
    [   0.0000000000000000,  0.0100000000000000,  0.0000000000000000 ]
- atom:  321
  direction:
    [   0.0000000000000000, -1.0000000000000000,  0.0000000000000000 ]
  displacement:
    [   0.0000000000000000, -0.0100000000000000,  0.0000000000000000 ]
- atom:  321
  direction:
    [   0.0000000000000000,  0.0000000000000000,  1.0000000000000000 ]
  displacement:
    [   0.0000000000000000,  0.0000000000000000,  0.0100000000000000 ]
- atom:  321
  direction:
    [   0.0000000000000000,  0.0000000000000000, -1.0000000000000000 ]
  displacement:
    [   0.0000000000000000,  0.0000000000000000, -0.0100000000000000 ]
lattice:
- [    14.710000000000001,     0.000000000000000,     0.000000000000000 ] # a
- [     0.000000000000000,    18.742000000000001,     0.000000000000000 ] # b
- [     0.000000000000000,     0.000000000000000,    13.400000000000000 ] # c
points:
- symbol: C  # 1
  coordinates: [  0.472359402711586,  0.071369931856489,  0.001281944444080 ]
  mass: 12.010700
- symbol: C  # 2
  coordinates: [  0.972359402711586,  0.071369931856489,  0.001281944444080 ]
  mass: 12.010700
- symbol: C  # 3
  coordinates: [  0.472359402711586,  0.571369931856489,  0.001281944444080 ]
  mass: 12.010700
- symbol: C  # 4
  coordinates: [  0.972359402711586,  0.571369931856489,  0.001281944444080 ]
  mass: 12.010700
- symbol: C  # 5
  coordinates: [  0.472359402711586,  0.071369931856489,  0.501281944444080 ]
  mass: 12.010700
- symbol: C  # 6
  coordinates: [  0.972359402711586,  0.071369931856489,  0.501281944444080 ]
  mass: 12.010700
- symbol: C  # 7
  coordinates: [  0.472359402711586,  0.571369931856489,  0.501281944444080 ]
  mass: 12.010700
- symbol: C  # 8
  coordinates: [  0.972359402711586,  0.571369931856489,  0.501281944444080 ]
  mass: 12.010700
- symbol: C  # 9
  coordinates: [  0.027640587788415,  0.428630068143511,  0.998718068555921 ]
  mass: 12.010700
- symbol: C  # 10
  coordinates: [  0.527640587788415,  0.428630068143511,  0.998718068555921 ]
  mass: 12.010700
- symbol: C  # 11
  coordinates: [  0.027640587788415,  0.928630068143511,  0.998718068555921 ]
  mass: 12.010700
- symbol: C  # 12
  coordinates: [  0.527640587788415,  0.928630068143511,  0.998718068555921 ]
  mass: 12.010700
- symbol: C  # 13
  coordinates: [  0.027640587788415,  0.428630068143511,  0.498718068555921 ]
  mass: 12.010700
- symbol: C  # 14
  coordinates: [  0.527640587788415,  0.428630068143511,  0.498718068555921 ]
  mass: 12.010700
- symbol: C  # 15
  coordinates: [  0.027640587788415,  0.928630068143511,  0.498718068555921 ]
  mass: 12.010700
- symbol: C  # 16
  coordinates: [  0.527640587788415,  0.928630068143511,  0.498718068555921 ]
  mass: 12.010700
- symbol: C  # 17
  coordinates: [  0.277640597288414,  0.428630068143511,  0.251281929944077 ]
  mass: 12.010700
- symbol: C  # 18
  coordinates: [  0.777640597288414,  0.428630068143511,  0.251281929944077 ]
  mass: 12.010700
- symbol: C  # 19
  coordinates: [  0.277640597288414,  0.928630068143511,  0.251281929944077 ]
  mass: 12.010700
- symbol: C  # 20
  coordinates: [  0.777640597288414,  0.928630068143511,  0.251281929944077 ]
  mass: 12.010700
- symbol: C  # 21
  coordinates: [  0.277640597288414,  0.428630068143511,  0.751281929944077 ]
  mass: 12.010700
- symbol: C  # 22
  coordinates: [  0.777640597288414,  0.428630068143511,  0.751281929944077 ]
  mass: 12.010700
- symbol: C  # 23
  coordinates: [  0.277640597288414,  0.928630068143511,  0.751281929944077 ]
  mass: 12.010700
- symbol: C  # 24
  coordinates: [  0.777640597288414,  0.928630068143511,  0.751281929944077 ]
  mass: 12.010700
- symbol: C  # 25
  coordinates: [  0.222359417711584,  0.071369931856489,  0.248718055555920 ]
  mass: 12.010700
- symbol: C  # 26
  coordinates: [  0.722359417711584,  0.071369931856489,  0.248718055555920 ]
  mass: 12.010700
- symbol: C  # 27
  coordinates: [  0.222359417711584,  0.571369931856489,  0.248718055555920 ]
  mass: 12.010700
- symbol: C  # 28
  coordinates: [  0.722359417711584,  0.571369931856489,  0.248718055555920 ]
  mass: 12.010700
- symbol: C  # 29
  coordinates: [  0.222359417711584,  0.071369931856489,  0.748718055555920 ]
  mass: 12.010700
- symbol: C  # 30
  coordinates: [  0.722359417711584,  0.071369931856489,  0.748718055555920 ]
  mass: 12.010700
- symbol: C  # 31
  coordinates: [  0.222359417711584,  0.571369931856489,  0.748718055555920 ]
  mass: 12.010700
- symbol: C  # 32
  coordinates: [  0.722359417711584,  0.571369931856489,  0.748718055555920 ]
  mass: 12.010700
- symbol: C  # 33
  coordinates: [  0.027640587788415,  0.321369931856489,  0.248718055555920 ]
  mass: 12.010700
- symbol: C  # 34
  coordinates: [  0.527640587788415,  0.321369931856489,  0.248718055555920 ]
  mass: 12.010700
- symbol: C  # 35
  coordinates: [  0.027640587788415,  0.821369931856489,  0.248718055555920 ]
  mass: 12.010700
- symbol: C  # 36
  coordinates: [  0.527640587788415,  0.821369931856489,  0.248718055555920 ]
  mass: 12.010700
- symbol: C  # 37
  coordinates: [  0.027640587788415,  0.321369931856489,  0.748718055555920 ]
  mass: 12.010700
- symbol: C  # 38
  coordinates: [  0.527640587788415,  0.321369931856489,  0.748718055555920 ]
  mass: 12.010700
- symbol: C  # 39
  coordinates: [  0.027640587788415,  0.821369931856489,  0.748718055555920 ]
  mass: 12.010700
- symbol: C  # 40
  coordinates: [  0.527640587788415,  0.821369931856489,  0.748718055555920 ]
  mass: 12.010700
- symbol: C  # 41
  coordinates: [  0.472359402711586,  0.178630068143511,  0.251281929944077 ]
  mass: 12.010700
- symbol: C  # 42
  coordinates: [  0.972359402711586,  0.178630068143511,  0.251281929944077 ]
  mass: 12.010700
- symbol: C  # 43
  coordinates: [  0.472359402711586,  0.678630068143511,  0.251281929944077 ]
  mass: 12.010700
- symbol: C  # 44
  coordinates: [  0.972359402711586,  0.678630068143511,  0.251281929944077 ]
  mass: 12.010700
- symbol: C  # 45
  coordinates: [  0.472359402711586,  0.178630068143511,  0.751281929944077 ]
  mass: 12.010700
- symbol: C  # 46
  coordinates: [  0.972359402711586,  0.178630068143511,  0.751281929944077 ]
  mass: 12.010700
- symbol: C  # 47
  coordinates: [  0.472359402711586,  0.678630068143511,  0.751281929944077 ]
  mass: 12.010700
- symbol: C  # 48
  coordinates: [  0.972359402711586,  0.678630068143511,  0.751281929944077 ]
  mass: 12.010700
- symbol: C  # 49
  coordinates: [  0.222359417711584,  0.178630068143511,  0.998718068555921 ]
  mass: 12.010700
- symbol: C  # 50
  coordinates: [  0.722359417711584,  0.178630068143511,  0.998718068555921 ]
  mass: 12.010700
- symbol: C  # 51
  coordinates: [  0.222359417711584,  0.678630068143511,  0.998718068555921 ]
  mass: 12.010700
- symbol: C  # 52
  coordinates: [  0.722359417711584,  0.678630068143511,  0.998718068555921 ]
  mass: 12.010700
- symbol: C  # 53
  coordinates: [  0.222359417711584,  0.178630068143511,  0.498718068555921 ]
  mass: 12.010700
- symbol: C  # 54
  coordinates: [  0.722359417711584,  0.178630068143511,  0.498718068555921 ]
  mass: 12.010700
- symbol: C  # 55
  coordinates: [  0.222359417711584,  0.678630068143511,  0.498718068555921 ]
  mass: 12.010700
- symbol: C  # 56
  coordinates: [  0.722359417711584,  0.678630068143511,  0.498718068555921 ]
  mass: 12.010700
- symbol: C  # 57
  coordinates: [  0.277640597288414,  0.321369931856489,  0.001281944444080 ]
  mass: 12.010700
- symbol: C  # 58
  coordinates: [  0.777640597288414,  0.321369931856489,  0.001281944444080 ]
  mass: 12.010700
- symbol: C  # 59
  coordinates: [  0.277640597288414,  0.821369931856489,  0.001281944444080 ]
  mass: 12.010700
- symbol: C  # 60
  coordinates: [  0.777640597288414,  0.821369931856489,  0.001281944444080 ]
  mass: 12.010700
- symbol: C  # 61
  coordinates: [  0.277640597288414,  0.321369931856489,  0.501281944444080 ]
  mass: 12.010700
- symbol: C  # 62
  coordinates: [  0.777640597288414,  0.321369931856489,  0.501281944444080 ]
  mass: 12.010700
- symbol: C  # 63
  coordinates: [  0.277640597288414,  0.821369931856489,  0.501281944444080 ]
  mass: 12.010700
- symbol: C  # 64
  coordinates: [  0.777640597288414,  0.821369931856489,  0.501281944444080 ]
  mass: 12.010700
- symbol: C  # 65
  coordinates: [  0.039287883154328,  0.047607414711645,  0.067473639191453 ]
  mass: 12.010700
- symbol: C  # 66
  coordinates: [  0.539287883154328,  0.047607414711645,  0.067473639191453 ]
  mass: 12.010700
- symbol: C  # 67
  coordinates: [  0.039287883154328,  0.547607414711645,  0.067473639191453 ]
  mass: 12.010700
- symbol: C  # 68
  coordinates: [  0.539287883154328,  0.547607414711645,  0.067473639191453 ]
  mass: 12.010700
- symbol: C  # 69
  coordinates: [  0.039287883154328,  0.047607414711645,  0.567473639191453 ]
  mass: 12.010700
- symbol: C  # 70
  coordinates: [  0.539287883154328,  0.047607414711645,  0.567473639191453 ]
  mass: 12.010700
- symbol: C  # 71
  coordinates: [  0.039287883154328,  0.547607414711645,  0.567473639191453 ]
  mass: 12.010700
- symbol: C  # 72
  coordinates: [  0.539287883154328,  0.547607414711645,  0.567473639191453 ]
  mass: 12.010700
- symbol: C  # 73
  coordinates: [  0.460712124345671,  0.452392573788356,  0.432526345808545 ]
  mass: 12.010700
- symbol: C  # 74
  coordinates: [  0.960712124345671,  0.452392573788356,  0.432526345808545 ]
  mass: 12.010700
- symbol: C  # 75
  coordinates: [  0.460712124345671,  0.952392573788356,  0.432526345808545 ]
  mass: 12.010700
- symbol: C  # 76
  coordinates: [  0.960712124345671,  0.952392573788356,  0.432526345808545 ]
  mass: 12.010700
- symbol: C  # 77
  coordinates: [  0.460712124345671,  0.452392573788356,  0.932526345808546 ]
  mass: 12.010700
- symbol: C  # 78
  coordinates: [  0.960712124345671,  0.452392573788356,  0.932526345808546 ]
  mass: 12.010700
- symbol: C  # 79
  coordinates: [  0.460712124345671,  0.952392573788356,  0.932526345808546 ]
  mass: 12.010700
- symbol: C  # 80
  coordinates: [  0.960712124345671,  0.952392573788356,  0.932526345808546 ]
  mass: 12.010700
- symbol: C  # 81
  coordinates: [  0.210712124345671,  0.452392573788356,  0.317473654191455 ]
  mass: 12.010700
- symbol: C  # 82
  coordinates: [  0.710712124345671,  0.452392573788356,  0.317473654191455 ]
  mass: 12.010700
- symbol: C  # 83
  coordinates: [  0.210712124345671,  0.952392573788356,  0.317473654191455 ]
  mass: 12.010700
- symbol: C  # 84
  coordinates: [  0.710712124345671,  0.952392573788356,  0.317473654191455 ]
  mass: 12.010700
- symbol: C  # 85
  coordinates: [  0.210712124345671,  0.452392573788356,  0.817473654191454 ]
  mass: 12.010700
- symbol: C  # 86
  coordinates: [  0.710712124345671,  0.452392573788356,  0.817473654191454 ]
  mass: 12.010700
- symbol: C  # 87
  coordinates: [  0.210712124345671,  0.952392573788356,  0.817473654191454 ]
  mass: 12.010700
- symbol: C  # 88
  coordinates: [  0.710712124345671,  0.952392573788356,  0.817473654191454 ]
  mass: 12.010700
- symbol: C  # 89
  coordinates: [  0.289287875654329,  0.047607414711645,  0.182526360808547 ]
  mass: 12.010700
- symbol: C  # 90
  coordinates: [  0.789287875654329,  0.047607414711645,  0.182526360808547 ]
  mass: 12.010700
- symbol: C  # 91
  coordinates: [  0.289287875654329,  0.547607414711645,  0.182526360808547 ]
  mass: 12.010700
- symbol: C  # 92
  coordinates: [  0.789287875654329,  0.547607414711645,  0.182526360808547 ]
  mass: 12.010700
- symbol: C  # 93
  coordinates: [  0.289287875654329,  0.047607414711645,  0.682526360808547 ]
  mass: 12.010700
- symbol: C  # 94
  coordinates: [  0.789287875654329,  0.047607414711645,  0.682526360808547 ]
  mass: 12.010700
- symbol: C  # 95
  coordinates: [  0.289287875654329,  0.547607414711645,  0.682526360808547 ]
  mass: 12.010700
- symbol: C  # 96
  coordinates: [  0.789287875654329,  0.547607414711645,  0.682526360808547 ]
  mass: 12.010700
- symbol: C  # 97
  coordinates: [  0.460712124345671,  0.297607426211644,  0.182526360808547 ]
  mass: 12.010700
- symbol: C  # 98
  coordinates: [  0.960712124345671,  0.297607426211644,  0.182526360808547 ]
  mass: 12.010700
- symbol: C  # 99
  coordinates: [  0.460712124345671,  0.797607426211644,  0.182526360808547 ]
  mass: 12.010700
- symbol: C  # 100
  coordinates: [  0.960712124345671,  0.797607426211644,  0.182526360808547 ]
  mass: 12.010700
- symbol: C  # 101
  coordinates: [  0.460712124345671,  0.297607426211644,  0.682526360808547 ]
  mass: 12.010700
- symbol: C  # 102
  coordinates: [  0.960712124345671,  0.297607426211644,  0.682526360808547 ]
  mass: 12.010700
- symbol: C  # 103
  coordinates: [  0.460712124345671,  0.797607426211644,  0.682526360808547 ]
  mass: 12.010700
- symbol: C  # 104
  coordinates: [  0.960712124345671,  0.797607426211644,  0.682526360808547 ]
  mass: 12.010700
- symbol: C  # 105
  coordinates: [  0.039287883154328,  0.202392588788357,  0.317473654191455 ]
  mass: 12.010700
- symbol: C  # 106
  coordinates: [  0.539287883154328,  0.202392588788357,  0.317473654191455 ]
  mass: 12.010700
- symbol: C  # 107
  coordinates: [  0.039287883154328,  0.702392588788357,  0.317473654191455 ]
  mass: 12.010700
- symbol: C  # 108
  coordinates: [  0.539287883154328,  0.702392588788357,  0.317473654191455 ]
  mass: 12.010700
- symbol: C  # 109
  coordinates: [  0.039287883154328,  0.202392588788357,  0.817473654191454 ]
  mass: 12.010700
- symbol: C  # 110
  coordinates: [  0.539287883154328,  0.202392588788357,  0.817473654191454 ]
  mass: 12.010700
- symbol: C  # 111
  coordinates: [  0.039287883154328,  0.702392588788357,  0.817473654191454 ]
  mass: 12.010700
- symbol: C  # 112
  coordinates: [  0.539287883154328,  0.702392588788357,  0.817473654191454 ]
  mass: 12.010700
- symbol: C  # 113
  coordinates: [  0.289287875654329,  0.202392588788357,  0.432526345808545 ]
  mass: 12.010700
- symbol: C  # 114
  coordinates: [  0.789287875654329,  0.202392588788357,  0.432526345808545 ]
  mass: 12.010700
- symbol: C  # 115
  coordinates: [  0.289287875654329,  0.702392588788357,  0.432526345808545 ]
  mass: 12.010700
- symbol: C  # 116
  coordinates: [  0.789287875654329,  0.702392588788357,  0.432526345808545 ]
  mass: 12.010700
- symbol: C  # 117
  coordinates: [  0.289287875654329,  0.202392588788357,  0.932526345808546 ]
  mass: 12.010700
- symbol: C  # 118
  coordinates: [  0.789287875654329,  0.202392588788357,  0.932526345808546 ]
  mass: 12.010700
- symbol: C  # 119
  coordinates: [  0.289287875654329,  0.702392588788357,  0.932526345808546 ]
  mass: 12.010700
- symbol: C  # 120
  coordinates: [  0.789287875654329,  0.702392588788357,  0.932526345808546 ]
  mass: 12.010700
- symbol: C  # 121
  coordinates: [  0.210712124345671,  0.297607426211644,  0.067473639191453 ]
  mass: 12.010700
- symbol: C  # 122
  coordinates: [  0.710712124345671,  0.297607426211644,  0.067473639191453 ]
  mass: 12.010700
- symbol: C  # 123
  coordinates: [  0.210712124345671,  0.797607426211644,  0.067473639191453 ]
  mass: 12.010700
- symbol: C  # 124
  coordinates: [  0.710712124345671,  0.797607426211644,  0.067473639191453 ]
  mass: 12.010700
- symbol: C  # 125
  coordinates: [  0.210712124345671,  0.297607426211644,  0.567473639191453 ]
  mass: 12.010700
- symbol: C  # 126
  coordinates: [  0.710712124345671,  0.297607426211644,  0.567473639191453 ]
  mass: 12.010700
- symbol: C  # 127
  coordinates: [  0.210712124345671,  0.797607426211644,  0.567473639191453 ]
  mass: 12.010700
- symbol: C  # 128
  coordinates: [  0.710712124345671,  0.797607426211644,  0.567473639191453 ]
  mass: 12.010700
- symbol: C  # 129
  coordinates: [  0.432874555722156,  0.023689128158928,  0.433766994955430 ]
  mass: 12.010700
- symbol: C  # 130
  coordinates: [  0.932874555722156,  0.023689128158928,  0.433766994955430 ]
  mass: 12.010700
- symbol: C  # 131
  coordinates: [  0.432874555722156,  0.523689128158928,  0.433766994955430 ]
  mass: 12.010700
- symbol: C  # 132
  coordinates: [  0.932874555722156,  0.523689128158928,  0.433766994955430 ]
  mass: 12.010700
- symbol: C  # 133
  coordinates: [  0.432874555722156,  0.023689128158928,  0.933766994955430 ]
  mass: 12.010700
- symbol: C  # 134
  coordinates: [  0.932874555722156,  0.023689128158928,  0.933766994955430 ]
  mass: 12.010700
- symbol: C  # 135
  coordinates: [  0.432874555722156,  0.523689128158928,  0.933766994955430 ]
  mass: 12.010700
- symbol: C  # 136
  coordinates: [  0.932874555722156,  0.523689128158928,  0.933766994955430 ]
  mass: 12.010700
- symbol: C  # 137
  coordinates: [  0.067125444277844,  0.476310860841071,  0.066233005044570 ]
  mass: 12.010700
- symbol: C  # 138
  coordinates: [  0.567125444277844,  0.476310860841071,  0.066233005044570 ]
  mass: 12.010700
- symbol: C  # 139
  coordinates: [  0.067125444277844,  0.976310860841071,  0.066233005044570 ]
  mass: 12.010700
- symbol: C  # 140
  coordinates: [  0.567125444277844,  0.976310860841071,  0.066233005044570 ]
  mass: 12.010700
- symbol: C  # 141
  coordinates: [  0.067125444277844,  0.476310860841071,  0.566233005044570 ]
  mass: 12.010700
- symbol: C  # 142
  coordinates: [  0.567125444277844,  0.476310860841071,  0.566233005044570 ]
  mass: 12.010700
- symbol: C  # 143
  coordinates: [  0.067125444277844,  0.976310860841071,  0.566233005044570 ]
  mass: 12.010700
- symbol: C  # 144
  coordinates: [  0.567125444277844,  0.976310860841071,  0.566233005044570 ]
  mass: 12.010700
- symbol: C  # 145
  coordinates: [  0.317125444277844,  0.476310860841071,  0.183766994955430 ]
  mass: 12.010700
- symbol: C  # 146
  coordinates: [  0.817125444277844,  0.476310860841071,  0.183766994955430 ]
  mass: 12.010700
- symbol: C  # 147
  coordinates: [  0.317125444277844,  0.976310860841071,  0.183766994955430 ]
  mass: 12.010700
- symbol: C  # 148
  coordinates: [  0.817125444277844,  0.976310860841071,  0.183766994955430 ]
  mass: 12.010700
- symbol: C  # 149
  coordinates: [  0.317125444277844,  0.476310860841071,  0.683766994955430 ]
  mass: 12.010700
- symbol: C  # 150
  coordinates: [  0.817125444277844,  0.476310860841071,  0.683766994955430 ]
  mass: 12.010700
- symbol: C  # 151
  coordinates: [  0.317125444277844,  0.976310860841071,  0.683766994955430 ]
  mass: 12.010700
- symbol: C  # 152
  coordinates: [  0.817125444277844,  0.976310860841071,  0.683766994955430 ]
  mass: 12.010700
- symbol: C  # 153
  coordinates: [  0.182874555722156,  0.023689128158928,  0.316233005044570 ]
  mass: 12.010700
- symbol: C  # 154
  coordinates: [  0.682874555722156,  0.023689128158928,  0.316233005044570 ]
  mass: 12.010700
- symbol: C  # 155
  coordinates: [  0.182874555722156,  0.523689128158928,  0.316233005044570 ]
  mass: 12.010700
- symbol: C  # 156
  coordinates: [  0.682874555722156,  0.523689128158928,  0.316233005044570 ]
  mass: 12.010700
- symbol: C  # 157
  coordinates: [  0.182874555722156,  0.023689128158928,  0.816233005044570 ]
  mass: 12.010700
- symbol: C  # 158
  coordinates: [  0.682874555722156,  0.023689128158928,  0.816233005044570 ]
  mass: 12.010700
- symbol: C  # 159
  coordinates: [  0.182874555722156,  0.523689128158928,  0.816233005044570 ]
  mass: 12.010700
- symbol: C  # 160
  coordinates: [  0.682874555722156,  0.523689128158928,  0.816233005044570 ]
  mass: 12.010700
- symbol: C  # 161
  coordinates: [  0.067125444277844,  0.273689139158929,  0.316233005044570 ]
  mass: 12.010700
- symbol: C  # 162
  coordinates: [  0.567125444277844,  0.273689139158929,  0.316233005044570 ]
  mass: 12.010700
- symbol: C  # 163
  coordinates: [  0.067125444277844,  0.773689139158929,  0.316233005044570 ]
  mass: 12.010700
- symbol: C  # 164
  coordinates: [  0.567125444277844,  0.773689139158929,  0.316233005044570 ]
  mass: 12.010700
- symbol: C  # 165
  coordinates: [  0.067125444277844,  0.273689139158929,  0.816233005044570 ]
  mass: 12.010700
- symbol: C  # 166
  coordinates: [  0.567125444277844,  0.273689139158929,  0.816233005044570 ]
  mass: 12.010700
- symbol: C  # 167
  coordinates: [  0.067125444277844,  0.773689139158929,  0.816233005044570 ]
  mass: 12.010700
- symbol: C  # 168
  coordinates: [  0.567125444277844,  0.773689139158929,  0.816233005044570 ]
  mass: 12.010700
- symbol: C  # 169
  coordinates: [  0.432874555722156,  0.226310875341070,  0.183766994955430 ]
  mass: 12.010700
- symbol: C  # 170
  coordinates: [  0.932874555722156,  0.226310875341070,  0.183766994955430 ]
  mass: 12.010700
- symbol: C  # 171
  coordinates: [  0.432874555722156,  0.726310875341070,  0.183766994955430 ]
  mass: 12.010700
- symbol: C  # 172
  coordinates: [  0.932874555722156,  0.726310875341070,  0.183766994955430 ]
  mass: 12.010700
- symbol: C  # 173
  coordinates: [  0.432874555722156,  0.226310875341070,  0.683766994955430 ]
  mass: 12.010700
- symbol: C  # 174
  coordinates: [  0.932874555722156,  0.226310875341070,  0.683766994955430 ]
  mass: 12.010700
- symbol: C  # 175
  coordinates: [  0.432874555722156,  0.726310875341070,  0.683766994955430 ]
  mass: 12.010700
- symbol: C  # 176
  coordinates: [  0.932874555722156,  0.726310875341070,  0.683766994955430 ]
  mass: 12.010700
- symbol: C  # 177
  coordinates: [  0.182874555722156,  0.226310875341070,  0.066233005044570 ]
  mass: 12.010700
- symbol: C  # 178
  coordinates: [  0.682874555722156,  0.226310875341070,  0.066233005044570 ]
  mass: 12.010700
- symbol: C  # 179
  coordinates: [  0.182874555722156,  0.726310875341070,  0.066233005044570 ]
  mass: 12.010700
- symbol: C  # 180
  coordinates: [  0.682874555722156,  0.726310875341070,  0.066233005044570 ]
  mass: 12.010700
- symbol: C  # 181
  coordinates: [  0.182874555722156,  0.226310875341070,  0.566233005044570 ]
  mass: 12.010700
- symbol: C  # 182
  coordinates: [  0.682874555722156,  0.226310875341070,  0.566233005044570 ]
  mass: 12.010700
- symbol: C  # 183
  coordinates: [  0.182874555722156,  0.726310875341070,  0.566233005044570 ]
  mass: 12.010700
- symbol: C  # 184
  coordinates: [  0.682874555722156,  0.726310875341070,  0.566233005044570 ]
  mass: 12.010700
- symbol: C  # 185
  coordinates: [  0.317125444277844,  0.273689139158929,  0.433766994955430 ]
  mass: 12.010700
- symbol: C  # 186
  coordinates: [  0.817125444277844,  0.273689139158929,  0.433766994955430 ]
  mass: 12.010700
- symbol: C  # 187
  coordinates: [  0.317125444277844,  0.773689139158929,  0.433766994955430 ]
  mass: 12.010700
- symbol: C  # 188
  coordinates: [  0.817125444277844,  0.773689139158929,  0.433766994955430 ]
  mass: 12.010700
- symbol: C  # 189
  coordinates: [  0.317125444277844,  0.273689139158929,  0.933766994955430 ]
  mass: 12.010700
- symbol: C  # 190
  coordinates: [  0.817125444277844,  0.273689139158929,  0.933766994955430 ]
  mass: 12.010700
- symbol: C  # 191
  coordinates: [  0.317125444277844,  0.773689139158929,  0.933766994955430 ]
  mass: 12.010700
- symbol: C  # 192
  coordinates: [  0.817125444277844,  0.773689139158929,  0.933766994955430 ]
  mass: 12.010700
- symbol: H  # 193
  coordinates: [  0.451002911278413,  0.127085217932054,  0.002420265114227 ]
  mass: 1.007940
- symbol: H  # 194
  coordinates: [  0.951002911278413,  0.127085217932054,  0.002420265114227 ]
  mass: 1.007940
- symbol: H  # 195
  coordinates: [  0.451002911278413,  0.627085217932054,  0.002420265114227 ]
  mass: 1.007940
- symbol: H  # 196
  coordinates: [  0.951002911278413,  0.627085217932054,  0.002420265114227 ]
  mass: 1.007940
- symbol: H  # 197
  coordinates: [  0.451002911278413,  0.127085217932054,  0.502420265114227 ]
  mass: 1.007940
- symbol: H  # 198
  coordinates: [  0.951002911278413,  0.127085217932054,  0.502420265114227 ]
  mass: 1.007940
- symbol: H  # 199
  coordinates: [  0.451002911278413,  0.627085217932054,  0.502420265114227 ]
  mass: 1.007940
- symbol: H  # 200
  coordinates: [  0.951002911278413,  0.627085217932054,  0.502420265114227 ]
  mass: 1.007940
- symbol: H  # 201
  coordinates: [  0.048997081221588,  0.372914789067943,  0.997579749385772 ]
  mass: 1.007940
- symbol: H  # 202
  coordinates: [  0.548997081221588,  0.372914789067943,  0.997579749385772 ]