Automatically generated mesh
     125
Reciprocal lattice
    0.00000000000000    0.00000000000000    0.00000000000000             1
    0.12500000000000    0.00000000000000    0.00000000000000             2
    0.25000000000000    0.00000000000000    0.00000000000000             2
    0.37500000000000    0.00000000000000    0.00000000000000             2
    0.50000000000000    0.00000000000000    0.00000000000000             1
    0.00000000000000    0.12500000000000    0.00000000000000             2
    0.12500000000000    0.12500000000000    0.00000000000000             4
    0.25000000000000    0.12500000000000    0.00000000000000             4
    0.37500000000000    0.12500000000000    0.00000000000000             4
    0.50000000000000    0.12500000000000    0.00000000000000             2
    0.00000000000000    0.25000000000000    0.00000000000000             2
    0.12500000000000    0.25000000000000    0.00000000000000             4
    0.25000000000000    0.25000000000000    0.00000000000000             4
    0.37500000000000    0.25000000000000    0.00000000000000             4
    0.50000000000000    0.25000000000000    0.00000000000000             2
    0.00000000000000    0.37500000000000    0.00000000000000             2
    0.12500000000000    0.37500000000000    0.00000000000000             4
    0.25000000000000    0.37500000000000    0.00000000000000             4
    0.37500000000000    0.37500000000000    0.00000000000000             4
    0.50000000000000    0.37500000000000    0.00000000000000             2
    0.00000000000000    0.50000000000000    0.00000000000000             1
    0.12500000000000    0.50000000000000    0.00000000000000             2
    0.25000000000000    0.50000000000000    0.00000000000000             2
    0.37500000000000    0.50000000000000    0.00000000000000             2
    0.50000000000000    0.50000000000000    0.00000000000000             1
    0.00000000000000    0.00000000000000    0.12500000000000             2
    0.12500000000000    0.00000000000000    0.12500000000000             4
    0.25000000000000    0.00000000000000    0.12500000000000             4
    0.37500000000000    0.00000000000000    0.12500000000000             4
    0.50000000000000    0.00000000000000    0.12500000000000             2
    0.00000000000000    0.12500000000000    0.12500000000000             4
    0.12500000000000    0.12500000000000    0.12500000000000             8
    0.25000000000000    0.12500000000000    0.12500000000000             8
    0.37500000000000    0.12500000000000    0.12500000000000             8
    0.50000000000000    0.12500000000000    0.12500000000000             4
    0.00000000000000    0.25000000000000    0.12500000000000             4
    0.12500000000000    0.25000000000000    0.12500000000000             8
    0.25000000000000    0.25000000000000    0.12500000000000             8
    0.37500000000000    0.25000000000000    0.12500000000000             8
    0.50000000000000    0.25000000000000    0.12500000000000             4
    0.00000000000000    0.37500000000000    0.12500000000000             4
    0.12500000000000    0.37500000000000    0.12500000000000             8
    0.25000000000000    0.37500000000000    0.12500000000000             8
    0.37500000000000    0.37500000000000    0.12500000000000             8
    0.50000000000000    0.37500000000000    0.12500000000000             4
    0.00000000000000    0.50000000000000    0.12500000000000             2
    0.12500000000000    0.50000000000000    0.12500000000000             4
    0.25000000000000    0.50000000000000    0.12500000000000             4
    0.37500000000000    0.50000000000000    0.12500000000000             4
    0.50000000000000    0.50000000000000    0.12500000000000             2
    0.00000000000000    0.00000000000000    0.25000000000000             2
    0.12500000000000    0.00000000000000    0.25000000000000             4
    0.25000000000000    0.00000000000000    0.25000000000000             4
    0.37500000000000    0.00000000000000    0.25000000000000             4
    0.50000000000000    0.00000000000000    0.25000000000000             2
    0.00000000000000    0.12500000000000    0.25000000000000             4
    0.12500000000000    0.12500000000000    0.25000000000000             8
    0.25000000000000    0.12500000000000    0.25000000000000             8
    0.37500000000000    0.12500000000000    0.25000000000000             8
    0.50000000000000    0.12500000000000    0.25000000000000             4
    0.00000000000000    0.25000000000000    0.25000000000000             4
    0.12500000000000    0.25000000000000    0.25000000000000             8
    0.25000000000000    0.25000000000000    0.25000000000000             8
    0.37500000000000    0.25000000000000    0.25000000000000             8
    0.50000000000000    0.25000000000000    0.25000000000000             4
    0.00000000000000    0.37500000000000    0.25000000000000             4
    0.12500000000000    0.37500000000000    0.25000000000000             8
    0.25000000000000    0.37500000000000    0.25000000000000             8
    0.37500000000000    0.37500000000000    0.25000000000000             8
    0.50000000000000    0.37500000000000    0.25000000000000             4
    0.00000000000000    0.50000000000000    0.25000000000000             2
    0.12500000000000    0.50000000000000    0.25000000000000             4
    0.25000000000000    0.50000000000000    0.25000000000000             4
    0.37500000000000    0.50000000000000    0.25000000000000             4
    0.50000000000000    0.50000000000000    0.25000000000000             2
    0.00000000000000    0.00000000000000    0.37500000000000             2
    0.12500000000000    0.00000000000000    0.37500000000000             4
    0.25000000000000    0.00000000000000    0.37500000000000             4
    0.37500000000000    0.00000000000000    0.37500000000000             4
    0.50000000000000    0.00000000000000    0.37500000000000             2
    0.00000000000000    0.12500000000000    0.37500000000000             4
    0.12500000000000    0.12500000000000    0.37500000000000             8
    0.25000000000000    0.12500000000000    0.37500000000000             8
    0.37500000000000    0.12500000000000    0.37500000000000             8
    0.50000000000000    0.12500000000000    0.37500000000000             4
    0.00000000000000    0.25000000000000    0.37500000000000             4
    0.12500000000000    0.25000000000000    0.37500000000000             8
    0.25000000000000    0.25000000000000    0.37500000000000             8
    0.37500000000000    0.25000000000000    0.37500000000000             8
    0.50000000000000    0.25000000000000    0.37500000000000             4
    0.00000000000000    0.37500000000000    0.37500000000000             4
    0.12500000000000    0.37500000000000    0.37500000000000             8
    0.25000000000000    0.37500000000000    0.37500000000000             8
    0.37500000000000    0.37500000000000    0.37500000000000             8
    0.50000000000000    0.37500000000000    0.37500000000000             4
    0.00000000000000    0.50000000000000    0.37500000000000             2
    0.12500000000000    0.50000000000000    0.37500000000000             4
    0.25000000000000    0.50000000000000    0.37500000000000             4
    0.37500000000000    0.50000000000000    0.37500000000000             4
    0.50000000000000    0.50000000000000    0.37500000000000             2
    0.00000000000000    0.00000000000000    0.50000000000000             1
    0.12500000000000    0.00000000000000    0.50000000000000             2
    0.25000000000000    0.00000000000000    0.50000000000000             2
    0.37500000000000    0.00000000000000    0.50000000000000             2
    0.50000000000000    0.00000000000000    0.50000000000000             1
    0.00000000000000    0.12500000000000    0.50000000000000             2
    0.12500000000000    0.12500000000000    0.50000000000000             4
    0.25000000000000    0.12500000000000    0.50000000000000             4
    0.37500000000000    0.12500000000000    0.50000000000000             4
    0.50000000000000    0.12500000000000    0.50000000000000             2
    0.00000000000000    0.25000000000000    0.50000000000000             2
    0.12500000000000    0.25000000000000    0.50000000000000             4
    0.25000000000000    0.25000000000000    0.50000000000000             4
    0.37500000000000    0.25000000000000    0.50000000000000             4
    0.50000000000000    0.25000000000000    0.50000000000000             2
    0.00000000000000    0.37500000000000    0.50000000000000             2
    0.12500000000000    0.37500000000000    0.50000000000000             4
    0.25000000000000    0.37500000000000    0.50000000000000             4
    0.37500000000000    0.37500000000000    0.50000000000000             4
    0.50000000000000    0.37500000000000    0.50000000000000             2
    0.00000000000000    0.50000000000000    0.50000000000000             1
    0.12500000000000    0.50000000000000    0.50000000000000             2
    0.25000000000000    0.50000000000000    0.50000000000000             2
    0.37500000000000    0.50000000000000    0.50000000000000             2
    0.50000000000000    0.50000000000000    0.50000000000000             1
Tetrahedra
      1536    0.00032552083333
         2         1         2         7        26
         2         1         6         7        26
         2         6         7        26        31
         2         2         7        26        27
         2         7        26        27        32
         2         7        26        31        32
         2         2         3         8        27
         2         2         7         8        27
         2         7         8        27        32
         2         3         8        27        28
         2         8        27        28        33
         2         8        27        32        33
         2         3         4         9        28
         2         3         8         9        28
         2         8         9        28        33
         2         4         9        28        29
         2         9        28        29        34
         2         9        28        33        34
         2         4         5        10        29
         2         4         9        10        29
         2         9        10        29        34
         2         5        10        29        30
         2        10        29        30        35
         2        10        29        34        35
         2         4         5         9        30
         2         5         9        10        30
         2         9        10        30        35
         2         4         9        29        30
         2         9        29        30        34
         2         9        30        34        35
         2         3         4         8        29
         2         4         8         9        29
         2         8         9        29        34
         2         3         8        28        29
         2         8        28        29        33
         2         8        29        33        34
         2         2         3         7        28
         2         3         7         8        28
         2         7         8        28        33
         2         2         7        27        28
         2         7        27        28        32
         2         7        28        32        33
         2         1         2         6        27
         2         2         6         7        27
         2         6         7        27        32
         2         1         6        26        27
         2         6        26        27        31
         2         6        27        31        32
         2         6         7        12        31
         2         6        11        12        31
         2        11        12        31        36
         2         7        12        31        32
         2        12        31        32        37
         2        12        31        36        37
         2         7         8        13        32
         2         7        12        13        32
         2        12        13        32        37
         2         8        13        32        33
         2        13        32        33        38
         2        13        32        37        38
         2         8         9        14        33
         2         8        13        14        33
         2        13        14        33        38
         2         9        14        33        34
         2        14        33        34        39
         2        14        33        38        39
         2         9        10        15        34
         2         9        14        15        34
         2        14        15        34        39
         2        10        15        34        35
         2        15        34        35        40
         2        15        34        39        40
         2         9        10        14        35
         2        10        14        15        35
         2        14        15        35        40
         2         9        14        34        35
         2        14        34        35        39
         2        14        35        39        40
         2         8         9        13        34
         2         9        13        14        34
         2        13        14        34        39
         2         8        13        33        34
         2        13        33        34        38
         2        13        34        38        39
         2         7         8        12        33
         2         8        12        13        33
         2        12        13        33        38
         2         7        12        32        33
         2        12        32        33        37
         2        12        33        37        38
         2         6         7        11        32
         2         7        11        12        32
         2        11        12        32        37
         2         6        11        31        32
         2        11        31        32        36
         2        11        32        36        37
         2        11        12        17        36
         2        11        16        17        36
         2        16        17        36        41
         2        12        17        36        37
         2        17        36        37        42
         2        17        36        41        42
         2        12        13        18        37
         2        12        17        18        37
         2        17        18        37        42
         2        13        18        37        38
         2        18        37        38        43
         2        18        37        42        43
         2        13        14        19        38
         2        13        18        19        38
         2        18        19        38        43
         2        14        19        38        39
         2        19        38        39        44
         2        19        38        43        44
         2        14        15        20        39
         2        14        19        20        39
         2        19        20        39        44
         2        15        20        39        40
         2        20        39        40        45
         2        20        39        44        45
         2        14        15        19        40
         2        15        19        20        40
         2        19        20        40        45
         2        14        19        39        40
         2        19        39        40        44
         2        19        40        44        45
         2        13        14        18        39
         2        14        18        19        39
         2        18        19        39        44
         2        13        18        38        39
         2        18        38        39        43
         2        18        39        43        44
         2        12        13        17        38
         2        13        17        18        38
         2        17        18        38        43
         2        12        17        37        38
         2        17        37        38        42
         2        17        38        42        43
         2        11        12        16        37
         2        12        16        17        37
         2        16        17        37        42
         2        11        16        36        37
         2        16        36        37        41
         2        16        37        41        42
         2        16        17        22        41
         2        16        21        22        41
         2        21        22        41        46
         2        17        22        41        42
         2        22        41        42        47
         2        22        41        46        47
         2        17        18        23        42
         2        17        22        23        42
         2        22        23        42        47
         2        18        23        42        43
         2        23        42        43        48
         2        23        42        47        48
         2        18        19        24        43
         2        18        23        24        43
         2        23        24        43        48
         2        19        24        43        44
         2        24        43        44        49
         2        24        43        48        49
         2        19        20        25        44
         2        19        24        25        44
         2        24        25        44        49
         2        20        25        44        45
         2        25        44        45        50
         2        25        44        49        50
         2        19        20        24        45
         2        20        24        25        45
         2        24        25        45        50
         2        19        24        44        45
         2        24        44        45        49
         2        24        45        49        50
         2        18        19        23        44
         2        19        23        24        44
         2        23        24        44        49
         2        18        23        43        44
         2        23        43        44        48
         2        23        44        48        49
         2        17        18        22        43
         2        18        22        23        43
         2        22        23        43        48
         2        17        22        42        43
         2        22        42        43        47
         2        22        43        47        48
         2        16        17        21        42
         2        17        21        22        42
         2        21        22        42        47
         2        16        21        41        42
         2        21        41        42        46
         2        21        42        46        47
         2        17        21        22        46
         2        16        17        21        46
         2        16        17        41        46
         2        17        22        46        47
         2        17        42        46        47
         2        17        41        42        46
         2        18        22        23        47
         2        17        18        22        47
         2        17        18        42        47
         2        18        23        47        48
         2        18        43        47        48
         2        18        42        43        47
         2        19        23        24        48
         2        18        19        23        48
         2        18        19        43        48
         2        19        24        48        49
         2        19        44        48        49
         2        19        43        44        48
         2        20        24        25        49
         2        19        20        24        49
         2        19        20        44        49
         2        20        25        49        50
         2        20        45        49        50
         2        20        44        45        49
         2        19        24        25        50
         2        19        20        25        50
         2        19        20        45        50
         2        19        24        49        50
         2        19        44        49        50
         2        19        44        45        50
         2        18        23        24        49
         2        18        19        24        49
         2        18        19        44        49
         2        18        23        48        49
         2        18        43        48        49
         2        18        43        44        49
         2        17        22        23        48
         2        17        18        23        48
         2        17        18        43        48
         2        17        22        47        48
         2        17        42        47        48
         2        17        42        43        48
         2        16        21        22        47
         2        16        17        22        47
         2        16        17        42        47
         2        16        21        46        47
         2        16        41        46        47
         2        16        41        42        47
         2        12        16        17        41
         2        11        12        16        41
         2        11        12        36        41
         2        12        17        41        42
         2        12        37        41        42
         2        12        36        37        41
         2        13        17        18        42
         2        12        13        17        42
         2        12        13        37        42
         2        13        18        42        43
         2        13        38        42        43
         2        13        37        38        42
         2        14        18        19        43
         2        13        14        18        43
         2        13        14        38        43
         2        14        19        43        44
         2        14        39        43        44
         2        14        38        39        43
         2        15        19        20        44
         2        14        15        19        44
         2        14        15        39        44
         2        15        20        44        45
         2        15        40        44        45
         2        15        39        40        44
         2        14        19        20        45
         2        14        15        20        45
         2        14        15        40        45
         2        14        19        44        45
         2        14        39        44        45
         2        14        39        40        45
         2        13        18        19        44
         2        13        14        19        44
         2        13        14        39        44
         2        13        18        43        44
         2        13        38        43        44
         2        13        38        39        44
         2        12        17        18        43
         2        12        13        18        43
         2        12        13        38        43
         2        12        17        42        43
         2        12        37        42        43
         2        12        37        38        43
         2        11        16        17        42
         2        11        12        17        42
         2        11        12        37        42
         2        11        16        41        42
         2        11        36        41        42
         2        11        36        37        42
         2         7        11        12        36
         2         6         7        11        36
         2         6         7        31        36
         2         7        12        36        37
         2         7        32        36        37
         2         7        31        32        36
         2         8        12        13        37
         2         7         8        12        37
         2         7         8        32        37
         2         8        13        37        38
         2         8        33        37        38
         2         8        32        33        37
         2         9        13        14        38
         2         8         9        13        38
         2         8         9        33        38
         2         9        14        38        39
         2         9        34        38        39
         2         9        33        34        38
         2        10        14        15        39
         2         9        10        14        39
         2         9        10        34        39
         2        10        15        39        40
         2        10        35        39        40
         2        10        34        35        39
         2         9        14        15        40
         2         9        10        15        40
         2         9        10        35        40
         2         9        14        39        40
         2         9        34        39        40
         2         9        34        35        40
         2         8        13        14        39
         2         8         9        14        39
         2         8         9        34        39
         2         8        13        38        39
         2         8        33        38        39
         2         8        33        34        39
         2         7        12        13        38
         2         7         8        13        38
         2         7         8        33        38
         2         7        12        37        38
         2         7        32        37        38
         2         7        32        33        38
         2         6        11        12        37
         2         6         7        12        37
         2         6         7        32        37
         2         6        11        36        37
         2         6        31        36        37
         2         6        31        32        37
         2         2         6         7        31
         2         1         2         6        31
         2         1         2        26        31
         2         2         7        31        32
         2         2        27        31        32
         2         2        26        27        31
         2         3         7         8        32
         2         2         3         7        32
         2         2         3        27        32
         2         3         8        32        33
         2         3        28        32        33
         2         3        27        28        32
         2         4         8         9        33
         2         3         4         8        33
         2         3         4        28        33
         2         4         9        33        34
         2         4        29        33        34
         2         4        28        29        33
         2         5         9        10        34
         2         4         5         9        34
         2         4         5        29        34
         2         5        10        34        35
         2         5        30        34        35
         2         5        29        30        34
         2         4         9        10        35
         2         4         5        10        35
         2         4         5        30        35
         2         4         9        34        35
         2         4        29        34        35
         2         4        29        30        35
         2         3         8         9        34
         2         3         4         9        34
         2         3         4        29        34
         2         3         8        33        34
         2         3        28        33        34
         2         3        28        29        34
         2         2         7         8        33
         2         2         3         8        33
         2         2         3        28        33
         2         2         7        32        33
         2         2        27        32        33
         2         2        27        28        33
         2         1         6         7        32
         2         1         2         7        32
         2         1         2        27        32
         2         1         6        31        32
         2         1        26        31        32
         2         1        26        27        32
         2        26        27        32        51
         2        26        31        32        51
         2        31        32        51        56
         2        27        32        51        52
         2        32        51        52        57
         2        32        51        56        57
         2        27        28        33        52
         2        27        32        33        52
         2        32        33        52        57
         2        28        33        52        53
         2        33        52        53        58
         2        33        52        57        58
         2        28        29        34        53
         2        28        33        34        53
         2        33        34        53        58
         2        29        34        53        54
         2        34        53        54        59
         2        34        53        58        59