graphite                                
           1
     2.466437   -0.000960    0.000000
    -1.234050    2.135517    0.000000
     0.000000    0.000000    6.631751
   C 
   4
Direct configuration=     1
   0.99934661  0.00065344  0.25000000
   0.00065344  0.99934661  0.75000000
   0.33258492  0.66741506  0.25000000
   0.66741506  0.33258492  0.75000000
