benzene                                 
           1
     7.355000    0.000000    0.000000
     0.000000    9.371000    0.000000
     0.000000    0.000000    6.700000
   C    H 
  24  24
Direct configuration=     1
   0.94599998  0.13760001  0.99980003
   0.05400000  0.86239999  0.00020000
   0.55400002  0.86239999  0.49980000
   0.44600001  0.13760001  0.50019997
   0.05400000  0.63760001  0.50019997
   0.94599998  0.36239999  0.49980000
   0.44600001  0.36239999  0.00020000
   0.55400002  0.63760001  0.99980003
   0.07680000  0.09030000  0.13240001
   0.92320001  0.90969998  0.86759996
   0.42320001  0.90969998  0.63240004
   0.57679999  0.09030000  0.36759999
   0.92320001  0.59030002  0.36759999
   0.07680000  0.40970001  0.63240004
   0.57679999  0.40970001  0.86759996
   0.42320001  0.59030002  0.13240001
   0.87000001  0.04540000  0.87180000
   0.12999999  0.95459998  0.12820000
   0.62999999  0.95459998  0.37180000
   0.37000001  0.04540000  0.62820000
   0.12999999  0.54540002  0.62820000
   0.87000001  0.45460001  0.37180000
   0.37000001  0.45460001  0.12820000
   0.62999999  0.54540002  0.87180000
   0.91119999  0.23160000  0.99910003
   0.08880000  0.76840001  0.00090000
   0.58880001  0.76840001  0.49910000
   0.41119999  0.23160000  0.50089997
   0.08880000  0.73159999  0.50089997
   0.91119999  0.26840001  0.49910000
   0.41119999  0.26840001  0.00090000
   0.58880001  0.73159999  0.99910003
   0.12650000  0.15199999  0.22240000
   0.87349999  0.84799999  0.77759999
   0.37349999  0.84799999  0.72240001
   0.62650001  0.15199999  0.27759999
   0.87349999  0.65200001  0.27759999
   0.12650000  0.34799999  0.72240001
   0.62650001  0.34799999  0.77759999
   0.37349999  0.65200001  0.22240000
   0.78079999  0.07640000  0.78670001
   0.21920000  0.92360002  0.21330001
   0.71920001  0.92360002  0.28670001
   0.28079999  0.07640000  0.71329999
   0.21920000  0.57639998  0.71329999
   0.78079999  0.42360002  0.28670001
   0.28079999  0.42360002  0.21330001
   0.71920001  0.57639998  0.78670001
Direct configuration=     2
   0.96690032  0.10247763  0.01041701
   0.03309966  0.89752237 -0.01041698
   0.53309968  0.89752237  0.51041698
   0.46690035  0.10247763  0.48958299
   0.03309966  0.60247763  0.48958299
   0.96690032  0.39752237  0.51041698
   0.46690035  0.39752237 -0.01041698
   0.53309968  0.60247763  0.01041701
   0.04881619  0.07417573  0.08959036
   0.95118383  0.92582425  0.91040961
   0.45118383  0.92582425  0.58959039
   0.54881617  0.07417573  0.41040964
   0.95118383  0.57417575  0.41040964
   0.04881619  0.42582428  0.58959039
   0.54881617  0.42582428  0.91040961
   0.45118383  0.57417575  0.08959036
   0.90037875  0.03737164  0.90080395
   0.09962125  0.96262834  0.09919605
   0.59962125  0.96262834  0.40080395
   0.40037875  0.03737164  0.59919605
   0.09962125  0.53737166  0.59919605
   0.90037875  0.46262837  0.40080395
   0.40037875  0.46262837  0.09919605
   0.59962125  0.53737166  0.90080395
   0.89336923  0.27971870  0.99978198
   0.10663076  0.72028132  0.00021805
   0.60663077  0.72028132  0.49978195
   0.39336923  0.27971870  0.50021802
   0.10663076  0.77971868  0.50021802
   0.89336923  0.22028132  0.49978195
   0.39336923  0.22028132  0.00021805
   0.60663077  0.77971868  0.99978198
   0.15342144  0.18563531  0.27037573
   0.84657855  0.81436467  0.72962425
   0.34657855  0.81436467  0.77037575
   0.65342145  0.18563531  0.22962425
   0.84657855  0.68563533  0.22962425
   0.15342144  0.31436467  0.77037575
   0.65342145  0.31436467  0.72962425
   0.34657855  0.68563533  0.27037573
   0.73493872  0.09231428  0.74203285
   0.26506127  0.90768574  0.25796716
   0.76506128  0.90768574  0.24203285
   0.23493872  0.09231428  0.75796715
   0.26506127  0.59231426  0.75796715
   0.73493872  0.40768574  0.24203285
   0.23493872  0.40768574  0.25796716
   0.76506128  0.59231426  0.74203285
Direct configuration=     3
   0.95039175  0.13021977  0.00203096
   0.04960823  0.86978023 -0.00203094
   0.54960825  0.86978023  0.50203093
   0.45039178  0.13021977  0.49796904
   0.04960823  0.63021977  0.49796904
   0.95039175  0.36978023  0.50203093
   0.45039178  0.36978023 -0.00203094
   0.54960825  0.63021977  0.00203096
   0.07091979  0.08691182  0.12340445
   0.92908023  0.91308816  0.87659552
   0.42908023  0.91308816  0.62340448
   0.57091977  0.08691182  0.37659555
   0.92908023  0.58691184  0.37659555
   0.07091979  0.41308819  0.62340448
   0.57091977  0.41308819  0.87659552
   0.42908023  0.58691184  0.12340445
   0.87638347  0.04371301  0.87789458
   0.12361653  0.95628697  0.12210542
   0.62361653  0.95628697  0.37789458
   0.37638347  0.04371301  0.62210542
   0.12361653  0.54371303  0.62210542
   0.87638347  0.45628700  0.37789458
   0.37638347  0.45628700  0.12210542
   0.62361653  0.54371303  0.87789458
   0.90745322  0.24171114  0.99924333
   0.09254676  0.75828887  0.00075670
   0.59254678  0.75828887  0.49924330
   0.40745322  0.24171114  0.50075667
   0.09254676  0.74171113  0.50075667
   0.90745322  0.25828887  0.49924330
   0.40745322  0.25828887  0.00075670
   0.59254678  0.74171113  0.99924333
   0.13215698  0.15906776  0.23248110
   0.86784301  0.84093223  0.76751889
   0.36784301  0.84093223  0.73248111
   0.63215699  0.15906776  0.26751889
   0.86784301  0.65906777  0.26751889
   0.13215698  0.34093223  0.73248111
   0.63215699  0.34093223  0.76751889
   0.36784301  0.65906777  0.23248110
   0.77116319  0.07974405  0.77731414
   0.22883679  0.92025596  0.22268588
   0.72883681  0.92025596  0.27731414
   0.27116319  0.07974405  0.72268586
   0.22883679  0.57974404  0.72268586
   0.77116319  0.42025596  0.27731414
   0.27116319  0.42025596  0.22268588
   0.72883681  0.57974404  0.77731414
Direct configuration=     4
   0.94922779  0.13217576  0.00143970
   0.05077219  0.86782424 -0.00143967
   0.55077221  0.86782424  0.50143967
   0.44922782  0.13217576  0.49856030
   0.05077219  0.63217576  0.49856030
   0.94922779  0.36782424  0.50143967
   0.44922782  0.36782424 -0.00143967
   0.55077221  0.63217576  0.00143970
   0.07247823  0.08780979  0.12578855
   0.92752179  0.91219018  0.87421142
   0.42752179  0.91219018  0.62578858
   0.57247821  0.08780979  0.37421145
   0.92752179  0.58780982  0.37421145
   0.07247823  0.41219021  0.62578858
   0.57247821  0.41219021  0.87421142
   0.42752179  0.58780982  0.12578855
   0.87469165  0.04416011  0.87627933
   0.12530835  0.95583986  0.12372067
   0.62530835  0.95583986  0.37627933
   0.37469165  0.04416011  0.62372067
   0.12530835  0.54416014  0.62372067
   0.87469165  0.45583989  0.37627933
   0.37469165  0.45583989  0.12372067
   0.62530835  0.54416014  0.87627933
   0.90844623  0.23903138  0.99920535
   0.09155375  0.76096864  0.00079468
   0.59155377  0.76096864  0.49920532
   0.40844623  0.23903138  0.50079465
   0.09155375  0.73903136  0.50079465
   0.90844623  0.26096864  0.49920532
   0.40844623  0.26096864  0.00079468
   0.59155377  0.73903136  0.99920535
   0.13065770  0.15719458  0.22980929
   0.86934229  0.84280541  0.77019069
   0.36934229  0.84280541  0.72980931
   0.63065771  0.15719458  0.27019069
   0.86934229  0.65719459  0.27019069
   0.13065770  0.34280541  0.72980931
   0.63065771  0.34280541  0.77019069
   0.36934229  0.65719459  0.22980929
   0.77371724  0.07885777  0.77980169
   0.22628274  0.92114224  0.22019833
   0.72628276  0.92114224  0.27980169
   0.27371724  0.07885777  0.72019831
   0.22628274  0.57885776  0.72019831
   0.77371724  0.42114224  0.27980169
   0.27371724  0.42114224  0.22019833
   0.72628276  0.57885776  0.77980169
