   4   4   0   0
  0.6547945E+01  0.2466437E-09  0.2466437E-09  0.4973813E-09  0.5000000E-15
  1.000000000000000E-004
  CAR 
 graphite                                
     22.93085995    -14.76324354  301      7.70016708      1.00000000
    -14.763  0.0000E+00  0.0000E+00
    -14.638  0.0000E+00  0.0000E+00
    -14.512  0.0000E+00  0.0000E+00
    -14.386  0.0000E+00  0.0000E+00
    -14.261  0.0000E+00  0.0000E+00
    -14.135  0.0000E+00  0.0000E+00
    -14.009  0.0000E+00  0.0000E+00
    -13.884  0.0000E+00  0.0000E+00
    -13.758  0.0000E+00  0.0000E+00
    -13.632  0.0000E+00  0.0000E+00
    -13.507  0.0000E+00  0.0000E+00
    -13.381  0.0000E+00  0.0000E+00
    -13.255  0.0000E+00  0.0000E+00
    -13.130  0.0000E+00  0.0000E+00
    -13.004  0.0000E+00  0.0000E+00
    -12.879  0.0000E+00  0.0000E+00
    -12.753  0.7381E-05  0.2547E-07
    -12.627  0.4643E-03  0.3668E-04
    -12.502  0.7813E-03  0.1155E-03
    -12.376  0.9172E-03  0.2211E-03
    -12.250  0.1110E-02  0.3482E-03
    -12.125  0.1235E-02  0.4960E-03
    -11.999  0.1359E-02  0.6587E-03
    -11.873  0.1510E-02  0.8389E-03
    -11.748  0.1621E-02  0.1036E-02
    -11.622  0.1735E-02  0.1247E-02
    -11.496  0.1858E-02  0.1473E-02
    -11.371  0.1991E-02  0.1714E-02
    -11.245  0.2115E-02  0.1973E-02
    -11.119  0.2233E-02  0.2246E-02
    -10.994  0.2385E-02  0.2535E-02
    -10.868  0.2556E-02  0.2846E-02
    -10.743  0.2791E-02  0.3179E-02
    -10.617  0.3089E-02  0.3555E-02
    -10.491  0.3099E-02  0.3944E-02
    -10.366  0.3093E-02  0.4332E-02
    -10.240  0.3109E-02  0.4722E-02
    -10.114  0.3107E-02  0.5112E-02
     -9.989  0.3130E-02  0.5504E-02
     -9.863  0.3129E-02  0.5897E-02
     -9.737  0.3125E-02  0.6290E-02
     -9.612  0.3136E-02  0.6683E-02
     -9.486  0.3149E-02  0.7078E-02
     -9.360  0.3150E-02  0.7474E-02
     -9.235  0.3161E-02  0.7870E-02
     -9.109  0.3176E-02  0.8269E-02
     -8.983  0.3185E-02  0.8668E-02
     -8.858  0.3192E-02  0.9069E-02
     -8.732  0.3195E-02  0.9470E-02
     -8.607  0.3209E-02  0.9872E-02
     -8.481  0.3227E-02  0.1028E-01
     -8.355  0.3247E-02  0.1068E-01
     -8.230  0.3265E-02  0.1109E-01
     -8.104  0.3276E-02  0.1150E-01
     -7.978  0.3298E-02  0.1192E-01
     -7.853  0.3330E-02  0.1233E-01
     -7.727  0.3378E-02  0.1275E-01
     -7.601  0.3441E-02  0.1318E-01
     -7.476  0.3514E-02  0.1362E-01
     -7.350  0.3819E-02  0.1409E-01
     -7.224  0.3784E-02  0.1457E-01
     -7.099  0.3673E-02  0.1503E-01
     -6.973  0.3856E-02  0.1552E-01
     -6.847  0.3606E-02  0.1598E-01
     -6.722  0.3553E-02  0.1643E-01
     -6.596  0.3568E-02  0.1688E-01
     -6.471  0.4173E-02  0.1736E-01
     -6.345  0.5014E-02  0.1787E-01
     -6.219  0.2612E-02  0.1835E-01
     -6.094  0.2247E-02  0.1866E-01
     -5.968  0.2013E-02  0.1892E-01
     -5.842  0.2164E-02  0.1919E-01
     -5.717  0.1286E-02  0.1941E-01
     -5.591  0.1056E-02  0.1956E-01
     -5.465  0.1249E-02  0.1970E-01
     -5.340  0.2586E-02  0.1998E-01
     -5.214  0.2701E-02  0.2032E-01
     -5.088  0.3417E-02  0.2068E-01
     -4.963  0.2686E-02  0.2112E-01
     -4.837  0.2919E-02  0.2146E-01
     -4.711  0.3907E-02  0.2188E-01
     -4.586  0.5570E-02  0.2249E-01
     -4.460  0.4164E-02  0.2310E-01
     -4.335  0.4065E-02  0.2361E-01
     -4.209  0.4211E-02  0.2413E-01
     -4.083  0.3993E-02  0.2464E-01
     -3.958  0.3815E-02  0.2516E-01
     -3.832  0.3358E-02  0.2559E-01
     -3.706  0.3261E-02  0.2600E-01
     -3.581  0.3174E-02  0.2641E-01
     -3.455  0.3076E-02  0.2680E-01
     -3.329  0.2922E-02  0.2718E-01
     -3.204  0.2850E-02  0.2754E-01
     -3.078  0.2788E-02  0.2790E-01
     -2.952  0.2725E-02  0.2824E-01
     -2.827  0.2662E-02  0.2858E-01
     -2.701  0.2773E-02  0.2892E-01
     -2.575  0.3455E-02  0.2930E-01
     -2.450  0.3630E-02  0.2981E-01
     -2.324  0.3822E-02  0.3027E-01
     -2.199  0.3960E-02  0.3076E-01
     -2.073  0.4093E-02  0.3127E-01
     -1.947  0.4232E-02  0.3179E-01
     -1.822  0.4352E-02  0.3233E-01
     -1.696  0.4388E-02  0.3288E-01
     -1.570  0.4467E-02  0.3344E-01
     -1.445  0.4543E-02  0.3400E-01
     -1.319  0.4620E-02  0.3458E-01
     -1.193  0.4695E-02  0.3517E-01
     -1.068  0.4835E-02  0.3576E-01
     -0.942  0.5017E-02  0.3638E-01
     -0.816  0.5441E-02  0.3704E-01
     -0.691  0.5426E-02  0.3773E-01
     -0.565  0.5188E-02  0.3839E-01
     -0.439  0.5192E-02  0.3904E-01
     -0.314  0.5170E-02  0.3969E-01
     -0.188  0.5143E-02  0.4034E-01
     -0.063  0.4993E-02  0.4098E-01
      0.063  0.4966E-02  0.4160E-01
      0.189  0.5728E-02  0.4226E-01
      0.314  0.6353E-02  0.4303E-01
      0.440  0.6740E-02  0.4385E-01
      0.566  0.6634E-02  0.4468E-01
      0.691  0.6607E-02  0.4552E-01
      0.817  0.6752E-02  0.4636E-01
      0.943  0.7268E-02  0.4723E-01
      1.068  0.8229E-02  0.4821E-01
      1.194  0.8725E-02  0.4928E-01
      1.320  0.8505E-02  0.5037E-01
      1.445  0.8077E-02  0.5141E-01
      1.571  0.8305E-02  0.5243E-01
      1.697  0.8567E-02  0.5349E-01
      1.822  0.7659E-02  0.5451E-01
      1.948  0.6401E-02  0.5538E-01
      2.073  0.6794E-02  0.5622E-01
      2.199  0.6633E-02  0.5707E-01
      2.325  0.6468E-02  0.5790E-01
      2.450  0.6072E-02  0.5868E-01
      2.576  0.5992E-02  0.5944E-01
      2.702  0.5986E-02  0.6020E-01
      2.827  0.5868E-02  0.6094E-01
      2.953  0.5738E-02  0.6167E-01
      3.079  0.5539E-02  0.6238E-01
      3.204  0.5809E-02  0.6309E-01
      3.330  0.5865E-02  0.6382E-01
      3.456  0.5721E-02  0.6455E-01
      3.581  0.5528E-02  0.6525E-01
      3.707  0.5466E-02  0.6595E-01
      3.833  0.5527E-02  0.6664E-01
      3.958  0.5681E-02  0.6735E-01
      4.084  0.5420E-02  0.6804E-01
      4.209  0.5228E-02  0.6871E-01
      4.335  0.5144E-02  0.6936E-01
      4.461  0.5499E-02  0.7001E-01
      4.586  0.5548E-02  0.7071E-01
      4.712  0.4565E-02  0.7135E-01
      4.838  0.3745E-02  0.7187E-01
      4.963  0.2889E-02  0.7228E-01
      5.089  0.2826E-02  0.7264E-01
      5.215  0.2761E-02  0.7299E-01
      5.340  0.2739E-02  0.7333E-01
      5.466  0.2738E-02  0.7368E-01
      5.592  0.2912E-02  0.7403E-01
      5.717  0.3445E-02  0.7442E-01
      5.843  0.3758E-02  0.7487E-01
      5.969  0.4488E-02  0.7539E-01
      6.094  0.4165E-02  0.7593E-01
      6.220  0.4115E-02  0.7645E-01
      6.345  0.4118E-02  0.7696E-01
      6.471  0.3804E-02  0.7746E-01
      6.597  0.3639E-02  0.7794E-01
      6.722  0.2811E-02  0.7835E-01
      6.848  0.2366E-02  0.7867E-01
      6.974  0.2315E-02  0.7896E-01
      7.099  0.2067E-02  0.7923E-01
      7.225  0.1880E-02  0.7948E-01
      7.351  0.1510E-02  0.7970E-01
      7.476  0.1028E-02  0.7987E-01
      7.602  0.5345E-03  0.7996E-01
      7.728  0.2701E-03  0.8001E-01
      7.853  0.1933E-03  0.8003E-01
      7.979  0.3010E-03  0.8007E-01
      8.105  0.8118E-03  0.8011E-01
      8.230  0.6062E-03  0.8020E-01
      8.356  0.6707E-03  0.8028E-01
      8.481  0.7261E-03  0.8037E-01
      8.607  0.8094E-03  0.8047E-01
      8.733  0.9118E-03  0.8057E-01
      8.858  0.1016E-02  0.8070E-01
      8.984  0.1148E-02  0.8083E-01
      9.110  0.1606E-02  0.8100E-01
      9.235  0.1836E-02  0.8122E-01
      9.361  0.2328E-02  0.8147E-01
      9.487  0.3565E-02  0.8185E-01
      9.612  0.3693E-02  0.8231E-01
      9.738  0.3949E-02  0.8279E-01
      9.864  0.4001E-02  0.8330E-01
      9.989  0.4187E-02  0.8380E-01
     10.115  0.4173E-02  0.8435E-01
     10.241  0.3805E-02  0.8486E-01
     10.366  0.3482E-02  0.8531E-01
     10.492  0.3337E-02  0.8574E-01
     10.617  0.3087E-02  0.8615E-01
     10.743  0.2928E-02  0.8652E-01
     10.869  0.3273E-02  0.8691E-01
     10.994  0.3518E-02  0.8734E-01
     11.120  0.3201E-02  0.8777E-01
     11.246  0.2965E-02  0.8816E-01
     11.371  0.2890E-02  0.8852E-01
     11.497  0.2727E-02  0.8888E-01
     11.623  0.2599E-02  0.8921E-01
     11.748  0.2509E-02  0.8953E-01
     11.874  0.2405E-02  0.8984E-01
     12.000  0.2321E-02  0.9014E-01
     12.125  0.2276E-02  0.9043E-01
     12.251  0.2233E-02  0.9071E-01
     12.377  0.2191E-02  0.9099E-01
     12.502  0.2148E-02  0.9126E-01
     12.628  0.2103E-02  0.9153E-01
     12.753  0.2054E-02  0.9179E-01
     12.879  0.2000E-02  0.9204E-01
     13.005  0.1970E-02  0.9229E-01
     13.130  0.1942E-02  0.9254E-01
     13.256  0.1916E-02  0.9278E-01
     13.382  0.1892E-02  0.9302E-01
     13.507  0.1869E-02  0.9326E-01
     13.633  0.1846E-02  0.9349E-01
     13.759  0.1824E-02  0.9372E-01
     13.884  0.1800E-02  0.9395E-01
     14.010  0.1924E-02  0.9418E-01
     14.136  0.2307E-02  0.9444E-01
     14.261  0.2691E-02  0.9476E-01
     14.387  0.2939E-02  0.9511E-01
     14.513  0.3134E-02  0.9549E-01
     14.638  0.3313E-02  0.9590E-01
     14.764  0.3476E-02  0.9633E-01
     14.889  0.3676E-02  0.9677E-01
     15.015  0.3885E-02  0.9725E-01
     15.141  0.4078E-02  0.9775E-01
     15.266  0.4272E-02  0.9827E-01
     15.392  0.4526E-02  0.9883E-01
     15.518  0.4798E-02  0.9941E-01
     15.643  0.5117E-02  0.1000E+00
     15.769  0.5493E-02  0.1007E+00
     15.895  0.1005E-01  0.1015E+00
     16.020  0.6454E-02  0.1025E+00
     16.146  0.6691E-02  0.1034E+00
     16.272  0.7498E-02  0.1042E+00
     16.397  0.7676E-02  0.1052E+00
     16.523  0.6954E-02  0.1061E+00
     16.649  0.8731E-02  0.1072E+00
     16.774  0.7249E-02  0.1081E+00
     16.900  0.6756E-02  0.1090E+00
     17.025  0.6307E-02  0.1098E+00
     17.151  0.6143E-02  0.1106E+00
     17.277  0.6124E-02  0.1114E+00
     17.402  0.6568E-02  0.1122E+00
     17.528  0.6891E-02  0.1130E+00
     17.654  0.6945E-02  0.1139E+00
     17.779  0.3933E-02  0.1146E+00
     17.905  0.3152E-02  0.1150E+00
     18.031  0.2787E-02  0.1154E+00
     18.156  0.2666E-02  0.1158E+00
     18.282  0.2731E-02  0.1161E+00
     18.408  0.4150E-02  0.1165E+00
     18.533  0.4051E-02  0.1170E+00
     18.659  0.3743E-02  0.1175E+00
     18.785  0.2953E-02  0.1179E+00
     18.910  0.2371E-02  0.1183E+00
     19.036  0.1957E-02  0.1186E+00
     19.161  0.1701E-02  0.1188E+00
     19.287  0.1417E-02  0.1190E+00
     19.413  0.1200E-02  0.1191E+00
     19.538  0.1028E-02  0.1193E+00
     19.664  0.9956E-03  0.1194E+00
     19.790  0.8139E-03  0.1195E+00
     19.915  0.9559E-03  0.1196E+00
     20.041  0.6006E-03  0.1197E+00
     20.167  0.4566E-03  0.1198E+00
     20.292  0.4386E-03  0.1199E+00
     20.418  0.3451E-03  0.1199E+00
     20.544  0.2730E-03  0.1199E+00
     20.669  0.1795E-03  0.1200E+00
     20.795  0.9010E-04  0.1200E+00
     20.921  0.8213E-06  0.1200E+00
     21.046  0.0000E+00  0.1200E+00
     21.172  0.0000E+00  0.1200E+00
     21.297  0.0000E+00  0.1200E+00
     21.423  0.0000E+00  0.1200E+00
     21.549  0.0000E+00  0.1200E+00
     21.674  0.0000E+00  0.1200E+00
     21.800  0.0000E+00  0.1200E+00
     21.926  0.0000E+00  0.1200E+00
     22.051  0.0000E+00  0.1200E+00
     22.177  0.0000E+00  0.1200E+00
     22.303  0.0000E+00  0.1200E+00
     22.428  0.0000E+00  0.1200E+00
     22.554  0.0000E+00  0.1200E+00
     22.680  0.0000E+00  0.1200E+00
     22.805  0.0000E+00  0.1200E+00
     22.931  0.0000E+00  0.1200E+00
