   4   4   0   0
  0.8294063E+01  0.2466437E-09  0.2466437E-09  0.6300163E-09  0.5000000E-15
  1.000000000000000E-004
  CAR 
 graphite                                
     19.27940270    -16.46347104  301      5.22994052      1.00000000
    -16.463  0.0000E+00  0.0000E+00
    -16.344  0.0000E+00  0.0000E+00
    -16.225  0.0000E+00  0.0000E+00
    -16.106  0.0000E+00  0.0000E+00
    -15.987  0.0000E+00  0.0000E+00
    -15.868  0.0000E+00  0.0000E+00
    -15.749  0.0000E+00  0.0000E+00
    -15.629  0.0000E+00  0.0000E+00
    -15.510  0.0000E+00  0.0000E+00
    -15.391  0.0000E+00  0.0000E+00
    -15.272  0.0000E+00  0.0000E+00
    -15.153  0.0000E+00  0.0000E+00
    -15.034  0.0000E+00  0.0000E+00
    -14.915  0.0000E+00  0.0000E+00
    -14.795  0.0000E+00  0.0000E+00
    -14.676  0.0000E+00  0.0000E+00
    -14.557  0.0000E+00  0.0000E+00
    -14.438  0.1516E-03  0.1356E-05
    -14.319  0.1034E-02  0.8679E-04
    -14.200  0.1626E-02  0.2473E-03
    -14.081  0.2090E-02  0.4659E-03
    -13.961  0.3027E-02  0.7609E-03
    -13.842  0.3082E-02  0.1128E-02
    -13.723  0.3039E-02  0.1495E-02
    -13.604  0.3113E-02  0.1861E-02
    -13.485  0.3085E-02  0.2233E-02
    -13.366  0.3072E-02  0.2599E-02
    -13.247  0.3104E-02  0.2967E-02
    -13.127  0.3122E-02  0.3338E-02
    -13.008  0.3107E-02  0.3709E-02
    -12.889  0.3107E-02  0.4079E-02
    -12.770  0.3123E-02  0.4450E-02
    -12.651  0.3128E-02  0.4823E-02
    -12.532  0.3127E-02  0.5195E-02
    -12.413  0.3143E-02  0.5569E-02
    -12.293  0.3148E-02  0.5943E-02
    -12.174  0.3153E-02  0.6319E-02
    -12.055  0.3151E-02  0.6695E-02
    -11.936  0.3154E-02  0.7070E-02
    -11.817  0.3175E-02  0.7447E-02
    -11.698  0.3189E-02  0.7826E-02
    -11.579  0.3194E-02  0.8206E-02
    -11.459  0.3200E-02  0.8587E-02
    -11.340  0.3194E-02  0.8968E-02
    -11.221  0.3204E-02  0.9349E-02
    -11.102  0.3225E-02  0.9732E-02
    -10.983  0.3249E-02  0.1012E-01
    -10.864  0.3259E-02  0.1051E-01
    -10.745  0.3269E-02  0.1089E-01
    -10.625  0.3277E-02  0.1128E-01
    -10.506  0.3285E-02  0.1168E-01
    -10.387  0.3305E-02  0.1207E-01
    -10.268  0.3334E-02  0.1246E-01
    -10.149  0.3368E-02  0.1286E-01
    -10.030  0.3400E-02  0.1327E-01
     -9.911  0.3436E-02  0.1367E-01
     -9.791  0.3487E-02  0.1409E-01
     -9.672  0.3555E-02  0.1450E-01
     -9.553  0.3683E-02  0.1493E-01
     -9.434  0.3856E-02  0.1538E-01
     -9.315  0.4517E-02  0.1587E-01
     -9.196  0.4808E-02  0.1643E-01
     -9.077  0.4745E-02  0.1700E-01
     -8.957  0.4152E-02  0.1752E-01
     -8.838  0.3341E-02  0.1799E-01
     -8.719  0.3391E-02  0.1837E-01
     -8.600  0.2128E-02  0.1867E-01
     -8.481  0.1867E-02  0.1891E-01
     -8.362  0.1606E-02  0.1912E-01
     -8.243  0.1813E-02  0.1931E-01
     -8.123  0.1519E-02  0.1952E-01
     -8.004  0.1214E-02  0.1968E-01
     -7.885  0.1109E-02  0.1981E-01
     -7.766  0.2143E-02  0.1998E-01
     -7.647  0.3130E-02  0.2034E-01
     -7.528  0.3347E-02  0.2073E-01
     -7.409  0.2825E-02  0.2109E-01
     -7.289  0.3747E-02  0.2150E-01
     -7.170  0.4789E-02  0.2200E-01
     -7.051  0.4555E-02  0.2252E-01
     -6.932  0.5351E-02  0.2311E-01
     -6.813  0.4789E-02  0.2373E-01
     -6.694  0.3846E-02  0.2424E-01
     -6.575  0.3685E-02  0.2469E-01
     -6.455  0.3543E-02  0.2512E-01
     -6.336  0.3401E-02  0.2553E-01
     -6.217  0.3258E-02  0.2593E-01
     -6.098  0.3115E-02  0.2631E-01
     -5.979  0.3004E-02  0.2667E-01
     -5.860  0.2958E-02  0.2703E-01
     -5.741  0.2922E-02  0.2738E-01
     -5.621  0.2885E-02  0.2772E-01
     -5.502  0.2848E-02  0.2806E-01
     -5.383  0.2703E-02  0.2840E-01
     -5.264  0.2571E-02  0.2871E-01
     -5.145  0.2958E-02  0.2904E-01
     -5.026  0.3404E-02  0.2942E-01
     -4.907  0.3849E-02  0.2985E-01
     -4.787  0.3804E-02  0.3031E-01
     -4.668  0.3713E-02  0.3076E-01
     -4.549  0.3656E-02  0.3119E-01
     -4.430  0.3598E-02  0.3163E-01
     -4.311  0.3625E-02  0.3206E-01
     -4.192  0.3727E-02  0.3249E-01
     -4.073  0.3823E-02  0.3294E-01
     -3.953  0.3901E-02  0.3340E-01
     -3.834  0.3940E-02  0.3387E-01
     -3.715  0.3954E-02  0.3434E-01
     -3.596  0.3905E-02  0.3481E-01
     -3.477  0.4093E-02  0.3528E-01
     -3.358  0.4426E-02  0.3580E-01
     -3.239  0.4659E-02  0.3634E-01
     -3.119  0.4787E-02  0.3690E-01
     -3.000  0.4943E-02  0.3748E-01
     -2.881  0.5150E-02  0.3808E-01
     -2.762  0.5382E-02  0.3871E-01
     -2.643  0.5577E-02  0.3936E-01
     -2.524  0.5764E-02  0.4004E-01
     -2.405  0.5956E-02  0.4074E-01
     -2.285  0.6296E-02  0.4146E-01
     -2.166  0.6742E-02  0.4225E-01
     -2.047  0.6433E-02  0.4303E-01
     -1.928  0.6518E-02  0.4380E-01
     -1.809  0.6644E-02  0.4459E-01
     -1.690  0.6744E-02  0.4539E-01
     -1.571  0.6914E-02  0.4620E-01
     -1.451  0.7884E-02  0.4707E-01
     -1.332  0.9369E-02  0.4807E-01
     -1.213  0.1128E-01  0.4930E-01
     -1.094  0.1150E-01  0.5070E-01
     -0.975  0.9477E-02  0.5194E-01
     -0.856  0.8855E-02  0.5303E-01
     -0.737  0.8404E-02  0.5405E-01
     -0.617  0.7895E-02  0.5503E-01
     -0.498  0.6965E-02  0.5594E-01
     -0.379  0.6617E-02  0.5673E-01
     -0.260  0.6745E-02  0.5752E-01
     -0.141  0.7036E-02  0.5834E-01
     -0.022  0.7726E-02  0.5919E-01
      0.097  0.6832E-02  0.6003E-01
      0.217  0.6167E-02  0.6081E-01
      0.336  0.5831E-02  0.6152E-01
      0.455  0.5914E-02  0.6221E-01
      0.574  0.6864E-02  0.6295E-01
      0.693  0.6920E-02  0.6385E-01
      0.812  0.6145E-02  0.6461E-01
      0.931  0.5969E-02  0.6533E-01
      1.051  0.5827E-02  0.6604E-01
      1.170  0.5749E-02  0.6672E-01
      1.289  0.5896E-02  0.6741E-01
      1.408  0.5828E-02  0.6811E-01
      1.527  0.5709E-02  0.6880E-01
      1.646  0.5582E-02  0.6947E-01
      1.765  0.5704E-02  0.7014E-01
      1.885  0.5717E-02  0.7083E-01
      2.004  0.6037E-02  0.7151E-01
      2.123  0.5879E-02  0.7220E-01
      2.242  0.4839E-02  0.7287E-01
      2.361  0.3998E-02  0.7337E-01
      2.480  0.3914E-02  0.7384E-01
      2.599  0.3907E-02  0.7430E-01
      2.719  0.4031E-02  0.7478E-01
      2.838  0.3970E-02  0.7525E-01
      2.957  0.4003E-02  0.7573E-01
      3.076  0.4210E-02  0.7621E-01
      3.195  0.4563E-02  0.7672E-01
      3.314  0.3862E-02  0.7726E-01
      3.433  0.3295E-02  0.7768E-01
      3.553  0.2740E-02  0.7803E-01
      3.672  0.2460E-02  0.7834E-01
      3.791  0.2115E-02  0.7861E-01
      3.910  0.1887E-02  0.7885E-01
      4.029  0.1701E-02  0.7906E-01
      4.148  0.1474E-02  0.7925E-01
      4.267  0.1188E-02  0.7941E-01
      4.387  0.1026E-02  0.7954E-01
      4.506  0.8723E-03  0.7965E-01
      4.625  0.7369E-03  0.7975E-01
      4.744  0.6220E-03  0.7983E-01
      4.863  0.5578E-03  0.7990E-01
      4.982  0.3660E-03  0.7996E-01
      5.101  0.1782E-03  0.7999E-01
      5.221  0.1265E-04  0.8000E-01
      5.340  0.8123E-04  0.8000E-01
      5.459  0.1787E-03  0.8002E-01
      5.578  0.2822E-03  0.8005E-01
      5.697  0.3929E-03  0.8009E-01
      5.816  0.5143E-03  0.8014E-01
      5.935  0.6255E-03  0.8021E-01
      6.055  0.7933E-03  0.8029E-01
      6.174  0.1010E-02  0.8040E-01
      6.293  0.1272E-02  0.8053E-01
      6.412  0.1523E-02  0.8070E-01
      6.531  0.1989E-02  0.8091E-01
      6.650  0.3501E-02  0.8123E-01
      6.769  0.3859E-02  0.8166E-01
      6.889  0.5208E-02  0.8233E-01
      7.008  0.4515E-02  0.8291E-01
      7.127  0.4125E-02  0.8342E-01
      7.246  0.4039E-02  0.8390E-01
      7.365  0.3971E-02  0.8439E-01
      7.484  0.3732E-02  0.8484E-01
      7.603  0.3706E-02  0.8528E-01
      7.723  0.3697E-02  0.8573E-01
      7.842  0.3234E-02  0.8613E-01
      7.961  0.3049E-02  0.8651E-01
      8.080  0.2898E-02  0.8686E-01
      8.199  0.2781E-02  0.8720E-01
      8.318  0.2683E-02  0.8752E-01
      8.437  0.2594E-02  0.8784E-01
      8.557  0.2522E-02  0.8814E-01
      8.676  0.2455E-02  0.8844E-01
      8.795  0.2387E-02  0.8873E-01
      8.914  0.2330E-02  0.8901E-01
      9.033  0.2277E-02  0.8928E-01
      9.152  0.2228E-02  0.8955E-01
      9.271  0.2180E-02  0.8981E-01
      9.391  0.2134E-02  0.9007E-01
      9.510  0.2089E-02  0.9032E-01
      9.629  0.2050E-02  0.9057E-01
      9.748  0.2018E-02  0.9081E-01
      9.867  0.1985E-02  0.9105E-01
      9.986  0.1944E-02  0.9128E-01
     10.105  0.1908E-02  0.9151E-01
     10.225  0.1920E-02  0.9174E-01
     10.344  0.2054E-02  0.9198E-01
     10.463  0.2166E-02  0.9223E-01
     10.582  0.2186E-02  0.9249E-01
     10.701  0.2211E-02  0.9275E-01
     10.820  0.2256E-02  0.9302E-01
     10.939  0.2291E-02  0.9329E-01
     11.059  0.2334E-02  0.9356E-01
     11.178  0.2393E-02  0.9384E-01
     11.297  0.2455E-02  0.9413E-01
     11.416  0.2520E-02  0.9443E-01
     11.535  0.2628E-02  0.9474E-01
     11.654  0.2739E-02  0.9506E-01
     11.773  0.2804E-02  0.9539E-01
     11.893  0.2741E-02  0.9572E-01
     12.012  0.2412E-02  0.9603E-01
     12.131  0.2337E-02  0.9631E-01
     12.250  0.2158E-02  0.9658E-01
     12.369  0.2089E-02  0.9683E-01
     12.488  0.2886E-02  0.9712E-01
     12.607  0.4035E-02  0.9753E-01
     12.727  0.5578E-02  0.9810E-01
     12.846  0.6895E-02  0.9885E-01
     12.965  0.7293E-02  0.9969E-01
     13.084  0.8818E-02  0.1006E+00
     13.203  0.9401E-02  0.1017E+00
     13.322  0.8798E-02  0.1028E+00
     13.441  0.8214E-02  0.1038E+00
     13.561  0.9725E-02  0.1049E+00
     13.680  0.1336E-01  0.1064E+00
     13.799  0.1205E-01  0.1080E+00
     13.918  0.8792E-02  0.1092E+00
     14.037  0.7326E-02  0.1102E+00
     14.156  0.5954E-02  0.1110E+00
     14.275  0.5611E-02  0.1117E+00
     14.395  0.5067E-02  0.1123E+00
     14.514  0.4639E-02  0.1129E+00
     14.633  0.4743E-02  0.1134E+00
     14.752  0.4854E-02  0.1140E+00
     14.871  0.3416E-02  0.1145E+00
     14.990  0.2872E-02  0.1149E+00
     15.109  0.2847E-02  0.1152E+00
     15.229  0.3133E-02  0.1156E+00
     15.348  0.3101E-02  0.1160E+00
     15.467  0.2979E-02  0.1163E+00
     15.586  0.3727E-02  0.1167E+00
     15.705  0.4164E-02  0.1172E+00
     15.824  0.5182E-02  0.1177E+00
     15.943  0.3748E-02  0.1183E+00
     16.063  0.2939E-02  0.1187E+00
     16.182  0.2376E-02  0.1190E+00
     16.301  0.2225E-02  0.1193E+00
     16.420  0.2029E-02  0.1195E+00
     16.539  0.1140E-02  0.1197E+00
     16.658  0.8764E-03  0.1198E+00
     16.777  0.6414E-03  0.1199E+00
     16.897  0.3668E-03  0.1200E+00
     17.016  0.1824E-03  0.1200E+00
     17.135  0.4407E-04  0.1200E+00
     17.254  0.7446E-06  0.1200E+00
     17.373  0.0000E+00  0.1200E+00
     17.492  0.0000E+00  0.1200E+00
     17.611  0.0000E+00  0.1200E+00
     17.731  0.0000E+00  0.1200E+00
     17.850  0.0000E+00  0.1200E+00
     17.969  0.0000E+00  0.1200E+00
     18.088  0.0000E+00  0.1200E+00
     18.207  0.0000E+00  0.1200E+00
     18.326  0.0000E+00  0.1200E+00
     18.445  0.0000E+00  0.1200E+00
     18.565  0.0000E+00  0.1200E+00
     18.684  0.0000E+00  0.1200E+00
     18.803  0.0000E+00  0.1200E+00
     18.922  0.0000E+00  0.1200E+00
     19.041  0.0000E+00  0.1200E+00
     19.160  0.0000E+00  0.1200E+00
     19.279  0.0000E+00  0.1200E+00
