32   
4    

1    
  0.0036454751284107  -0.0000014183837932   0.0093118477799160
  -0.2377878200    0.0070387500   -0.1343032800
   0.0278391300    0.0059431900   -0.0035537000
  -0.0111973200   -0.0166063400   -0.0034872000
  -0.0112984000    0.0286224700   -0.0037149000
  -0.0104895900    0.0059272300    0.0029350800
  -0.0104538900    0.0059274700    0.0030278000
  -0.0104756300    0.0059180400    0.0030242900
  -0.0104761700    0.0059376500    0.0030252000
   0.0102978700   -0.0061134500   -0.0030357800
   0.0099113400   -0.0062354500   -0.0031794800
   0.0102053300   -0.0058337600   -0.0031050300
   0.0099352500   -0.0060667300   -0.0017733300
   0.0102330300   -0.0056237500   -0.0032928200
   0.0105877700   -0.0057248700   -0.0031541600
   0.0104960100   -0.0059904500   -0.0032260500
   0.0102371000   -0.0057943500   -0.0017834100
   0.0114789800   -0.0054961600    0.0122111800
   0.0405152400   -0.0062204100    0.0454894200
   0.0883100100    0.0219680100    0.0459374500
   0.0886301900   -0.0333294800    0.0449759300
   0.0096462500   -0.0054662800   -0.0004589600
   0.0096534900   -0.0054653400   -0.0004147300
   0.0096437200   -0.0054702300   -0.0004143900
   0.0096438700   -0.0054645600   -0.0004148100
  -0.0099036800    0.0058323500    0.0014234100
  -0.0087680600    0.0060232800    0.0014998000
  -0.0095050200    0.0049488700    0.0014599100
  -0.0092283400    0.0055953300    0.0001752300
  -0.0089045200    0.0049111000    0.0014075200
  -0.0098933300    0.0051153200    0.0012958500
  -0.0095782700    0.0058845600    0.0013299700
  -0.0093045300    0.0053080200    0.0000940000

1    
 -0.0036454751284107   0.0000014183837932  -0.0093118477799160
   0.2172102400    0.0070368100    0.1342834300
  -0.0486113300    0.0059174300    0.0035354400
  -0.0093834900    0.0285882400    0.0036007100
  -0.0094844100   -0.0167349200    0.0035611100
  -0.0104010000    0.0060310900   -0.0028722400
  -0.0104392900    0.0060288600   -0.0029596100
  -0.0104217300    0.0060411100   -0.0029645300
  -0.0104222200    0.0060152600   -0.0029630100
   0.0101134700   -0.0061320400    0.0031030100
   0.0104511200   -0.0060273500    0.0032471400
   0.0101858600   -0.0063776400    0.0031734400
   0.0104327600   -0.0061608200    0.0017392500
   0.0107535200   -0.0060353300    0.0031789800
   0.0103782100   -0.0059561000    0.0030366700
   0.0104967100   -0.0056587100    0.0031129100
   0.0107129700   -0.0058772400    0.0017775000
   0.0075044400   -0.0054797600   -0.0122813300
  -0.0214421600   -0.0060027200   -0.0455622900
  -0.0698005500   -0.0333934100   -0.0451040300
  -0.0690764300    0.0219611300   -0.0459594100
   0.0095940700   -0.0055388800    0.0004888400
   0.0095934100   -0.0055406800    0.0004486000
   0.0095934500   -0.0055371500    0.0004475200
   0.0095947800   -0.0055435700    0.0004453900
  -0.0091184900    0.0055097200   -0.0013191700
  -0.0101162600    0.0053238900   -0.0013881300
  -0.0094620900    0.0062526200   -0.0013517800
  -0.0097240500    0.0056983000   -0.0000987700
  -0.0102566300    0.0058129200   -0.0014820700
  -0.0091389900    0.0056269500   -0.0013524000
  -0.0095383000    0.0047562100   -0.0013912600
  -0.0097775800    0.0053957700   -0.0001299000

17   
  0.0036454751284107  -0.0000014183837932   0.0093118477799160
  -0.0083936400    0.0059313500    0.0098296100
   0.0205388700    0.0064688700    0.0431063100
   0.0688996800    0.0338404100    0.0426380500
   0.0681877600   -0.0215119600    0.0435064100
  -0.0101962300    0.0059966400   -0.0029473600
  -0.0101911700    0.0059971400   -0.0029059800
  -0.0101966900    0.0059933500   -0.0029070100
  -0.0101967300    0.0060002500   -0.0029033800
   0.0104362700   -0.0062677800    0.0036550000
   0.0107046600   -0.0060999100    0.0040470000
   0.0104301500   -0.0063783300    0.0038417000
   0.0106662700   -0.0062465200    0.0025702900
   0.0107628000   -0.0060837300    0.0040605200
   0.0105158700   -0.0058582900    0.0036218900
   0.0104490500   -0.0057938000    0.0038269300
   0.0107375400   -0.0059150700    0.0025787900
  -0.2181832000   -0.0064541800   -0.1363922900
   0.0472412100   -0.0053291600   -0.0068010700
   0.0092234500   -0.0273096300   -0.0068630900
   0.0093287600    0.0166310100   -0.0068518400
   0.0093156900   -0.0055021700    0.0006021000
   0.0092947100   -0.0055021800    0.0003594400
   0.0093003300   -0.0054991400    0.0003594400
   0.0093010100   -0.0055061800    0.0003599300
  -0.0100303000    0.0058701300    0.0000507600
  -0.0096147500    0.0058129700    0.0001891000
  -0.0097682500    0.0054882000    0.0001079400
  -0.0099263400    0.0057125700   -0.0005271700
  -0.0094262600    0.0052877000    0.0002075400
  -0.0098520300    0.0052212700    0.0000170900
  -0.0095779300    0.0056171500    0.0000982600
  -0.0097805400    0.0053890300   -0.0005349000

17   
 -0.0036454751284107   0.0000014183837932  -0.0093118477799160
  -0.0127675600    0.0062390100   -0.0101347900
  -0.0417403600    0.0069686000   -0.0434182000
  -0.0895575300   -0.0212285300   -0.0438729900
  -0.0898670700    0.0340867800   -0.0429007000
  -0.0099438300    0.0062250100    0.0026109800
  -0.0099546600    0.0062273400    0.0025686700
  -0.0099480900    0.0062294300    0.0025678100
  -0.0099445800    0.0062187500    0.0025682500
   0.0099275300   -0.0058365300   -0.0033494500
   0.0096664200   -0.0059961000   -0.0037373500
   0.0099247200   -0.0057231100   -0.0035324800
   0.0096876800   -0.0058485800   -0.0022865800
   0.0096805700   -0.0053593500   -0.0037193200
   0.0099418700   -0.0055997900   -0.0032824200
   0.0100157000   -0.0056715600   -0.0034878700
   0.0097251200   -0.0055413300   -0.0022133300
   0.2376797800   -0.0069217200    0.1364730200
  -0.0276698400   -0.0058062000    0.0068517900
   0.0102277000    0.0160773000    0.0067895400
   0.0103300700   -0.0278429300    0.0070278600
   0.0091732300   -0.0057605900   -0.0005670900
   0.0092007900   -0.0057624800   -0.0003235600
   0.0091925800   -0.0057641500   -0.0003234700
   0.0091902700   -0.0057549700   -0.0003242100
  -0.0089075600    0.0052749000   -0.0001144600
  -0.0093249400    0.0053455400   -0.0002599400
  -0.0091863300    0.0056607300   -0.0001787600
  -0.0090216400    0.0054390300    0.0004433700
  -0.0091715000    0.0052059300   -0.0002297800
  -0.0087469400    0.0052504200   -0.0000452600
  -0.0090017300    0.0048710900   -0.0001255200
  -0.0088098600    0.0050980700    0.0005262500
