mesh: [     9,     9,     4 ]
nqpoint: 50     
natom:   4      
reciprocal_lattice:
- [   0.40532700,   0.23401531,   0.00000000 ] # a*
- [  -0.00000030,   0.46803114,   0.00000000 ] # b*
- [   0.00000000,   0.00000000,   0.19971589 ] # c*
phonon:
- q-position: [    0.0000000,    0.0000000,    0.1250000 ]
  weight: 2    
  band:
  - # 1
    frequency:   -33.1479285412
  - # 2
    frequency:   -33.1471962011
  - # 3
    frequency:   -29.8096197065
  - # 4
    frequency:   -29.8092796154
  - # 5
    frequency:     1.0565410657
  - # 6
    frequency:     1.0568816318
  - # 7
    frequency:     2.8563947327
  - # 8
    frequency:     3.2521515881
  - # 9
    frequency:     3.2532801992
  - # 10
    frequency:    12.9703517033
  - # 11
    frequency:    18.7380829215
  - # 12
    frequency:    19.2047776626

- q-position: [    0.1111111,    0.0000000,    0.1250000 ]
  weight: 8    
  band:
  - # 1
    frequency:   -31.7537702500
  - # 2
    frequency:   -31.7420275027
  - # 3
    frequency:   -28.6403250571
  - # 4
    frequency:   -28.5381964608
  - # 5
    frequency:     1.9776839638
  - # 6
    frequency:     5.0786733066
  - # 7
    frequency:     5.6705647812
  - # 8
    frequency:     5.9847252036
  - # 9
    frequency:     6.7755016598
  - # 10
    frequency:    13.3172285701
  - # 11
    frequency:    18.6011986394
  - # 12
    frequency:    19.0588820325

- q-position: [    0.2222222,    0.0000000,    0.1250000 ]
  weight: 8    
  band:
  - # 1
    frequency:   -27.8376546261
  - # 2
    frequency:   -27.7038402928
  - # 3
    frequency:   -25.3028585693
  - # 4
    frequency:   -24.9703527205
  - # 5
    frequency:     3.8346804812
  - # 6
    frequency:     8.1516344682
  - # 7
    frequency:     8.5889266052
  - # 8
    frequency:    10.9769314942
  - # 9
    frequency:    11.4472721342
  - # 10
    frequency:    14.1762528553
  - # 11
    frequency:    18.2293734492
  - # 12
    frequency:    18.6172275652

- q-position: [    0.3333333,    0.0000000,    0.1250000 ]
  weight: 8    
  band:
  - # 1
    frequency:   -22.3190837607
  - # 2
    frequency:   -21.5224288696
  - # 3
    frequency:   -20.2654815180
  - # 4
    frequency:   -19.9659742640
  - # 5
    frequency:     2.3039989160
  - # 6
    frequency:     8.4703770314
  - # 7
    frequency:    11.6888922045
  - # 8
    frequency:    14.4513450643
  - # 9
    frequency:    14.7177768250
  - # 10
    frequency:    15.1594001952
  - # 11
    frequency:    17.6383366253
  - # 12
    frequency:    17.9509388436

- q-position: [    0.4444444,    0.0000000,    0.1250000 ]
  weight: 8    
  band:
  - # 1
    frequency:   -17.4745434522
  - # 2
    frequency:   -15.6343403291
  - # 3
    frequency:   -14.3935486833
  - # 4
    frequency:   -13.6551243064
  - # 5
    frequency:    -7.6470684622
  - # 6
    frequency:     0.9433966620
  - # 7
    frequency:    13.9954426818
  - # 8
    frequency:    15.8192881154
  - # 9
    frequency:    16.0871734399
  - # 10
    frequency:    16.1443866254
  - # 11
    frequency:    16.7450161629
  - # 12
    frequency:    17.4213902412

- q-position: [    0.1111111,    0.1111111,    0.1250000 ]
  weight: 4    
  band:
  - # 1
    frequency:   -29.0687440305
  - # 2
    frequency:   -29.0414638056
  - # 3
    frequency:   -26.3043691411
  - # 4
    frequency:   -26.1953167806
  - # 5
    frequency:     4.6199298354
  - # 6
    frequency:     7.0578836445
  - # 7
    frequency:     7.5922079024
  - # 8
    frequency:     9.5372976883
  - # 9
    frequency:    10.5198311800
  - # 10
    frequency:    13.9377892318
  - # 11
    frequency:    18.3839461716
  - # 12
    frequency:    18.7366540999

- q-position: [    0.2222222,    0.1111111,    0.1250000 ]
  weight: 8    
  band:
  - # 1
    frequency:   -24.3291506401
  - # 2
    frequency:   -23.9229718989
  - # 3
    frequency:   -22.0583193497
  - # 4
    frequency:   -21.8581189768
  - # 5
    frequency:     5.1344389453
  - # 6
    frequency:     8.9414737221
  - # 7
    frequency:    10.5885804758
  - # 8
    frequency:    12.9273230758
  - # 9
    frequency:    13.9197417136
  - # 10
    frequency:    14.8550509925
  - # 11
    frequency:    17.9449942067
  - # 12
    frequency:    18.1593998603

- q-position: [    0.3333333,    0.1111111,    0.1250000 ]
  weight: 8    
  band:
  - # 1
    frequency:   -18.9129086764
  - # 2
    frequency:   -17.3300069606
  - # 3
    frequency:   -16.7614025309
  - # 4
    frequency:   -16.1487700108
  - # 5
    frequency:    -2.1577486334
  - # 6
    frequency:     7.8879100014
  - # 7
    frequency:    13.1663645749
  - # 8
    frequency:    14.9952403710
  - # 9
    frequency:    15.6932964585
  - # 10
    frequency:    15.8663049500
  - # 11
    frequency:    17.1808305236
  - # 12
    frequency:    17.5535530179

- q-position: [    0.4444444,    0.1111111,    0.1250000 ]
  weight: 8    
  band:
  - # 1
    frequency:   -16.0739152020
  - # 2
    frequency:   -14.7450647067
  - # 3
    frequency:   -10.8623251314
  - # 4
    frequency:    -9.0724460105
  - # 5
    frequency:    -8.3723376050
  - # 6
    frequency:    -6.1076915280
  - # 7
    frequency:    14.6486327774
  - # 8
    frequency:    15.5291220581
  - # 9
    frequency:    15.8793452746
  - # 10
    frequency:    16.4312531295
  - # 11
    frequency:    16.5593881966
  - # 12
    frequency:    17.2380730742

- q-position: [   -0.4444444,    0.1111111,    0.1250000 ]
  weight: 8    
  band:
  - # 1
    frequency:   -18.9207249947
  - # 2
    frequency:   -17.4643933119
  - # 3
    frequency:   -16.4743345852
  - # 4
    frequency:   -16.2787020878
  - # 5
    frequency:     2.0693606895
  - # 6
    frequency:     7.3403112300
  - # 7
    frequency:    13.2873968462
  - # 8
    frequency:    14.9349051659
  - # 9
    frequency:    15.6035261472
  - # 10
    frequency:    15.8948959529
  - # 11
    frequency:    17.1562043248
  - # 12
    frequency:    17.5641978531

- q-position: [   -0.3333333,    0.1111111,    0.1250000 ]
  weight: 8    
  band:
  - # 1
    frequency:   -24.3826705059
  - # 2
    frequency:   -23.8329610078
  - # 3
    frequency:   -22.2117250591
  - # 4
    frequency:   -21.7490004971
  - # 5
    frequency:     5.5447060535
  - # 6
    frequency:     8.7771449368
  - # 7
    frequency:    10.7392661358
  - # 8
    frequency:    12.8674307264
  - # 9
    frequency:    13.9292389721
  - # 10
    frequency:    14.7755504015
  - # 11
    frequency:    17.8264641286
  - # 12
    frequency:    18.2555167638

- q-position: [   -0.2222222,    0.1111111,    0.1250000 ]
  weight: 8    
  band:
  - # 1
    frequency:   -29.1484049857
  - # 2
    frequency:   -28.9907053143
  - # 3
    frequency:   -26.3470591000
  - # 4
    frequency:   -26.1304342499
  - # 5
    frequency:     4.7168247784
  - # 6
    frequency:     7.0781707111
  - # 7
    frequency:     7.7507616558
  - # 8
    frequency:     9.1734940010
  - # 9
    frequency:    10.7976321831
  - # 10
    frequency:    13.8767598558
  - # 11
    frequency:    18.2730331980
  - # 12
    frequency:    18.8308556563

- q-position: [   -0.1111111,    0.1111111,    0.1250000 ]
  weight: 4    
  band:
  - # 1
    frequency:   -31.7962803174
  - # 2
    frequency:   -31.7186868880
  - # 3
    frequency:   -28.5825248930
  - # 4
    frequency:   -28.5791462575
  - # 5
    frequency:     3.6115935950
  - # 6
    frequency:     4.7613112183
  - # 7
    frequency:     4.8427130408
  - # 8
    frequency:     5.1855792570
  - # 9
    frequency:     7.6531831379
  - # 10
    frequency:    13.2940016192
  - # 11
    frequency:    18.5548154679
  - # 12
    frequency:    19.0991954121

- q-position: [    0.2222222,    0.2222222,    0.1250000 ]
  weight: 4    
  band:
  - # 1
    frequency:   -19.5462765521
  - # 2
    frequency:   -18.1419548987
  - # 3
    frequency:   -17.6074380859
  - # 4
    frequency:   -16.7025971650
  - # 5
    frequency:     5.7644123979
  - # 6
    frequency:     9.2597840161
  - # 7
    frequency:    12.8099878400
  - # 8
    frequency:    14.3512438607
  - # 9
    frequency:    15.3959053753
  - # 10
    frequency:    15.6140259972
  - # 11
    frequency:    17.4831758331
  - # 12
    frequency:    17.5083604685

- q-position: [    0.3333333,    0.2222222,    0.1250000 ]
  weight: 8    
  band:
  - # 1
    frequency:   -15.3397474986
  - # 2
    frequency:   -14.5911071020
  - # 3
    frequency:   -10.0808932531
  - # 4
    frequency:    -9.8612753515
  - # 5
    frequency:     2.3400935732
  - # 6
    frequency:     7.0589994192
  - # 7
    frequency:    14.5363435268
  - # 8
    frequency:    14.6409568144
  - # 9
    frequency:    15.6439696560
  - # 10
    frequency:    16.1426462265
  - # 11
    frequency:    16.6507225676
  - # 12
    frequency:    17.0626823906

- q-position: [   -0.5555556,    0.2222222,    0.1250000 ]
  weight: 8    
  band:
  - # 1
    frequency:   -15.3057555528
  - # 2
    frequency:   -14.7803942917
  - # 3
    frequency:   -10.4543345811
  - # 4
    frequency:    -8.9438645304
  - # 5
    frequency:     4.0820146975
  - # 6
    frequency:     6.0504468680
  - # 7
    frequency:    14.3078504113
  - # 8
    frequency:    14.7798973805
  - # 9
    frequency:    15.7447594679
  - # 10
    frequency:    16.0071618702
  - # 11
    frequency:    16.6962018128
  - # 12
    frequency:    17.0370423143

- q-position: [   -0.4444444,    0.2222222,    0.1250000 ]
  weight: 8    
  band:
  - # 1
    frequency:   -19.4987547980
  - # 2
    frequency:   -18.4441466773
  - # 3
    frequency:   -17.3991158959
  - # 4
    frequency:   -16.6317082014
  - # 5
    frequency:     7.0698765413
  - # 6
    frequency:     8.5218984130
  - # 7
    frequency:    13.0074199712
  - # 8
    frequency:    14.0362363823
  - # 9
    frequency:    15.4614842069
  - # 10
    frequency:    15.5712787388
  - # 11
    frequency:    17.2963999056
  - # 12
    frequency:    17.6648828717

- q-position: [   -0.3333333,    0.2222222,    0.1250000 ]
  weight: 8    
  band:
  - # 1
    frequency:   -24.3624179372
  - # 2
    frequency:   -23.9254482713
  - # 3
    frequency:   -22.1704536728
  - # 4
    frequency:   -21.7292485759
  - # 5
    frequency:     6.5959231970
  - # 6
    frequency:     8.0228850164
  - # 7
    frequency:    10.7987402569
  - # 8
    frequency:    12.4639210079
  - # 9
    frequency:    14.3132238145
  - # 10
    frequency:    14.7387954312
  - # 11
    frequency:    17.7253153773
  - # 12
    frequency:    18.3482732432

- q-position: [   -0.2222222,    0.2222222,    0.1250000 ]
  weight: 4    
  band:
  - # 1
    frequency:   -27.9250591587
  - # 2
    frequency:   -27.6816326595
  - # 3
    frequency:   -25.1674108151
  - # 4
    frequency:   -25.0535925614
  - # 5
    frequency:     5.6639913023
  - # 6
    frequency:     6.9964829863
  - # 7
    frequency:     8.7257350513
  - # 8
    frequency:     9.9931064199
  - # 9
    frequency:    12.3647036118
  - # 10
    frequency:    14.1051911439
  - # 11
    frequency:    18.0804805274
  - # 12
    frequency:    18.7479563613

- q-position: [    0.3333333,    0.3333333,    0.1250000 ]
  weight: 4    
  band:
  - # 1
    frequency:   -13.9219598222
  - # 2
    frequency:   -13.2866316653
  - # 3
    frequency:    -3.5968110908
  - # 4
    frequency:     0.1765626561
  - # 5
    frequency:     5.1090636928
  - # 6
    frequency:     5.4146104556
  - # 7
    frequency:    13.9288026450
  - # 8
    frequency:    14.3952416959
  - # 9
    frequency:    15.5702666603
  - # 10
    frequency:    16.2318451404
  - # 11
    frequency:    16.4522712001
  - # 12
    frequency:    16.5801456373

- q-position: [   -0.5555556,    0.3333333,    0.1250000 ]
  weight: 8    
  band:
  - # 1
    frequency:   -15.5629775056
  - # 2
    frequency:   -14.4880556594
  - # 3
    frequency:   -10.2570098179
  - # 4
    frequency:    -9.2242307438
  - # 5
    frequency:     4.5137555361
  - # 6
    frequency:     5.7362717031
  - # 7
    frequency:    14.6257078604
  - # 8
    frequency:    14.7649566420
  - # 9
    frequency:    15.4519266941
  - # 10
    frequency:    16.0642223787
  - # 11
    frequency:    16.7277986133
  - # 12
    frequency:    16.9736101110

- q-position: [   -0.4444444,    0.3333333,    0.1250000 ]
  weight: 8    
  band:
  - # 1
    frequency:   -18.6899910737
  - # 2
    frequency:   -17.8738000627
  - # 3
    frequency:   -16.9363983110
  - # 4
    frequency:   -15.6368747969
  - # 5
    frequency:     3.9766575710
  - # 6
    frequency:     6.4696038163
  - # 7
    frequency:    13.3330795189
  - # 8
    frequency:    14.8688368936
  - # 9
    frequency:    15.5712458644
  - # 10
    frequency:    15.9919866252
  - # 11
    frequency:    17.0437857314
  - # 12
    frequency:    17.6686548600

- q-position: [   -0.3333333,    0.3333333,    0.1250000 ]
  weight: 4    
  band:
  - # 1
    frequency:   -22.0521863115
  - # 2
    frequency:   -21.9526951232
  - # 3
    frequency:   -20.4131474855
  - # 4
    frequency:   -19.6815217125
  - # 5
    frequency:     4.9816288423
  - # 6
    frequency:     7.2061570608
  - # 7
    frequency:    11.8375945554
  - # 8
    frequency:    13.8129715979
  - # 9
    frequency:    15.0621187346
  - # 10
    frequency:    15.3775666918
  - # 11
    frequency:    17.4213539162
  - # 12
    frequency:    18.1465895354

- q-position: [   -0.5555556,    0.4444444,    0.1250000 ]
  weight: 4    
  band:
  - # 1
    frequency:   -16.2166098035
  - # 2
    frequency:   -14.5748157875
  - # 3
    frequency:   -10.7622587794
  - # 4
    frequency:    -8.8116821534
  - # 5
    frequency:    -8.6422420743
  - # 6
    frequency:    -6.3076532191
  - # 7
    frequency:    14.6396723008
  - # 8
    frequency:    15.8899366438
  - # 9
    frequency:    15.9584276245
  - # 10
    frequency:    16.0277170770
  - # 11
    frequency:    16.5764577637
  - # 12
    frequency:    17.2008583268

- q-position: [   -0.4444444,    0.4444444,    0.1250000 ]
  weight: 4    
  band:
  - # 1
    frequency:   -17.3264531555
  - # 2
    frequency:   -15.8169010687
  - # 3
    frequency:   -14.9508453348
  - # 4
    frequency:   -13.0553516959
  - # 5
    frequency:    -6.8670307526
  - # 6
    frequency:    -3.1855757475
  - # 7
    frequency:    14.0501130583
  - # 8
    frequency:    15.7697842999
  - # 9
    frequency:    15.8656196098
  - # 10
    frequency:    16.3787099326
  - # 11
    frequency:    16.6940126683
  - # 12
    frequency:    17.4710932275

- q-position: [    0.0000000,    0.0000000,    0.3750000 ]
  weight: 2    
  band:
  - # 1
    frequency:   -32.9378926689
  - # 2
    frequency:   -32.9371112809
  - # 3
    frequency:   -31.5885239035
  - # 4
    frequency:   -31.5878944746
  - # 5
    frequency:     2.3426148264
  - # 6
    frequency:     2.3437300567
  - # 7
    frequency:     3.0647092627
  - # 8
    frequency:     3.0660096516
  - # 9
    frequency:     7.9272971625
  - # 10
    frequency:    11.3829030838
  - # 11
    frequency:    18.9807288107
  - # 12
    frequency:    19.1840480424

- q-position: [    0.1111111,    0.0000000,    0.3750000 ]
  weight: 8    
  band:
  - # 1
    frequency:   -31.5503744210
  - # 2
    frequency:   -31.5290832791
  - # 3
    frequency:   -30.2952599412
  - # 4
    frequency:   -30.2284495675
  - # 5
    frequency:     3.7135237727
  - # 6
    frequency:     5.0493871926
  - # 7
    frequency:     6.3774914238
  - # 8
    frequency:     6.6983644415
  - # 9
    frequency:     8.7872420812
  - # 10
    frequency:    11.8440378946
  - # 11
    frequency:    18.8255074658
  - # 12
    frequency:    19.0236015583

- q-position: [    0.2222222,    0.0000000,    0.3750000 ]
  weight: 8    
  band:
  - # 1
    frequency:   -27.5754249388
  - # 2
    frequency:   -27.5665759170
  - # 3
    frequency:   -26.6002917433
  - # 4
    frequency:   -26.4037992235
  - # 5
    frequency:     5.6256924222
  - # 6
    frequency:     7.2946652897
  - # 7
    frequency:    10.7482824038
  - # 8
    frequency:    11.2303622862
  - # 9
    frequency:    11.4207625196
  - # 10
    frequency:    12.9814611068
  - # 11
    frequency:    18.3940194152
  - # 12
    frequency:    18.5597769408

- q-position: [    0.3333333,    0.0000000,    0.3750000 ]
  weight: 8    
  band:
  - # 1
    frequency:   -21.9608154428
  - # 2
    frequency:   -21.5234190155
  - # 3
    frequency:   -21.0089353154
  - # 4
    frequency:   -20.9996436112
  - # 5
    frequency:     5.1123764478
  - # 6
    frequency:     7.3268049360
  - # 7
    frequency:    12.8794048562
  - # 8
    frequency:    14.2942578192
  - # 9
    frequency:    14.6018361680
  - # 10
    frequency:    14.7155024841
  - # 11
    frequency:    17.7414286893
  - # 12
    frequency:    17.8705635883

- q-position: [    0.4444444,    0.0000000,    0.3750000 ]
  weight: 8    
  band:
  - # 1
    frequency:   -16.9959181671
  - # 2
    frequency:   -16.2358086839
  - # 3
    frequency:   -14.2791757002
  - # 4
    frequency:   -13.9760923358
  - # 5
    frequency:    -6.5463677780
  - # 6
    frequency:    -4.2633989894
  - # 7
    frequency:    14.5492740019
  - # 8
    frequency:    15.3108325124
  - # 9
    frequency:    16.1176693373
  - # 10
    frequency:    16.1421866908
  - # 11
    frequency:    16.9212748831
  - # 12
    frequency:    17.2127863769

- q-position: [    0.1111111,    0.1111111,    0.3750000 ]
  weight: 4    
  band:
  - # 1
    frequency:   -28.8625287857
  - # 2
    frequency:   -28.8434787282
  - # 3
    frequency:   -27.7532061636
  - # 4
    frequency:   -27.6784133691
  - # 5
    frequency:     5.7293233864
  - # 6
    frequency:     6.7285260476
  - # 7
    frequency:     9.8570665862
  - # 8
    frequency:    10.1256151032
  - # 9
    frequency:    10.3207627058
  - # 10
    frequency:    12.6477393667
  - # 11
    frequency:    18.5466472581
  - # 12
    frequency:    18.7000472211

- q-position: [    0.2222222,    0.1111111,    0.3750000 ]
  weight: 8    
  band:
  - # 1
    frequency:   -24.0610617359
  - # 2
    frequency:   -23.7972138616
  - # 3
    frequency:   -23.1242193220
  - # 4
    frequency:   -22.9617869765
  - # 5
    frequency:     6.6790638301
  - # 6
    frequency:     8.1979650280
  - # 7
    frequency:    12.1157198899
  - # 8
    frequency:    13.2762286301
  - # 9
    frequency:    13.7080684694
  - # 10
    frequency:    13.8612328811
  - # 11
    frequency:    18.0254714393
  - # 12
    frequency:    18.1171203499

- q-position: [    0.3333333,    0.1111111,    0.3750000 ]
  weight: 8    
  band:
  - # 1
    frequency:   -18.5452436404
  - # 2
    frequency:   -17.8496559827
  - # 3
    frequency:   -16.9027536191
  - # 4
    frequency:   -16.6181942998
  - # 5
    frequency:     3.9655420821
  - # 6
    frequency:     6.6080931949
  - # 7
    frequency:    13.9673993550
  - # 8
    frequency:    14.9976223351
  - # 9
    frequency:    15.3104025645
  - # 10
    frequency:    15.6655081222
  - # 11
    frequency:    17.2802258856
  - # 12
    frequency:    17.4349133472

- q-position: [    0.4444444,    0.1111111,    0.3750000 ]
  weight: 8    
  band:
  - # 1
    frequency:   -15.6294602491
  - # 2
    frequency:   -15.0652283479
  - # 3
    frequency:    -9.9704924883
  - # 4
    frequency:    -9.0543371303
  - # 5
    frequency:    -8.5275711576
  - # 6
    frequency:    -7.7284115344
  - # 7
    frequency:    15.0072659758
  - # 8
    frequency:    15.5524354625
  - # 9
    frequency:    15.8259309511
  - # 10
    frequency:    16.1951156837
  - # 11
    frequency:    16.6876861655
  - # 12
    frequency:    17.0096566360

- q-position: [   -0.4444444,    0.1111111,    0.3750000 ]
  weight: 8    
  band:
  - # 1
    frequency:   -18.5407486057
  - # 2
    frequency:   -17.8786989599
  - # 3
    frequency:   -16.8076851358
  - # 4
    frequency:   -16.6829512368
  - # 5
    frequency:     4.3921284478
  - # 6
    frequency:     6.3154306617
  - # 7
    frequency:    14.0127284190
  - # 8
    frequency:    14.9624740829
  - # 9
    frequency:    15.2877299961
  - # 10
    frequency:    15.6839567799
  - # 11
    frequency:    17.2717251848
  - # 12
    frequency:    17.4410763655

- q-position: [   -0.3333333,    0.1111111,    0.3750000 ]
  weight: 8    
  band:
  - # 1
    frequency:   -24.0719165574
  - # 2
    frequency:   -23.7694450626
  - # 3
    frequency:   -23.1667855151
  - # 4
    frequency:   -22.9360406047
  - # 5
    frequency:     6.7956664559
  - # 6
    frequency:     8.0884198523
  - # 7
    frequency:    12.1715979848
  - # 8
    frequency:    13.2803301294
  - # 9
    frequency:    13.6644099127
  - # 10
    frequency:    13.8609850708
  - # 11
    frequency:    17.9806170060
  - # 12
    frequency:    18.1591812025

- q-position: [   -0.2222222,    0.1111111,    0.3750000 ]
  weight: 8    
  band:
  - # 1
    frequency:   -28.8927684147
  - # 2
    frequency:   -28.8241426969
  - # 3
    frequency:   -27.7620893063
  - # 4
    frequency:   -27.6591677527
  - # 5
    frequency:     5.7562903609
  - # 6
    frequency:     6.6888222224
  - # 7
    frequency:     9.7190646809
  - # 8
    frequency:    10.2224035321
  - # 9
    frequency:    10.4051170444
  - # 10
    frequency:    12.6200328823
  - # 11
    frequency:    18.5048459157
  - # 12
    frequency:    18.7398527949

- q-position: [   -0.1111111,    0.1111111,    0.3750000 ]
  weight: 4    
  band:
  - # 1
    frequency:   -31.5732117118
  - # 2
    frequency:   -31.5138546304
  - # 3
    frequency:   -30.2720692314
  - # 4
    frequency:   -30.2442589345
  - # 5
    frequency:     4.1900607650
  - # 6
    frequency:     4.6442023926
  - # 7
    frequency:     5.9572228389
  - # 8
    frequency:     7.0787154536
  - # 9
    frequency:     8.8103406084
  - # 10
    frequency:    11.8331201168
  - # 11
    frequency:    18.8080795624
  - # 12
    frequency:    19.0403134946

- q-position: [    0.2222222,    0.2222222,    0.3750000 ]
  weight: 4    
  band:
  - # 1
    frequency:   -19.2508076788
  - # 2
    frequency:   -18.5885898721
  - # 3
    frequency:   -17.7611749517
  - # 4
    frequency:   -17.3128727719
  - # 5
    frequency:     7.1562855348
  - # 6
    frequency:     8.5931790638
  - # 7
    frequency:    13.7077537079
  - # 8
    frequency:    14.6421843316
  - # 9
    frequency:    14.9073103683
  - # 10
    frequency:    15.1412515359
  - # 11
    frequency:    17.4769510872
  - # 12
    frequency:    17.4894792182

- q-position: [    0.3333333,    0.2222222,    0.3750000 ]
  weight: 8    
  band:
  - # 1
    frequency:   -15.0334968508
  - # 2
    frequency:   -14.7068363301
  - # 3
    frequency:   -10.0090923183
  - # 4
    frequency:    -9.9216808730
  - # 5
    frequency:     4.1829751667
  - # 6
    frequency:     6.0565854852
  - # 7
    frequency:    14.8820100384
  - # 8
    frequency:    15.0283818490
  - # 9
    frequency:    15.3800479115
  - # 10
    frequency:    15.6843962852
  - # 11
    frequency:    16.7469398298
  - # 12
    frequency:    16.9300890092

- q-position: [   -0.5555556,    0.2222222,    0.3750000 ]
  weight: 8    
  band:
  - # 1
    frequency:   -14.9991586593
  - # 2
    frequency:   -14.7695311981
  - # 3
    frequency:   -10.2223525194
  - # 4
    frequency:    -9.6008647836
  - # 5
    frequency:     4.7519801654
  - # 6
    frequency:     5.5507378282
  - # 7
    frequency:    14.7789583365
  - # 8
    frequency:    15.1402258862
  - # 9
    frequency:    15.3700439870
  - # 10
    frequency:    15.6740861287
  - # 11
    frequency:    16.7566175845
  - # 12
    frequency:    16.9190491079

- q-position: [   -0.4444444,    0.2222222,    0.3750000 ]
  weight: 8    
  band:
  - # 1
    frequency:   -19.2086240910
  - # 2
    frequency:   -18.6929596147
  - # 3
    frequency:   -17.6818683026
  - # 4
    frequency:   -17.3220420964
  - # 5
    frequency:     7.6038575276
  - # 6
    frequency:     8.1995670924
  - # 7
    frequency:    13.7761468961
  - # 8
    frequency:    14.5971127529
  - # 9
    frequency:    14.7857442459
  - # 10
    frequency:    15.2376669025
  - # 11
    frequency:    17.4051876551
  - # 12
    frequency:    17.5566562100

- q-position: [   -0.3333333,    0.2222222,    0.3750000 ]
  weight: 8    
  band:
  - # 1
    frequency:   -24.0703985854
  - # 2
    frequency:   -23.7999903484
  - # 3
    frequency:   -23.1450468793
  - # 4
    frequency:   -22.9304573798
  - # 5
    frequency:     7.1718858504
  - # 6
    frequency:     7.7486548997
  - # 7
    frequency:    12.1951163015
  - # 8
    frequency:    13.1111313778
  - # 9
    frequency:    13.7610579260
  - # 10
    frequency:    13.9145165649
  - # 11
    frequency:    17.9403045110
  - # 12
    frequency:    18.1982690607

- q-position: [   -0.2222222,    0.2222222,    0.3750000 ]
  weight: 4    
  band:
  - # 1
    frequency:   -27.6674013207
  - # 2
    frequency:   -27.5000147071
  - # 3
    frequency:   -26.5039421956
  - # 4
    frequency:   -26.4763033787
  - # 5
    frequency:     6.2266031769
  - # 6
    frequency:     6.7574397825
  - # 7
    frequency:    10.8079922337
  - # 8
    frequency:    10.8291310439
  - # 9
    frequency:    11.8080042335
  - # 10
    frequency:    12.9487833093
  - # 11
    frequency:    18.3366795057
  - # 12
    frequency:    18.6148573770

- q-position: [    0.3333333,    0.3333333,    0.3750000 ]
  weight: 4    
  band:
  - # 1
    frequency:   -13.4999910712
  - # 2
    frequency:   -13.2280236167
  - # 3
    frequency:    -2.5026129308
  - # 4
    frequency:    -1.0961702572
  - # 5
    frequency:     5.0646394504
  - # 6
    frequency:     5.2231559748
  - # 7
    frequency:    14.0735664523
  - # 8
    frequency:    14.2697009443
  - # 9
    frequency:    15.7029319078
  - # 10
    frequency:    16.0704206508
  - # 11
    frequency:    16.3849882289
  - # 12
    frequency:    16.5284893104

- q-position: [   -0.5555556,    0.3333333,    0.3750000 ]
  weight: 8    
  band:
  - # 1
    frequency:   -15.1153696955
  - # 2
    frequency:   -14.6464542113
  - # 3
    frequency:   -10.1366162611
  - # 4
    frequency:    -9.7037109317
  - # 5
    frequency:     4.9157937573
  - # 6
    frequency:     5.4179423208
  - # 7
    frequency:    14.8755159197
  - # 8
    frequency:    15.1097517181
  - # 9
    frequency:    15.2966483057
  - # 10
    frequency:    15.6860061188
  - # 11
    frequency:    16.7817200748
  - # 12
    frequency:    16.8911651574

- q-position: [   -0.4444444,    0.3333333,    0.3750000 ]
  weight: 8    
  band:
  - # 1
    frequency:   -18.4363171344
  - # 2
    frequency:   -18.0083993682
  - # 3
    frequency:   -17.0416321856
  - # 4
    frequency:   -16.4243108529
  - # 5
    frequency:     4.9139405528
  - # 6
    frequency:     5.9077036635
  - # 7
    frequency:    14.0296677351
  - # 8
    frequency:    14.9445239310
  - # 9
    frequency:    15.2585726999
  - # 10
    frequency:    15.7225982763
  - # 11
    frequency:    17.2253733198
  - # 12
    frequency:    17.4857811744

- q-position: [   -0.3333333,    0.3333333,    0.3750000 ]
  weight: 4    
  band:
  - # 1
    frequency:   -21.8032878421
  - # 2
    frequency:   -21.7436002977
  - # 3
    frequency:   -21.1706681432
  - # 4
    frequency:   -20.7789571010
  - # 5
    frequency:     5.8420343861
  - # 6
    frequency:     6.7317201876
  - # 7
    frequency:    12.9384736898
  - # 8
    frequency:    14.2544372171
  - # 9
    frequency:    14.3323660863
  - # 10
    frequency:    14.9860942234
  - # 11
    frequency:    17.6544081700
  - # 12
    frequency:    17.9541988474

- q-position: [   -0.5555556,    0.4444444,    0.3750000 ]
  weight: 4    
  band:
  - # 1
    frequency:   -15.6924623298
  - # 2
    frequency:   -14.9983452894
  - # 3
    frequency:    -9.9337324401
  - # 4
    frequency:    -9.0055102473
  - # 5
    frequency:    -8.5765296290
  - # 6
    frequency:    -7.7813151264
  - # 7
    frequency:    14.9986278382
  - # 8
    frequency:    15.5490338747
  - # 9
    frequency:    16.0040272313
  - # 10
    frequency:    16.0306087132
  - # 11
    frequency:    16.7016095791
  - # 12
    frequency:    16.9940102234

- q-position: [   -0.4444444,    0.4444444,    0.3750000 ]
  weight: 4    
  band:
  - # 1
    frequency:   -16.9298568368
  - # 2
    frequency:   -16.3088839130
  - # 3
    frequency:   -14.5176881402
  - # 4
    frequency:   -13.7289792651
  - # 5
    frequency:    -6.1762815549
  - # 6
    frequency:    -4.7903276797
  - # 7
    frequency:    14.5702490497
  - # 8
    frequency:    15.2937298871
  - # 9
    frequency:    16.0243796854
  - # 10
    frequency:    16.2381405866
  - # 11
    frequency:    16.8977843295
  - # 12
    frequency:    17.2342209155

