# Thermal properties / unit cell (natom)

unit:
  temperature:   K
  free_energy:   kJ/mol
  entropy:       J/K/mol
  heat_capacity: J/K/mol

natom:     4
num_modes: 3888
num_integrated_modes: 3876

zero_point_energy:      66.5605541
high_T_entropy:        228.6522185

thermal_properties:
- temperature:         0.0000000
  free_energy:        66.5605541
  entropy:             0.0000000
  heat_capacity:       0.0000000
  energy:             66.5605541

- temperature:        10.0000000
  free_energy:        66.5605466
  entropy:             0.0044743
  heat_capacity:       0.0187418
  energy:             66.5605913

- temperature:        20.0000000
  free_energy:        66.5603572
  entropy:             0.0370293
  heat_capacity:       0.0826713
  energy:             66.5610978

- temperature:        30.0000000
  free_energy:        66.5597585
  entropy:             0.0852663
  heat_capacity:       0.1711138
  energy:             66.5623165

- temperature:        40.0000000
  free_energy:        66.5585755
  entropy:             0.1565704
  heat_capacity:       0.3533112
  energy:             66.5648383

- temperature:        50.0000000
  free_energy:        66.5564978
  entropy:             0.2664502
  heat_capacity:       0.6658437
  energy:             66.5698203

- temperature:        60.0000000
  free_energy:        66.5530819
  entropy:             0.4255723
  heat_capacity:       1.1166345
  energy:             66.5786162

- temperature:        70.0000000
  free_energy:        66.5478007
  entropy:             0.6403412
  heat_capacity:       1.7088641
  energy:             66.5926245

- temperature:        80.0000000
  free_energy:        66.5400754
  entropy:             0.9149646
  heat_capacity:       2.4446707
  energy:             66.6132725

- temperature:        90.0000000
  free_energy:        66.5292925
  entropy:             1.2522100
  heat_capacity:       3.3223302
  energy:             66.6419914

- temperature:       100.0000000
  free_energy:        66.5148175
  entropy:             1.6535241
  heat_capacity:       4.3350592
  energy:             66.6801699

- temperature:       110.0000000
  free_energy:        66.4960078
  entropy:             2.1190710
  heat_capacity:       5.4715776
  energy:             66.7291056

- temperature:       120.0000000
  free_energy:        66.4722252
  entropy:             2.6478388
  heat_capacity:       6.7173605
  energy:             66.7899659

- temperature:       130.0000000
  free_energy:        66.4428469
  entropy:             3.2378118
  heat_capacity:       8.0560178
  energy:             66.8637624

- temperature:       140.0000000
  free_energy:        66.4072743
  entropy:             3.8861778
  heat_capacity:       9.4705737
  energy:             66.9513391

- temperature:       150.0000000
  free_energy:        66.3649399
  entropy:             4.5895454
  heat_capacity:      10.9445327
  energy:             67.0533718

- temperature:       160.0000000
  free_energy:        66.3153125
  entropy:             5.3441521
  heat_capacity:      12.4626697
  energy:             67.1703769

- temperature:       170.0000000
  free_energy:        66.2578993
  entropy:             6.1460474
  heat_capacity:      14.0115288
  energy:             67.3027273

- temperature:       180.0000000
  free_energy:        66.1922472
  entropy:             6.9912455
  heat_capacity:      15.5796553
  energy:             67.4506714

- temperature:       190.0000000
  free_energy:        66.1179431
  entropy:             7.8758419
  heat_capacity:      17.1576144
  energy:             67.6143530

- temperature:       200.0000000
  free_energy:        66.0346116
  entropy:             8.7960979
  heat_capacity:      18.7378572
  energy:             67.7938312

- temperature:       210.0000000
  free_energy:        65.9419140
  entropy:             9.7484952
  heat_capacity:      20.3144966
  energy:             67.9890980

- temperature:       220.0000000
  free_energy:        65.8395454
  entropy:            10.7297660
  heat_capacity:      21.8830410
  energy:             68.2000940

- temperature:       230.0000000
  free_energy:        65.7272325
  entropy:            11.7369045
  heat_capacity:      23.4401233
  energy:             68.4267205

- temperature:       240.0000000
  free_energy:        65.6047303
  entropy:            12.7671647
  heat_capacity:      24.9832485
  energy:             68.6688498

- temperature:       250.0000000
  free_energy:        65.4718205
  entropy:            13.8180492
  heat_capacity:      26.5105751
  energy:             68.9263328

- temperature:       260.0000000
  free_energy:        65.3283082
  entropy:            14.8872920
  heat_capacity:      28.0207336
  energy:             69.1990041

- temperature:       270.0000000
  free_energy:        65.1740203
  entropy:            15.9728386
  heat_capacity:      29.5126832
  energy:             69.4866867

- temperature:       280.0000000
  free_energy:        65.0088033
  entropy:            17.0728251
  heat_capacity:      30.9856038
  energy:             69.7891943

- temperature:       290.0000000
  free_energy:        64.8325213
  entropy:            18.1855578
  heat_capacity:      32.4388179
  energy:             70.1063331

- temperature:       300.0000000
  free_energy:        64.6450548
  entropy:            19.3094941
  heat_capacity:      33.8717367
  energy:             70.4379030

- temperature:       310.0000000
  free_energy:        64.4462988
  entropy:            20.4432245
  heat_capacity:      35.2838261
  energy:             70.7836984

- temperature:       320.0000000
  free_energy:        64.2361620
  entropy:            21.5854577
  heat_capacity:      36.6745862
  energy:             71.1435084

- temperature:       330.0000000
  free_energy:        64.0145653
  entropy:            22.7350065
  heat_capacity:      38.0435422
  energy:             71.5171174

- temperature:       340.0000000
  free_energy:        63.7814411
  entropy:            23.8907764
  heat_capacity:      39.3902411
  energy:             71.9043051

- temperature:       350.0000000
  free_energy:        63.5367324
  entropy:            25.0517550
  heat_capacity:      40.7142542
  energy:             72.3048466

- temperature:       360.0000000
  free_energy:        63.2803918
  entropy:            26.2170040
  heat_capacity:      42.0151808
  energy:             72.7185132

- temperature:       370.0000000
  free_energy:        63.0123810
  entropy:            27.3856516
  heat_capacity:      43.2926538
  energy:             73.1450721

- temperature:       380.0000000
  free_energy:        62.7326701
  entropy:            28.5568865
  heat_capacity:      44.5463453
  energy:             73.5842870

- temperature:       390.0000000
  free_energy:        62.4412372
  entropy:            29.7299528
  heat_capacity:      45.7759712
  energy:             74.0359187

- temperature:       400.0000000
  free_energy:        62.1380673
  entropy:            30.9041452
  heat_capacity:      46.9812954
  energy:             74.4997254

- temperature:       410.0000000
  free_energy:        61.8231527
  entropy:            32.0788057
  heat_capacity:      48.1621327
  energy:             74.9754630

- temperature:       420.0000000
  free_energy:        61.4964917
  entropy:            33.2533197
  heat_capacity:      49.3183509
  energy:             75.4628860

- temperature:       430.0000000
  free_energy:        61.1580887
  entropy:            34.4271140
  heat_capacity:      50.4498710
  energy:             75.9617477

- temperature:       440.0000000
  free_energy:        60.8079536
  entropy:            35.5996532
  heat_capacity:      51.5566674
  energy:             76.4718010

- temperature:       450.0000000
  free_energy:        60.4461015
  entropy:            36.7704383
  heat_capacity:      52.6387667
  energy:             76.9927987

- temperature:       460.0000000
  free_energy:        60.0725522
  entropy:            37.9390044
  heat_capacity:      53.6962455
  energy:             77.5244943

- temperature:       470.0000000
  free_energy:        59.6873302
  entropy:            39.1049186
  heat_capacity:      54.7292286
  energy:             78.0666420

- temperature:       480.0000000
  free_energy:        59.2904641
  entropy:            40.2677785
  heat_capacity:      55.7378856
  energy:             78.6189977

- temperature:       490.0000000
  free_energy:        58.8819861
  entropy:            41.4272106
  heat_capacity:      56.7224279
  energy:             79.1813193

- temperature:       500.0000000
  free_energy:        58.4619324
  entropy:            42.5828686
  heat_capacity:      57.6831055
  energy:             79.7533667

- temperature:       510.0000000
  free_energy:        58.0303424
  entropy:            43.7344322
  heat_capacity:      58.6202032
  energy:             80.3349028

- temperature:       520.0000000
  free_energy:        57.5872584
  entropy:            44.8816055
  heat_capacity:      59.5340372
  energy:             80.9256933

- temperature:       530.0000000
  free_energy:        57.1327258
  entropy:            46.0241157
  heat_capacity:      60.4249516
  energy:             81.5255072

- temperature:       540.0000000
  free_energy:        56.6667925
  entropy:            47.1617123
  heat_capacity:      61.2933151
  energy:             82.1341171

- temperature:       550.0000000
  free_energy:        56.1895087
  entropy:            48.2941652
  heat_capacity:      62.1395172
  energy:             82.7512996

- temperature:       560.0000000
  free_energy:        55.7009270
  entropy:            49.4212641
  heat_capacity:      62.9639660
  energy:             83.3768350

- temperature:       570.0000000
  free_energy:        55.2011019
  entropy:            50.5428173
  heat_capacity:      63.7670841
  energy:             84.0105078

- temperature:       580.0000000
  free_energy:        54.6900898
  entropy:            51.6586504
  heat_capacity:      64.5493068
  energy:             84.6521070

- temperature:       590.0000000
  free_energy:        54.1679485
  entropy:            52.7686055
  heat_capacity:      65.3110788
  energy:             85.3014258

- temperature:       600.0000000
  free_energy:        53.6347377
  entropy:            53.8725403
  heat_capacity:      66.0528525
  energy:             85.9582619

- temperature:       610.0000000
  free_energy:        53.0905182
  entropy:            54.9703270
  heat_capacity:      66.7750851
  energy:             86.6224177

- temperature:       620.0000000
  free_energy:        52.5353521
  entropy:            56.0618515
  heat_capacity:      67.4782373
  energy:             87.2937000

- temperature:       630.0000000
  free_energy:        51.9693024
  entropy:            57.1470127
  heat_capacity:      68.1627710
  energy:             87.9719204

- temperature:       640.0000000
  free_energy:        51.3924333
  entropy:            58.2257212
  heat_capacity:      68.8291480
  energy:             88.6568949

- temperature:       650.0000000
  free_energy:        50.8048097
  entropy:            59.2978994
  heat_capacity:      69.4778284
  energy:             89.3484443

- temperature:       660.0000000
  free_energy:        50.2064973
  entropy:            60.3634798
  heat_capacity:      70.1092695
  energy:             90.0463940

- temperature:       670.0000000
  free_energy:        49.5975623
  entropy:            61.4224051
  heat_capacity:      70.7239244
  energy:             90.7505738

- temperature:       680.0000000
  free_energy:        48.9780716
  entropy:            62.4746272
  heat_capacity:      71.3222414
  energy:             91.4608180

- temperature:       690.0000000
  free_energy:        48.3480923
  entropy:            63.5201063
  heat_capacity:      71.9046627
  energy:             92.1769656

- temperature:       700.0000000
  free_energy:        47.7076920
  entropy:            64.5588111
  heat_capacity:      72.4716242
  energy:             92.8988598

- temperature:       710.0000000
  free_energy:        47.0569387
  entropy:            65.5907173
  heat_capacity:      73.0235542
  energy:             93.6263480

- temperature:       720.0000000
  free_energy:        46.3959004
  entropy:            66.6158080
  heat_capacity:      73.5608737
  energy:             94.3592821

- temperature:       730.0000000
  free_energy:        45.7246453
  entropy:            67.6340724
  heat_capacity:      74.0839952
  energy:             95.0975181

- temperature:       740.0000000
  free_energy:        45.0432417
  entropy:            68.6455059
  heat_capacity:      74.5933229
  energy:             95.8409161

- temperature:       750.0000000
  free_energy:        44.3517579
  entropy:            69.6501093
  heat_capacity:      75.0892518
  energy:             96.5893399

- temperature:       760.0000000
  free_energy:        43.6502623
  entropy:            70.6478888
  heat_capacity:      75.5721684
  energy:             97.3426577

- temperature:       770.0000000
  free_energy:        42.9388229
  entropy:            71.6388550
  heat_capacity:      76.0424498
  energy:             98.1007412

- temperature:       780.0000000
  free_energy:        42.2175078
  entropy:            72.6230231
  heat_capacity:      76.5004636
  energy:             98.8634658

- temperature:       790.0000000
  free_energy:        41.4863850
  entropy:            73.6004123
  heat_capacity:      76.9465685
  energy:             99.6307108

- temperature:       800.0000000
  free_energy:        40.7455221
  entropy:            74.5710457
  heat_capacity:      77.3811134
  energy:            100.4023587

- temperature:       810.0000000
  free_energy:        39.9949865
  entropy:            75.5349495
  heat_capacity:      77.8044383
  energy:            101.1782956

- temperature:       820.0000000
  free_energy:        39.2348454
  entropy:            76.4921533
  heat_capacity:      78.2168736
  energy:            101.9584111

- temperature:       830.0000000
  free_energy:        38.4651657
  entropy:            77.4426894
  heat_capacity:      78.6187406
  energy:            102.7425979

- temperature:       840.0000000
  free_energy:        37.6860138
  entropy:            78.3865929
  heat_capacity:      79.0103516
  energy:            103.5307518

- temperature:       850.0000000
  free_energy:        36.8974558
  entropy:            79.3239011
  heat_capacity:      79.3920097
  energy:            104.3227717

- temperature:       860.0000000
  free_energy:        36.0995576
  entropy:            80.2546537
  heat_capacity:      79.7640093
  energy:            105.1185598

- temperature:       870.0000000
  free_energy:        35.2923845
  entropy:            81.1788922
  heat_capacity:      80.1266361
  energy:            105.9180207

- temperature:       880.0000000
  free_energy:        34.4760013
  entropy:            82.0966600
  heat_capacity:      80.4801673
  energy:            106.7210622

- temperature:       890.0000000
  free_energy:        33.6504727
  entropy:            83.0080022
  heat_capacity:      80.8248716
  energy:            107.5275946

- temperature:       900.0000000
  free_energy:        32.8158625
  entropy:            83.9129650
  heat_capacity:      81.1610097
  energy:            108.3375310

- temperature:       910.0000000
  free_energy:        31.9722345
  entropy:            84.8115963
  heat_capacity:      81.4888343
  energy:            109.1507871

- temperature:       920.0000000
  free_energy:        31.1196516
  entropy:            85.7039449
  heat_capacity:      81.8085901
  energy:            109.9672808

- temperature:       930.0000000
  free_energy:        30.2581764
  entropy:            86.5900607
  heat_capacity:      82.1205144
  energy:            110.7869328

- temperature:       940.0000000
  free_energy:        29.3878710
  entropy:            87.4699945
  heat_capacity:      82.4248370
  energy:            111.6096658

- temperature:       950.0000000
  free_energy:        28.5087969
  entropy:            88.3437979
  heat_capacity:      82.7217806
  energy:            112.4354049

- temperature:       960.0000000
  free_energy:        27.6210153
  entropy:            89.2115232
  heat_capacity:      83.0115608
  energy:            113.2640775

- temperature:       970.0000000
  free_energy:        26.7245865
  entropy:            90.0732231
  heat_capacity:      83.2943864
  energy:            114.0956130

- temperature:       980.0000000
  free_energy:        25.8195707
  entropy:            90.9289511
  heat_capacity:      83.5704596
  energy:            114.9299427

- temperature:       990.0000000
  free_energy:        24.9060272
  entropy:            91.7787607
  heat_capacity:      83.8399761
  energy:            115.7670003

- temperature:      1000.0000000
  free_energy:        23.9840150
  entropy:            92.6227060
  heat_capacity:      84.1031255
  energy:            116.6067210
