# Thermal properties / unit cell (natom)

unit:
  temperature:   K
  free_energy:   kJ/mol
  entropy:       J/K/mol
  heat_capacity: J/K/mol

natom:     4
num_modes: 3888
num_integrated_modes: 2500

zero_point_energy:      19.8244049
high_T_entropy:        194.8760212

thermal_properties:
- temperature:         0.0000000
  free_energy:        19.8244049
  entropy:             0.0000000
  heat_capacity:       0.0000000
  energy:             19.8244049

- temperature:        10.0000000
  free_energy:        19.8238014
  entropy:             0.1393456
  heat_capacity:       0.1632883
  energy:             19.8251949

- temperature:        20.0000000
  free_energy:        19.8214926
  entropy:             0.3335700
  heat_capacity:       0.4599240
  energy:             19.8281640

- temperature:        30.0000000
  free_energy:        19.8168600
  entropy:             0.6091398
  heat_capacity:       0.9819079
  energy:             19.8351342

- temperature:        40.0000000
  free_energy:        19.8089238
  entropy:             1.0001402
  heat_capacity:       1.8362809
  energy:             19.8489294

- temperature:        50.0000000
  free_energy:        19.7963876
  entropy:             1.5310435
  heat_capacity:       3.0117140
  energy:             19.8729398

- temperature:        60.0000000
  free_energy:        19.7778375
  entropy:             2.2011086
  heat_capacity:       4.4103189
  energy:             19.9099040

- temperature:        70.0000000
  free_energy:        19.7519516
  entropy:             2.9953129
  heat_capacity:       5.9538624
  energy:             19.9616235

- temperature:        80.0000000
  free_energy:        19.7175725
  entropy:             3.8972997
  heat_capacity:       7.6108583
  energy:             20.0293565

- temperature:        90.0000000
  free_energy:        19.6736883
  entropy:             4.8946195
  heat_capacity:       9.3769304
  energy:             20.1142040

- temperature:       100.0000000
  free_energy:        19.6193912
  entropy:             5.9786612
  heat_capacity:      11.2513678
  energy:             20.2172574

- temperature:       110.0000000
  free_energy:        19.5538479
  entropy:             7.1428666
  heat_capacity:      13.2249872
  energy:             20.3395632

- temperature:       120.0000000
  free_energy:        19.4762870
  entropy:             8.3811359
  heat_capacity:      15.2782155
  energy:             20.4820233

- temperature:       130.0000000
  free_energy:        19.3859999
  entropy:             9.6869548
  heat_capacity:      17.3843144
  energy:             20.6453041

- temperature:       140.0000000
  free_energy:        19.2823466
  entropy:            11.0531492
  heat_capacity:      19.5138187
  energy:             20.8297875

- temperature:       150.0000000
  free_energy:        19.1647614
  entropy:            12.4720114
  heat_capacity:      21.6382312
  energy:             21.0355631

- temperature:       160.0000000
  free_energy:        19.0327573
  entropy:            13.9355840
  heat_capacity:      23.7323968
  energy:             21.2624508

- temperature:       170.0000000
  free_energy:        18.8859270
  entropy:            15.4359633
  heat_capacity:      25.7756570
  energy:             21.5100408

- temperature:       180.0000000
  free_energy:        18.7239407
  entropy:            16.9655556
  heat_capacity:      27.7521181
  energy:             21.7777407

- temperature:       190.0000000
  free_energy:        18.5465423
  entropy:            18.5172618
  heat_capacity:      29.6503699
  energy:             22.0648220

- temperature:       200.0000000
  free_energy:        18.3535435
  entropy:            20.0845931
  heat_capacity:      31.4629223
  energy:             22.3704621

- temperature:       210.0000000
  free_energy:        18.1448178
  entropy:            21.6617265
  heat_capacity:      33.1855371
  energy:             22.6937804

- temperature:       220.0000000
  free_energy:        17.9202935
  entropy:            23.2435174
  heat_capacity:      34.8165648
  energy:             23.0338673

- temperature:       230.0000000
  free_energy:        17.6799470
  entropy:            24.8254800
  heat_capacity:      36.3563426
  energy:             23.3898073

- temperature:       240.0000000
  free_energy:        17.4237963
  entropy:            26.4037486
  heat_capacity:      37.8066794
  energy:             23.7606959

- temperature:       250.0000000
  free_energy:        17.1518953
  entropy:            27.9750276
  heat_capacity:      39.1704305
  energy:             24.1456522

- temperature:       260.0000000
  free_energy:        16.8643283
  entropy:            29.5365362
  heat_capacity:      40.4511591
  energy:             24.5438278

- temperature:       270.0000000
  free_energy:        16.5612050
  entropy:            31.0859520
  heat_capacity:      41.6528711
  energy:             24.9544120

- temperature:       280.0000000
  free_energy:        16.2426561
  entropy:            32.6213567
  heat_capacity:      42.7798137
  energy:             25.3766359

- temperature:       290.0000000
  free_energy:        15.9088298
  entropy:            34.1411852
  heat_capacity:      43.8363251
  energy:             25.8097735

- temperature:       300.0000000
  free_energy:        15.5598885
  entropy:            35.6441786
  heat_capacity:      44.8267245
  energy:             26.2531421

- temperature:       310.0000000
  free_energy:        15.1960057
  entropy:            37.1293421
  heat_capacity:      45.7552347
  energy:             26.7061017

- temperature:       320.0000000
  free_energy:        14.8173637
  entropy:            38.5959075
  heat_capacity:      46.6259285
  energy:             27.1680541

- temperature:       330.0000000
  free_energy:        14.4241515
  entropy:            40.0433003
  heat_capacity:      47.4426945
  energy:             27.6384406

- temperature:       340.0000000
  free_energy:        14.0165630
  entropy:            41.4711104
  heat_capacity:      48.2092166
  energy:             28.1167405

- temperature:       350.0000000
  free_energy:        13.5947954
  entropy:            42.8790673
  heat_capacity:      48.9289637
  energy:             28.6024690

- temperature:       360.0000000
  free_energy:        13.1590483
  entropy:            44.2670178
  heat_capacity:      49.6051867
  energy:             29.0951747

- temperature:       370.0000000
  free_energy:        12.7095220
  entropy:            45.6349077
  heat_capacity:      50.2409215
  energy:             29.5944378

- temperature:       380.0000000
  free_energy:        12.2464169
  entropy:            46.9827650
  heat_capacity:      50.8389952
  energy:             30.0998676

- temperature:       390.0000000
  free_energy:        11.7699331
  entropy:            48.3106867
  heat_capacity:      51.4020341
  energy:             30.6111009

- temperature:       400.0000000
  free_energy:        11.2802691
  entropy:            49.6188263
  heat_capacity:      51.9324747
  energy:             31.1277997

- temperature:       410.0000000
  free_energy:        10.7776219
  entropy:            50.9073840
  heat_capacity:      52.4325741
  energy:             31.6496493

- temperature:       420.0000000
  free_energy:        10.2621859
  entropy:            52.1765977
  heat_capacity:      52.9044215
  energy:             32.1763570

- temperature:       430.0000000
  free_energy:         9.7341535
  entropy:            53.4267361
  heat_capacity:      53.3499497
  energy:             32.7076500

- temperature:       440.0000000
  free_energy:         9.1937138
  entropy:            54.6580918
  heat_capacity:      53.7709456
  energy:             33.2432742

- temperature:       450.0000000
  free_energy:         8.6410532
  entropy:            55.8709766
  heat_capacity:      54.1690617
  energy:             33.7829927

- temperature:       460.0000000
  free_energy:         8.0763548
  entropy:            57.0657163
  heat_capacity:      54.5458254
  energy:             34.3265843

- temperature:       470.0000000
  free_energy:         7.4997983
  entropy:            58.2426478
  heat_capacity:      54.9026492
  energy:             34.8738427

- temperature:       480.0000000
  free_energy:         6.9115600
  entropy:            59.4021149
  heat_capacity:      55.2408394
  energy:             35.4245752

- temperature:       490.0000000
  free_energy:         6.3118130
  entropy:            60.5444662
  heat_capacity:      55.5616044
  energy:             35.9786015

- temperature:       500.0000000
  free_energy:         5.7007266
  entropy:            61.6700526
  heat_capacity:      55.8660627
  energy:             36.5357529

- temperature:       510.0000000
  free_energy:         5.0784667
  entropy:            62.7792257
  heat_capacity:      56.1552499
  energy:             37.0958718

- temperature:       520.0000000
  free_energy:         4.4451956
  entropy:            63.8723358
  heat_capacity:      56.4301255
  energy:             37.6588102

- temperature:       530.0000000
  free_energy:         3.8010724
  entropy:            64.9497306
  heat_capacity:      56.6915787
  energy:             38.2244296

- temperature:       540.0000000
  free_energy:         3.1462523
  entropy:            66.0117547
  heat_capacity:      56.9404344
  energy:             38.7925998

- temperature:       550.0000000
  free_energy:         2.4808874
  entropy:            67.0587481
  heat_capacity:      57.1774579
  energy:             39.3631988

- temperature:       560.0000000
  free_energy:         1.8051263
  entropy:            68.0910458
  heat_capacity:      57.4033602
  energy:             39.9361119

- temperature:       570.0000000
  free_energy:         1.1191143
  entropy:            69.1089769
  heat_capacity:      57.6188018
  energy:             40.5112312

- temperature:       580.0000000
  free_energy:         0.4229936
  entropy:            70.1128648
  heat_capacity:      57.8243970
  energy:             41.0884551

- temperature:       590.0000000
  free_energy:        -0.2830972
  entropy:            71.1030261
  heat_capacity:      58.0207173
  energy:             41.6676882

- temperature:       600.0000000
  free_energy:        -0.9990222
  entropy:            72.0797710
  heat_capacity:      58.2082951
  energy:             42.2488403

- temperature:       610.0000000
  free_energy:        -1.7246489
  entropy:            73.0434025
  heat_capacity:      58.3876264
  energy:             42.8318266

- temperature:       620.0000000
  free_energy:        -2.4598476
  entropy:            73.9942169
  heat_capacity:      58.5591736
  energy:             43.4165669

- temperature:       630.0000000
  free_energy:        -3.2044915
  entropy:            74.9325033
  heat_capacity:      58.7233683
  energy:             44.0029856

- temperature:       640.0000000
  free_energy:        -3.9584568
  entropy:            75.8585437
  heat_capacity:      58.8806137
  energy:             44.5910111

- temperature:       650.0000000
  free_energy:        -4.7216225
  entropy:            76.7726130
  heat_capacity:      59.0312862
  energy:             45.1805760

- temperature:       660.0000000
  free_energy:        -5.4938701
  entropy:            77.6749791
  heat_capacity:      59.1757380
  energy:             45.7716161

- temperature:       670.0000000
  free_energy:        -6.2750839
  entropy:            78.5659030
  heat_capacity:      59.3142988
  energy:             46.3640711

- temperature:       680.0000000
  free_energy:        -7.0651508
  entropy:            79.4456387
  heat_capacity:      59.4472772
  energy:             46.9578835

- temperature:       690.0000000
  free_energy:        -7.8639602
  entropy:            80.3144336
  heat_capacity:      59.5749622
  energy:             47.5529990

- temperature:       700.0000000
  free_energy:        -8.6714038
  entropy:            81.1725283
  heat_capacity:      59.6976251
  energy:             48.1493660

- temperature:       710.0000000
  free_energy:        -9.4873759
  entropy:            82.0201570
  heat_capacity:      59.8155202
  energy:             48.7469356

- temperature:       720.0000000
  free_energy:       -10.3117729
  entropy:            82.8575475
  heat_capacity:      59.9288866
  energy:             49.3456613

- temperature:       730.0000000
  free_energy:       -11.1444935
  entropy:            83.6849212
  heat_capacity:      60.0379485
  energy:             49.9454990

- temperature:       740.0000000
  free_energy:       -11.9854386
  entropy:            84.5024936
  heat_capacity:      60.1429170
  energy:             50.5464066

- temperature:       750.0000000
  free_energy:       -12.8345114
  entropy:            85.3104743
  heat_capacity:      60.2439907
  energy:             51.1483443

- temperature:       760.0000000
  free_energy:       -13.6916168
  entropy:            86.1090670
  heat_capacity:      60.3413564
  energy:             51.7512741

- temperature:       770.0000000
  free_energy:       -14.5566621
  entropy:            86.8984698
  heat_capacity:      60.4351900
  energy:             52.3551597

- temperature:       780.0000000
  free_energy:       -15.4295562
  entropy:            87.6788755
  heat_capacity:      60.5256575
  energy:             52.9599667

- temperature:       790.0000000
  free_energy:       -16.3102102
  entropy:            88.4504713
  heat_capacity:      60.6129153
  energy:             53.5656621

- temperature:       800.0000000
  free_energy:       -17.1985369
  entropy:            89.2134396
  heat_capacity:      60.6971109
  energy:             54.1722148

- temperature:       810.0000000
  free_energy:       -18.0944508
  entropy:            89.9679574
  heat_capacity:      60.7783839
  energy:             54.7795946

- temperature:       820.0000000
  free_energy:       -18.9978684
  entropy:            90.7141970
  heat_capacity:      60.8568658
  energy:             55.3877731

- temperature:       830.0000000
  free_energy:       -19.9087077
  entropy:            91.4523263
  heat_capacity:      60.9326811
  energy:             55.9967231

- temperature:       840.0000000
  free_energy:       -20.8268885
  entropy:            92.1825080
  heat_capacity:      61.0059474
  energy:             56.6064183

- temperature:       850.0000000
  free_energy:       -21.7523319
  entropy:            92.9049010
  heat_capacity:      61.0767763
  energy:             57.2168339

- temperature:       860.0000000
  free_energy:       -22.6849610
  entropy:            93.6196594
  heat_capacity:      61.1452730
  energy:             57.8279460

- temperature:       870.0000000
  free_energy:       -23.6247002
  entropy:            94.3269334
  heat_capacity:      61.2115376
  energy:             58.4397319

- temperature:       880.0000000
  free_energy:       -24.5714752
  entropy:            95.0268692
  heat_capacity:      61.2756646
  energy:             59.0521696

- temperature:       890.0000000
  free_energy:       -25.5252136
  entropy:            95.7196089
  heat_capacity:      61.3377440
  energy:             59.6652384

- temperature:       900.0000000
  free_energy:       -26.4858439
  entropy:            96.4052910
  heat_capacity:      61.3978607
  energy:             60.2789180

- temperature:       910.0000000
  free_energy:       -27.4532963
  entropy:            97.0840501
  heat_capacity:      61.4560958
  energy:             60.8931893

- temperature:       920.0000000
  free_energy:       -28.4275023
  entropy:            97.7560176
  heat_capacity:      61.5125259
  energy:             61.5080339

- temperature:       930.0000000
  free_energy:       -29.4083945
  entropy:            98.4213210
  heat_capacity:      61.5672241
  energy:             62.1234341

- temperature:       940.0000000
  free_energy:       -30.3959069
  entropy:            99.0800848
  heat_capacity:      61.6202597
  energy:             62.7393728

- temperature:       950.0000000
  free_energy:       -31.3899748
  entropy:            99.7324302
  heat_capacity:      61.6716986
  energy:             63.3558339

- temperature:       960.0000000
  free_energy:       -32.3905345
  entropy:           100.3784752
  heat_capacity:      61.7216036
  energy:             63.9728017

- temperature:       970.0000000
  free_energy:       -33.3975236
  entropy:           101.0183348
  heat_capacity:      61.7700345
  energy:             64.5902611

- temperature:       980.0000000
  free_energy:       -34.4108809
  entropy:           101.6521210
  heat_capacity:      61.8170481
  energy:             65.2081977

- temperature:       990.0000000
  free_energy:       -35.4305462
  entropy:           102.2799431
  heat_capacity:      61.8626986
  energy:             65.8265975

- temperature:      1000.0000000
  free_energy:       -36.4564603
  entropy:           102.9019075
  heat_capacity:      61.9070378
  energy:             66.4454473
