  32  32   0   0
  0.8948858E+01  0.4932875E-09  0.4932875E-09  0.1359509E-08  0.5000000E-15
  1.000000000000000E-004
  CAR 
 graphite                                
     15.18770093    -17.05454597  301      4.56152171      1.00000000
    -17.055  0.0000E+00  0.0000E+00
    -16.947  0.0000E+00  0.0000E+00
    -16.840  0.0000E+00  0.0000E+00
    -16.732  0.0000E+00  0.0000E+00
    -16.625  0.0000E+00  0.0000E+00
    -16.517  0.0000E+00  0.0000E+00
    -16.410  0.0000E+00  0.0000E+00
    -16.302  0.0000E+00  0.0000E+00
    -16.195  0.0000E+00  0.0000E+00
    -16.087  0.0000E+00  0.0000E+00
    -15.980  0.0000E+00  0.0000E+00
    -15.872  0.0000E+00  0.0000E+00
    -15.765  0.0000E+00  0.0000E+00
    -15.657  0.0000E+00  0.0000E+00
    -15.550  0.0000E+00  0.0000E+00
    -15.442  0.0000E+00  0.0000E+00
    -15.335  0.0000E+00  0.0000E+00
    -15.227  0.0000E+00  0.0000E+00
    -15.120  0.0000E+00  0.0000E+00
    -15.013  0.7638E+00  0.1228E-01
    -14.905  0.2368E+01  0.2017E+00
    -14.798  0.3944E+01  0.5370E+00
    -14.690  0.4759E+01  0.1042E+01
    -14.583  0.5023E+01  0.1570E+01
    -14.475  0.4896E+01  0.2102E+01
    -14.368  0.4945E+01  0.2631E+01
    -14.260  0.4899E+01  0.3162E+01
    -14.153  0.4978E+01  0.3692E+01
    -14.045  0.4977E+01  0.4227E+01
    -13.938  0.5003E+01  0.4764E+01
    -13.830  0.5517E+01  0.5319E+01
    -13.723  0.5865E+01  0.5935E+01
    -13.615  0.7076E+01  0.6621E+01
    -13.508  0.4129E+01  0.7266E+01
    -13.400  0.1853E+01  0.7682E+01
    -13.293  0.2703E+01  0.7898E+01
    -13.185  0.4205E+01  0.8311E+01
    -13.078  0.4542E+01  0.8784E+01
    -12.971  0.6097E+01  0.9489E+01
    -12.863  0.6873E+01  0.1016E+02
    -12.756  0.4313E+01  0.1078E+02
    -12.648  0.4478E+01  0.1125E+02
    -12.541  0.4628E+01  0.1174E+02
    -12.433  0.4742E+01  0.1224E+02
    -12.326  0.5053E+01  0.1277E+02
    -12.218  0.5327E+01  0.1333E+02
    -12.111  0.5857E+01  0.1394E+02
    -12.003  0.5437E+01  0.1454E+02
    -11.896  0.5191E+01  0.1512E+02
    -11.788  0.4997E+01  0.1567E+02
    -11.681  0.4887E+01  0.1620E+02
    -11.573  0.4994E+01  0.1673E+02
    -11.466  0.5062E+01  0.1727E+02
    -11.358  0.5135E+01  0.1781E+02
    -11.251  0.5399E+01  0.1838E+02
    -11.143  0.5701E+01  0.1897E+02
    -11.036  0.5826E+01  0.1960E+02
    -10.929  0.5742E+01  0.2022E+02
    -10.821  0.5756E+01  0.2084E+02
    -10.714  0.5819E+01  0.2147E+02
    -10.606  0.4592E+01  0.2202E+02
    -10.499  0.4966E+01  0.2252E+02
    -10.391  0.5319E+01  0.2308E+02
    -10.284  0.5376E+01  0.2365E+02
    -10.176  0.5543E+01  0.2424E+02
    -10.069  0.5777E+01  0.2485E+02
     -9.961  0.6669E+01  0.2549E+02
     -9.854  0.8871E+01  0.2629E+02
     -9.746  0.8672E+01  0.2734E+02
     -9.639  0.5790E+01  0.2810E+02
     -9.531  0.6357E+01  0.2879E+02
     -9.424  0.3805E+01  0.2943E+02
     -9.316  0.3437E+01  0.2982E+02
     -9.209  0.3070E+01  0.3017E+02
     -9.101  0.2702E+01  0.3048E+02
     -8.994  0.2335E+01  0.3075E+02
     -8.887  0.2933E+01  0.3101E+02
     -8.779  0.2585E+01  0.3134E+02
     -8.672  0.1373E+01  0.3155E+02
     -8.564  0.1981E+01  0.3172E+02
     -8.457  0.3272E+01  0.3199E+02
     -8.349  0.7876E+01  0.3265E+02
     -8.242  0.4188E+01  0.3322E+02
     -8.134  0.4037E+01  0.3364E+02
     -8.027  0.4390E+01  0.3409E+02
     -7.919  0.8099E+01  0.3484E+02
     -7.812  0.6635E+01  0.3557E+02
     -7.704  0.7714E+01  0.3634E+02
     -7.597  0.8841E+01  0.3723E+02
     -7.489  0.7375E+01  0.3814E+02
     -7.382  0.6205E+01  0.3883E+02
     -7.274  0.5946E+01  0.3949E+02
     -7.167  0.5695E+01  0.4011E+02
     -7.059  0.5479E+01  0.4071E+02
     -6.952  0.5296E+01  0.4129E+02
     -6.845  0.5116E+01  0.4185E+02
     -6.737  0.4920E+01  0.4239E+02
     -6.630  0.4841E+01  0.4291E+02
     -6.522  0.4814E+01  0.4343E+02
     -6.415  0.4781E+01  0.4395E+02
     -6.307  0.4580E+01  0.4445E+02
     -6.200  0.4413E+01  0.4493E+02
     -6.092  0.3694E+01  0.4539E+02
     -5.985  0.4053E+01  0.4580E+02
     -5.877  0.4456E+01  0.4625E+02
     -5.770  0.5122E+01  0.4676E+02
     -5.662  0.5948E+01  0.4735E+02
     -5.555  0.7246E+01  0.4804E+02
     -5.447  0.1044E+02  0.4904E+02
     -5.340  0.8166E+01  0.5004E+02
     -5.232  0.5889E+01  0.5079E+02
     -5.125  0.3612E+01  0.5130E+02
     -5.017  0.2630E+01  0.5161E+02
     -4.910  0.3220E+01  0.5191E+02
     -4.802  0.4506E+01  0.5233E+02
     -4.695  0.5832E+01  0.5288E+02
     -4.588  0.7553E+01  0.5360E+02
     -4.480  0.7884E+01  0.5445E+02
     -4.373  0.6660E+01  0.5524E+02
     -4.265  0.5636E+01  0.5589E+02
     -4.158  0.7710E+01  0.5655E+02
     -4.050  0.7229E+01  0.5736E+02
     -3.943  0.6713E+01  0.5810E+02
     -3.835  0.6371E+01  0.5880E+02
     -3.728  0.6356E+01  0.5950E+02
     -3.620  0.8013E+01  0.6021E+02
     -3.513  0.1474E+02  0.6143E+02
     -3.405  0.8828E+01  0.6242E+02
     -3.298  0.7802E+01  0.6331E+02
     -3.190  0.7153E+01  0.6412E+02
     -3.083  0.6860E+01  0.6485E+02
     -2.975  0.7690E+01  0.6563E+02
     -2.868  0.8791E+01  0.6652E+02
     -2.760  0.1088E+02  0.6754E+02
     -2.653  0.1420E+02  0.6894E+02
     -2.546  0.1198E+02  0.7043E+02
     -2.438  0.1349E+02  0.7168E+02
     -2.331  0.1253E+02  0.7302E+02
     -2.223  0.1437E+02  0.7439E+02
     -2.116  0.1327E+02  0.7596E+02
     -2.008  0.1819E+02  0.7744E+02
     -1.901  0.1180E+02  0.7921E+02
     -1.793  0.1444E+02  0.8046E+02
     -1.686  0.1655E+02  0.8255E+02
     -1.578  0.1815E+02  0.8449E+02
     -1.471  0.1478E+02  0.8630E+02
     -1.363  0.1199E+02  0.8774E+02
     -1.256  0.1045E+02  0.8893E+02
     -1.148  0.8971E+01  0.9000E+02
     -1.041  0.7636E+01  0.9090E+02
     -0.933  0.1092E+02  0.9189E+02
     -0.826  0.1331E+02  0.9324E+02
     -0.718  0.1712E+02  0.9470E+02
     -0.611  0.9010E+01  0.9615E+02
     -0.504  0.9772E+01  0.9715E+02
     -0.396  0.1085E+02  0.9826E+02
     -0.289  0.1044E+02  0.9938E+02
     -0.181  0.1115E+02  0.1005E+03
     -0.074  0.9513E+01  0.1016E+03
      0.034  0.9227E+01  0.1026E+03
      0.141  0.9537E+01  0.1037E+03
      0.249  0.9754E+01  0.1048E+03
      0.356  0.9324E+01  0.1058E+03
      0.464  0.9225E+01  0.1068E+03
      0.571  0.9463E+01  0.1078E+03
      0.679  0.9399E+01  0.1088E+03
      0.786  0.9268E+01  0.1098E+03
      0.894  0.9393E+01  0.1108E+03
      1.001  0.9082E+01  0.1118E+03
      1.109  0.9488E+01  0.1128E+03
      1.216  0.9647E+01  0.1138E+03
      1.324  0.9839E+01  0.1149E+03
      1.431  0.1018E+02  0.1159E+03
      1.538  0.7725E+01  0.1169E+03
      1.646  0.6610E+01  0.1176E+03
      1.753  0.6338E+01  0.1183E+03
      1.861  0.4967E+01  0.1189E+03
      1.968  0.3859E+01  0.1194E+03
      2.076  0.4061E+01  0.1198E+03
      2.183  0.6335E+01  0.1203E+03
      2.291  0.8228E+01  0.1212E+03
      2.398  0.6109E+01  0.1221E+03
      2.506  0.9663E+01  0.1228E+03
      2.613  0.7139E+01  0.1237E+03
      2.721  0.5418E+01  0.1243E+03
      2.828  0.4529E+01  0.1249E+03
      2.936  0.3840E+01  0.1253E+03
      3.043  0.3327E+01  0.1257E+03
      3.151  0.3165E+01  0.1261E+03
      3.258  0.2903E+01  0.1264E+03
      3.366  0.2515E+01  0.1267E+03
      3.473  0.2136E+01  0.1269E+03
      3.580  0.1883E+01  0.1271E+03
      3.688  0.1649E+01  0.1273E+03
      3.795  0.1411E+01  0.1275E+03
      3.903  0.1177E+01  0.1276E+03
      4.010  0.9564E+00  0.1277E+03
      4.118  0.7564E+00  0.1278E+03
      4.225  0.5526E+00  0.1279E+03
      4.333  0.3624E+00  0.1280E+03
      4.440  0.1838E+00  0.1280E+03
      4.548  0.1528E-01  0.1280E+03
      4.655  0.9416E-01  0.1280E+03
      4.763  0.2248E+00  0.1280E+03
      4.870  0.3678E+00  0.1281E+03
      4.978  0.5270E+00  0.1281E+03
      5.085  0.7055E+00  0.1282E+03
      5.193  0.9168E+00  0.1283E+03
      5.300  0.1254E+01  0.1284E+03
      5.408  0.1620E+01  0.1285E+03
      5.515  0.1968E+01  0.1287E+03
      5.623  0.2328E+01  0.1289E+03
      5.730  0.2810E+01  0.1292E+03
      5.837  0.3077E+01  0.1296E+03
      5.945  0.4029E+01  0.1299E+03
      6.052  0.6279E+01  0.1305E+03
      6.160  0.1236E+02  0.1315E+03
      6.267  0.8422E+01  0.1324E+03
      6.375  0.7811E+01  0.1332E+03
      6.482  0.8471E+01  0.1341E+03
      6.590  0.6521E+01  0.1349E+03
      6.697  0.6059E+01  0.1356E+03
      6.805  0.5983E+01  0.1362E+03
      6.912  0.5213E+01  0.1368E+03
      7.020  0.4651E+01  0.1373E+03
      7.127  0.3842E+01  0.1378E+03
      7.235  0.3549E+01  0.1382E+03
      7.342  0.3669E+01  0.1386E+03
      7.450  0.4174E+01  0.1390E+03
      7.557  0.4547E+01  0.1395E+03
      7.665  0.4775E+01  0.1400E+03
      7.772  0.4606E+01  0.1405E+03
      7.879  0.4453E+01  0.1410E+03
      7.987  0.4293E+01  0.1414E+03
      8.094  0.4134E+01  0.1419E+03
      8.202  0.3951E+01  0.1423E+03
      8.309  0.3800E+01  0.1427E+03
      8.417  0.3653E+01  0.1431E+03
      8.524  0.3556E+01  0.1435E+03
      8.632  0.3490E+01  0.1439E+03
      8.739  0.3386E+01  0.1443E+03
      8.847  0.3471E+01  0.1446E+03
      8.954  0.3688E+01  0.1450E+03
      9.062  0.3833E+01  0.1454E+03
      9.169  0.4052E+01  0.1459E+03
      9.277  0.4117E+01  0.1463E+03
      9.384  0.4218E+01  0.1467E+03
      9.492  0.4026E+01  0.1472E+03
      9.599  0.3962E+01  0.1476E+03
      9.707  0.3949E+01  0.1480E+03
      9.814  0.3944E+01  0.1485E+03
      9.921  0.3953E+01  0.1489E+03
     10.029  0.4000E+01  0.1493E+03
     10.136  0.4069E+01  0.1497E+03
     10.244  0.4183E+01  0.1502E+03
     10.351  0.4300E+01  0.1506E+03
     10.459  0.4310E+01  0.1511E+03
     10.566  0.5624E+01  0.1517E+03
     10.674  0.5361E+01  0.1523E+03
     10.781  0.4854E+01  0.1528E+03
     10.889  0.4639E+01  0.1533E+03
     10.996  0.5057E+01  0.1538E+03
     11.104  0.3877E+01  0.1543E+03
     11.211  0.3579E+01  0.1547E+03
     11.319  0.3905E+01  0.1551E+03
     11.426  0.4040E+01  0.1555E+03
     11.534  0.2545E+01  0.1559E+03
     11.641  0.2609E+01  0.1561E+03
     11.749  0.3490E+01  0.1565E+03
     11.856  0.6396E+01  0.1570E+03
     11.963  0.6404E+01  0.1576E+03
     12.071  0.7894E+01  0.1584E+03
     12.178  0.8377E+01  0.1593E+03
     12.286  0.8026E+01  0.1602E+03
     12.393  0.6294E+01  0.1610E+03
     12.501  0.3632E+01  0.1615E+03
     12.608  0.1551E+01  0.1618E+03
     12.716  0.7890E+00  0.1619E+03
     12.823  0.3986E+00  0.1620E+03
     12.931  0.1928E+00  0.1620E+03
     13.038  0.6091E-01  0.1620E+03
     13.146  0.3117E-02  0.1620E+03
     13.253  0.0000E+00  0.1620E+03
     13.361  0.0000E+00  0.1620E+03
     13.468  0.0000E+00  0.1620E+03
     13.576  0.0000E+00  0.1620E+03
     13.683  0.0000E+00  0.1620E+03
     13.791  0.0000E+00  0.1620E+03
     13.898  0.0000E+00  0.1620E+03
     14.005  0.0000E+00  0.1620E+03
     14.113  0.0000E+00  0.1620E+03
     14.220  0.0000E+00  0.1620E+03
     14.328  0.0000E+00  0.1620E+03
     14.435  0.0000E+00  0.1620E+03
     14.543  0.0000E+00  0.1620E+03
     14.650  0.0000E+00  0.1620E+03
     14.758  0.0000E+00  0.1620E+03
     14.865  0.0000E+00  0.1620E+03
     14.973  0.0000E+00  0.1620E+03
     15.080  0.0000E+00  0.1620E+03
     15.188  0.0000E+00  0.1620E+03
