   32   32    1    1
  0.8905205E+01  0.4932875E-09  0.4932875E-09  0.1352877E-08  0.5000000E-15
  1.000000000000000E-004
  CAR 
 graphite                                
    128    163     84
 
  0.0000000E+00  0.0000000E+00  0.0000000E+00  0.3086420E-02
    1      -15.016626
    2      -14.880436
    3      -14.880047
    4      -14.734847
    5       -9.698905
    6       -9.688454
    7       -9.685536
    8       -9.643598
    9       -9.641663
   10       -9.631673
   11       -9.629949
   12       -9.629942
   13       -9.626267
   14       -9.595263
   15       -9.582395
   16       -9.579839
   17       -8.622646
   18       -8.621265
   19       -8.620199
   20       -8.593035
   21       -8.591873
   22       -8.590020
   23       -8.589290
   24       -8.589285
   25       -8.587052
   26       -8.543292
   27       -8.542471
   28       -8.540056
   29       -3.859779
   30       -3.008214
   31       -3.006590
   32       -1.973817
   33       -1.795320
   34       -1.793060
   35       -1.777516
   36       -1.769997
   37       -1.768900
   38       -1.768895
   39       -1.765233
   40       -1.752552
   41       -1.750205
   42       -1.743497
   43       -1.740707
   44       -1.725439
   45        1.600480
   46        1.607242
   47        1.607958
   48        1.612919
   49        1.619134
   50        1.624079
   51        1.624674
   52        1.631277
   53        1.865171
   54        1.868313
   55        1.870355
   56        2.246343
   57        2.249217
   58        2.256239
   59        2.256819
   60        2.256861
   61        2.260566
   62        2.512719
   63        2.530190
   64        2.531940
   65        6.116799
   66        6.118984
   67        6.124670
   68        6.260466
   69        6.263324
   70        6.265353
   71        6.267773
   72        6.268094
   73        6.271422
   74        6.767218
   75        6.773604
   76        6.776891
   77        8.844874
   78       11.417147
   79       11.420551
   80       11.814964
   81       11.818802
   82       11.850609
   83       11.998174
   84       12.008279
 
  0.1111111E+00  0.1387779E-16  0.0000000E+00  0.6172840E-02
    1      -14.943018
    2      -14.807320
    3      -14.806933
    4      -14.662443
    5      -10.483168
    6      -10.386284
    7      -10.385933
    8      -10.285505
    9       -9.945830
   10       -9.936912
   11       -9.863015
   12       -9.861820
   13       -9.853055
   14       -9.852453
   15       -9.778492
   16       -9.768465
   17       -8.317114
   18       -8.313069
   19       -8.251617
   20       -8.249710
   21       -8.246180
   22       -8.245496
   23       -8.176879
   24       -8.172084
   25       -7.801696
   26       -7.726554
   27       -7.724720
   28       -7.645957
   29       -3.770398
   30       -2.921095
   31       -2.919476
   32       -2.021379
   33       -2.004392
   34       -1.992770
   35       -1.992660
   36       -1.976671
   37       -1.974403
   38       -1.963775
   39       -1.946650
   40       -1.890100
   41       -1.720996
   42       -1.696574
   43       -1.693996
   44       -1.669503
   45        1.279683
   46        1.306537
   47        1.317764
   48        1.321781
   49        1.332094
   50        1.446326
   51        1.455806
   52        1.459934
   53        1.471180
   54        1.749448
   55        1.753871
   56        1.829799
   57        1.832058
   58        2.194779
   59        2.197584
   60        2.204474
   61        2.205073
   62        2.374098
   63        2.562815
   64        2.578016
   65        6.197757
   66        6.201732
   67        6.392893
   68        6.396332
   69        6.398305
   70        6.402039
   71        6.492628
   72        6.804792
   73        6.809265
   74        6.902474
   75        6.910402
   76        7.370823
   77        8.933981
   78       11.494988
   79       11.498378
   80       11.857893
   81       12.036509
   82       12.037589
   83       12.152018
   84       12.187160
 
  0.2222222E+00  0.2775558E-16  0.0000000E+00  0.6172840E-02
    1      -14.722375
    2      -14.588433
    3      -14.588050
    4      -14.445573
    5      -11.494420
    6      -11.386359
    7      -11.386044
    8      -11.272966
    9      -10.292105
   10      -10.286146
   11      -10.197550
   12      -10.196752
   13      -10.191102
   14      -10.190420
   15      -10.098431
   16      -10.092053
   17       -7.636665
   18       -7.629359
   19       -7.564134
   20       -7.562357
   21       -7.555923
   22       -7.555379
   23       -7.485900
   24       -7.478444
   25       -6.475975
   26       -6.405924
   27       -6.404177
   28       -6.331477
   29       -3.503068
   30       -2.660820
   31       -2.659217
   32       -2.628123
   33       -2.612165
   34       -2.593084
   35       -2.592819
   36       -2.577808
   37       -2.575619
   38       -2.556721
   39       -2.540584
   40       -1.639959
   41       -1.505984
   42       -1.482108
   43       -1.479447
   44       -1.455360
   45        0.262931
   46        0.480584
   47        0.499054
   48        0.503277
   49        0.521658
   50        0.939821
   51        0.941574
   52        1.026076
   53        1.039611
   54        1.043857
   55        1.058201
   56        1.529978
   57        1.534408
   58        1.707002
   59        2.073996
   60        2.076697
   61        2.081914
   62        2.082603
   63        2.614776
   64        2.625625
   65        6.448770
   66        6.450494
   67        6.727432
   68        6.730352
   69        6.732981
   70        6.736327
   71        7.211628
   72        7.217174
   73        7.628000
   74        8.028291
   75        8.032036
   76        8.583461
   77        9.201986
   78       11.727308
   79       11.730683
   80       11.973553
   81       12.145806
   82       12.147090
   83       12.301905
   84       12.992911
 
  0.3333333E+00  0.0000000E+00  0.0000000E+00  0.6172840E-02
    1      -14.355905
    2      -14.224862
    3      -14.224487
    4      -14.085314
    5      -12.407407
    6      -12.291879
    7      -12.291541
    8      -12.169697
    9      -10.548226
   10      -10.544540
   11      -10.449328
   12      -10.448507
   13      -10.445281
   14      -10.444387
   15      -10.345139
   16      -10.341293
   17       -6.828652
   18       -6.819661
   19       -6.761939
   20       -6.760065
   21       -6.752302
   22       -6.751464
   23       -6.690873
   24       -6.682017
   25       -5.042426
   26       -4.981932
   27       -4.979947
   28       -4.917604
   29       -3.443885
   30       -3.429880
   31       -3.402674
   32       -3.402011
   33       -3.389285
   34       -3.386997
   35       -3.359354
   36       -3.345206
   37       -3.060379
   38       -2.230666
   39       -2.229070
   40       -1.227462
   41       -1.156628
   42       -1.133972
   43       -1.131145
   44       -1.107857
   45       -0.757956
   46       -0.703834
   47       -0.675507
   48       -0.672117
   49       -0.643685
   50       -0.014210
   51       -0.012655
   52        0.462884
   53        0.479870
   54        0.483811
   55        0.501482
   56        0.860098
   57        1.339959
   58        1.343357
   59        1.950394
   60        1.953125
   61        1.956271
   62        1.957016
   63        2.616871
   64        2.623476
   65        6.808027
   66        6.811059
   67        7.119270
   68        7.121296
   69        7.123862
   70        7.127060
   71        7.521705
   72        7.525139
   73        9.135476
   74        9.506534
   75        9.510238
   76        9.649240
   77        9.993526
   78       11.942280
   79       12.095201
   80       12.098775
   81       12.225634
   82       12.312587
   83       12.314124
   84       12.596021
 
  0.4444444E+00  0.5551115E-16  0.0000000E+00  0.6172840E-02
    1      -13.845496
    2      -13.718542
    3      -13.718175
    4      -13.583587
    5      -13.194228
    6      -13.072431
    7      -13.072079
    8      -12.943299
    9      -10.680045
   10      -10.678031
   11      -10.579872
   12      -10.578640
   13      -10.577587
   14      -10.576206
   15      -10.473377
   16      -10.471302
   17       -6.078259
   18       -6.071432
   19       -6.030204
   20       -6.028109
   21       -6.023440
   22       -6.021220
   23       -5.980175
   24       -5.973977
   25       -4.192741
   26       -4.185027
   27       -4.159414
   28       -4.157435
   29       -4.151505
   30       -4.148878
   31       -4.120170
   32       -4.111747
   33       -3.561915
   34       -3.512093
   35       -3.509729
   36       -3.458581
   37       -2.447442
   38       -2.089867
   39       -2.051441
   40       -2.048491
   41       -2.008479
   42       -1.673894
   43       -1.635953
   44       -1.634485
   45       -0.890108
   46       -0.888598
   47       -0.690257
   48       -0.668650
   49       -0.665588
   50       -0.660515
   51       -0.643655
   52       -0.134596
   53       -0.114933
   54       -0.111352
   55       -0.091041
   56        0.045851
   57        1.234866
   58        1.237128
   59        1.876106
   60        1.879218
   61        1.880286
   62        1.881214
   63        2.602958
   64        2.606039
   65        7.093755
   66        7.096621
   67        7.387560
   68        7.388159
   69        7.389446
   70        7.393316
   71        7.695073
   72        7.697646
   73       10.272251
   74       10.758659
   75       11.043068
   76       11.049102
   77       11.067048
   78       11.452208
   79       12.340181
   80       12.349236
   81       12.356343
   82       12.428839
   83       12.501099
   84       12.503393
 
 -0.6776264E-20  0.1111111E+00  0.0000000E+00  0.6172840E-02
    1      -14.943016
    2      -14.807318
    3      -14.806931
    4      -14.662441
    5      -10.483276
    6      -10.386373
    7      -10.386089
    8      -10.285647
    9       -9.945812
   10       -9.936591
   11       -9.862958
   12       -9.861820
   13       -9.853043
   14       -9.851778
   15       -9.778471
   16       -9.768078
   17       -8.317468
   18       -8.314081
   19       -8.251640
   20       -8.251219
   21       -8.246459
   22       -8.246122
   23       -8.177162
   24       -8.172894
   25       -7.800687
   26       -7.724796
   27       -7.724544
   28       -7.645023
   29       -3.770403
   30       -2.921100
   31       -2.919481
   32       -2.020194
   33       -2.004243
   34       -1.992687
   35       -1.990293
   36       -1.976777
   37       -1.974403
   38       -1.962517
   39       -1.946729
   40       -1.890106
   41       -1.722058
   42       -1.696587
   43       -1.696418
   44       -1.670936
   45        1.279191
   46        1.310097
   47        1.321782
   48        1.322265
   49        1.333837
   50        1.444787
   51        1.455671
   52        1.455805
   53        1.466669
   54        1.749645
   55        1.754847
   56        1.829575
   57        1.830363
   58        2.195134
   59        2.197581
   60        2.204524
   61        2.207180
   62        2.373017
   63        2.562875
   64        2.579132
   65        6.195968
   66        6.201625
   67        6.392273
   68        6.394947
   69        6.397764
   70        6.400412
   71        6.494447
   72        6.807463
   73        6.810120
   74        6.902345
   75        6.908317
   76        7.372600
   77        8.933976
   78       11.494961
   79       11.498352
   80       11.857258
   81       12.036127
   82       12.036692
   83       12.151796
   84       12.194752
 
  0.1111111E+00  0.1111111E+00  0.0000000E+00  0.6172840E-02
    1      -14.795773
    2      -14.661230
    3      -14.660845
    4      -14.517686
    5      -10.948597
    6      -10.945635
    7      -10.847100
    8      -10.844184
    9      -10.844165
   10      -10.841126
   11      -10.737941
   12      -10.734913
   13       -9.509723
   14       -9.455111
   15       -9.453679
   16       -9.408102
   17       -8.436883
   18       -8.409046
   19       -8.405795
   20       -8.361832
   21       -7.118434
   22       -7.115165
   23       -7.046390
   24       -7.042410
   25       -7.042390
   26       -7.039979
   27       -6.967270
   28       -6.964086
   29       -3.591913
   30       -2.747314
   31       -2.745703
   32       -2.687446
   33       -2.652814
   34       -2.650555
   35       -2.615313
   36       -1.876655
   37       -1.874286
   38       -1.849231
   39       -1.847825
   40       -1.847820
   41       -1.843993
   42       -1.820052
   43       -1.817025
   44       -1.723043
   45        0.776173
   46        0.788155
   47        0.792854
   48        0.802497
   49        0.847121
   50        0.848588
   51        1.132143
   52        1.139872
   53        1.144055
   54        1.154949
   55        1.469293
   56        1.470858
   57        1.470976
   58        1.474213
   59        2.132336
   60        2.145610
   61        2.147879
   62        2.512737
   63        2.515276
   64        2.774178
   65        6.105275
   66        6.189052
   67        6.193899
   68        6.597241
   69        6.977988
   70        6.980504
   71        7.346764
   72        7.351607
   73        7.351952
   74        7.353619
   75        7.898400
   76        7.901200
   77        9.112865
   78       11.651459
   79       11.654839
   80       12.229160
   81       12.233168
   82       12.407916
   83       12.409851
   84       12.413617
 
  0.2222222E+00  0.1111111E+00  0.0000000E+00  0.6172840E-02
    1      -14.502139
    2      -14.369916
    3      -14.369538
    4      -14.229029
    5      -11.913937
    6      -11.802502
    7      -11.802176
    8      -11.685088
    9      -11.289398
   10      -11.183316
   11      -11.182989
   12      -11.071611
   13       -9.559889
   14       -9.480147
   15       -9.479366
   16       -9.399199
   17       -7.970005
   18       -7.909298
   19       -7.906632
   20       -7.839583
   21       -6.332277
   22       -6.264626
   23       -6.264254
   24       -6.194206
   25       -5.735320
   26       -5.670610
   27       -5.668864
   28       -5.602107
   29       -3.595598
   30       -3.553190
   31       -3.550990
   32       -3.507432
   33       -3.236721
   34       -2.403329
   35       -2.401898
   36       -2.400294
   37       -2.369308
   38       -2.368974
   39       -2.334421
   40       -1.588533
   41       -1.562436
   42       -1.559842
   43       -1.533375
   44       -1.391529
   45       -0.194927
   46       -0.176439
   47       -0.157752
   48       -0.153417
   49       -0.135148
   50        0.511718
   51        0.519221
   52        0.520854
   53        0.587885
   54        0.600351
   55        0.605242
   56        0.619789
   57        1.182358
   58        1.183493
   59        1.346072
   60        1.941792
   61        2.269263
   62        2.715178
   63        2.717646
   64        3.081948
   65        6.081467
   66        6.197649
   67        6.202060
   68        6.543796
   69        7.555500
   70        7.921187
   71        7.923365
   72        8.334229
   73        8.390527
   74        8.719824
   75        8.723084
   76        9.221363
   77        9.471489
   78       11.961737
   79       11.965177
   80       12.346736
   81       12.548647
   82       12.549810
   83       12.565721
   84       12.930470
 
  0.3333333E+00  0.1111111E+00  0.0000000E+00  0.6172840E-02
    1      -14.063615
    2      -13.934845
    3      -13.934475
    4      -13.797952
    5      -12.764495
    6      -12.646050
    7      -12.645707
    8      -12.520857
    9      -11.498340
   10      -11.390266
   11      -11.389930
   12      -11.276599
   13       -9.703415
   14       -9.613900
   15       -9.613533
   16       -9.520733
   17       -7.204229
   18       -7.143178
   19       -7.140685
   20       -7.077218
   21       -5.532367
   22       -5.476853
   23       -5.475795
   24       -5.419135
   25       -4.534073
   26       -4.489989
   27       -4.487607
   28       -4.441105
   29       -4.285815
   30       -4.231526
   31       -4.229548
   32       -4.173886
   33       -3.102467
   34       -3.066331
   35       -3.065188
   36       -3.027071
   37       -2.708554
   38       -1.889668
   39       -1.888036
   40       -1.423023
   41       -1.391732
   42       -1.387785
   43       -1.357397
   44       -1.172062
   45       -1.168238
   46       -1.147388
   47       -1.144678
   48       -1.119732
   49       -0.901263
   50       -0.404818
   51       -0.403334
   52       -0.037127
   53       -0.018992
   54       -0.014702
   55        0.004278
   56        0.302626
   57        0.500982
   58        0.998002
   59        0.999263
   60        1.802321
   61        2.269047
   62        2.805857
   63        2.807932
   64        3.347690
   65        6.077552
   66        6.317014
   67        6.320437
   68        6.643960
   69        8.063716
   70        8.376620
   71        8.378432
   72        8.722288
   73        9.899701
   74       10.008381
   75       10.226831
   76       10.229819
   77       10.645335
   78       11.590842
   79       12.382045
   80       12.387256
   81       12.629090
   82       12.722253
   83       12.723649
   84       12.962742
 
  0.4444444E+00  0.1111111E+00  0.0000000E+00  0.6172840E-02
    1      -13.484646
    2      -13.481712
    3      -13.361653
    4      -13.359267
    5      -13.358317
    6      -13.355972
    7      -13.228746
    8      -13.225754
    9      -11.568840
   10      -11.460422
   11      -11.460080
   12      -11.346020
   13       -9.758103
   14       -9.666656
   15       -9.666380
   16       -9.571265
   17       -6.694878
   18       -6.655892
   19       -6.653583
   20       -6.616607
   21       -5.058998
   22       -5.056809
   23       -5.034144
   24       -5.031780
   25       -5.026890
   26       -5.023959
   27       -5.002400
   28       -4.993309
   29       -3.518751
   30       -3.498004
   31       -3.494992
   32       -3.469615
   33       -2.827689
   34       -2.823527
   35       -2.786011
   36       -2.781173
   37       -2.779549
   38       -2.779184
   39       -2.738082
   40       -2.734576
   41       -2.016163
   42       -2.013687
   43       -1.220236
   44       -1.218154
   45       -1.217315
   46       -1.214500
   47       -0.645807
   48       -0.641550
   49       -0.622762
   50       -0.622197
   51       -0.620037
   52       -0.613683
   53       -0.598193
   54       -0.590791
   55       -0.264822
   56       -0.262060
   57        0.230865
   58        0.934047
   59        0.935417
   60        1.752305
   61        2.258331
   62        2.829643
   63        2.831199
   64        3.446450
   65        6.088918
   66        6.384596
   67        6.386878
   68        6.699070
   69        8.282522
   70        8.554070
   71        8.556029
   72        8.826769
   73       10.718359
   74       10.720039
   75       11.491436
   76       11.494761
   77       11.714982
   78       11.721864
   79       11.722417
   80       11.726064
   81       12.061949
   82       12.065716
   83       12.814690
   84       12.824357
 
 -0.4444444E+00  0.1111111E+00  0.0000000E+00  0.6172840E-02
    1      -14.064362
    2      -13.935586
    3      -13.935217
    4      -13.798700
    5      -12.763321
    6      -12.644879
    7      -12.644533
    8      -12.519693
    9      -11.500104
   10      -11.392044
   11      -11.391706
   12      -11.278387
   13       -9.700490
   14       -9.610694
   15       -9.610433
   16       -9.517437
   17       -7.197649
   18       -7.135709
   19       -7.134951
   20       -7.070726
   21       -5.542202
   22       -5.487230
   23       -5.484666
   24       -5.428453
   25       -4.544584
   26       -4.499863
   27       -4.499165
   28       -4.451983
   29       -4.288372
   30       -4.234313
   31       -4.231978
   32       -4.176467
   33       -3.089818
   34       -3.054347
   35       -3.051410
   36       -3.013944
   37       -2.709369
   38       -1.890463
   39       -1.888841
   40       -1.421537
   41       -1.389726
   42       -1.387154
   43       -1.356198
   44       -1.169573
   45       -1.167048
   46       -1.145129
   47       -1.141974
   48       -1.117197
   49       -0.902061
   50       -0.403675
   51       -0.402141
   52       -0.038592
   53       -0.019993
   54       -0.017137
   55        0.002022
   56        0.300868
   57        0.502097
   58        0.995807
   59        0.997276
   60        1.799606
   61        2.270736
   62        2.810003
   63        2.811027
   64        3.355164
   65        6.076163
   66        6.318886
   67        6.320635
   68        6.644357
   69        8.059670
   70        8.372586
   71        8.375320
   72        8.720692
   73        9.899592
   74       10.007292
   75       10.225711
   76       10.229013
   77       10.643645
   78       11.592476
   79       12.381381
   80       12.386561
   81       12.626452
   82       12.719692
   83       12.721927
   84       12.960583
 
 -0.3333333E+00  0.1111111E+00  0.0000000E+00  0.6172840E-02
    1      -14.502664
    2      -14.370440
    3      -14.370062
    4      -14.229564
    5      -11.912545
    6      -11.801109
    7      -11.800782
    8      -11.683693
    9      -11.292975
   10      -11.186919
   11      -11.186597
   12      -11.075251
   13       -9.553378
   14       -9.472801
   15       -9.472567
   16       -9.391431
   17       -7.965759
   18       -7.903382
   19       -7.903111
   20       -7.834441
   21       -6.342147
   22       -6.275251
   23       -6.273167
   24       -6.203861
   25       -5.737800
   26       -5.673205
   27       -5.671261
   28       -5.604621
   29       -3.609401
   30       -3.566079
   31       -3.565916
   32       -3.521322
   33       -3.237308
   34       -2.402512
   35       -2.400921
   36       -2.387130
   37       -2.354327
   38       -2.351733
   39       -2.318258
   40       -1.586580
   41       -1.560594
   42       -1.557795
   43       -1.531429
   44       -1.392110
   45       -0.193574
   46       -0.177381
   47       -0.157949
   48       -0.156330
   49       -0.137065
   50        0.508539
   51        0.520406
   52        0.521960
   53        0.589915
   54        0.603009
   55        0.605432
   56        0.619456
   57        1.178013
   58        1.179584
   59        1.347202
   60        1.936251
   61        2.271681
   62        2.722877
   63        2.723394
   64        3.095820
   65        6.077086
   66        6.200385
   67        6.202489
   68        6.546930
   69        7.550879
   70        7.915049
   71        7.918507
   72        8.333690
   73        8.386384
   74        8.718407
   75        8.722017
   76        9.219521
   77        9.470688
   78       11.960865
   79       11.964295
   80       12.345330
   81       12.546540
   82       12.548174
   83       12.565819
   84       12.929471
 
 -0.2222222E+00  0.1111111E+00  0.0000000E+00  0.6172840E-02
    1      -14.796094
    2      -14.661553
    3      -14.661168
    4      -14.518011
    5      -10.952528
    6      -10.945491
    7      -10.849833
    8      -10.849534
    9      -10.842719
   10      -10.842416
   11      -10.742102
   12      -10.734914
   13       -9.498690
   14       -9.442371
   15       -9.442219
   16       -9.394809
   17       -8.436895
   18       -8.406951
   19       -8.406829
   20       -8.360651
   21       -7.124397
   22       -7.119421
   23       -7.051459
   24       -7.049525
   25       -7.046347
   26       -7.044562
   27       -6.973363
   28       -6.968476
   29       -3.592268
   30       -2.747669
   31       -2.746059
   32       -2.702938
   33       -2.667296
   34       -2.667162
   35       -2.630888
   36       -1.873567
   37       -1.858822
   38       -1.846631
   39       -1.844025
   40       -1.831875
   41       -1.829366
   42       -1.816734
   43       -1.802147
   44       -1.723397
   45        0.770509
   46        0.782529
   47        0.782922
   48        0.794372
   49        0.842767
   50        0.849531
   51        1.140613
   52        1.149620
   53        1.149696
   54        1.159653
   55        1.463998
   56        1.465707
   57        1.471946
   58        1.473925
   59        2.134637
   60        2.137996
   61        2.148101
   62        2.522442
   63        2.522688
   64        2.791510
   65        6.099114
   66        6.192364
   67        6.194899
   68        6.603404
   69        6.977244
   70        6.977888
   71        7.343752
   72        7.347304
   73        7.347770
   74        7.351359
   75        7.894775
   76        7.897237
   77        9.112367
   78       11.650864
   79       11.654242
   80       12.230280
   81       12.263430
   82       12.408488
   83       12.414248
   84       12.442906
 
 -0.1111111E+00  0.1111111E+00  0.0000000E+00  0.6172840E-02
    1      -14.943123
    2      -14.807424
    3      -14.807036
    4      -14.662545
    5      -10.490828
    6      -10.394129
    7      -10.393774
    8      -10.293571
    9       -9.936575
   10       -9.934325
   11       -9.853545
   12       -9.851652
   13       -9.851638
   14       -9.848980
   15       -9.768226
   16       -9.765926
   17       -8.316317
   18       -8.314390
   19       -8.250793
   20       -8.247796
   21       -8.247780
   22       -8.247054
   23       -8.175390
   24       -8.173579
   25       -7.806392
   26       -7.731410
   27       -7.729368
   28       -7.650814
   29       -3.770521
   30       -2.921219
   31       -2.919600
   32       -2.021429
   33       -2.019297
   34       -1.993447
   35       -1.992334
   36       -1.992328
   37       -1.988690
   38       -1.964072
   39       -1.961319
   40       -1.890226
   41       -1.704885
   42       -1.680423
   43       -1.677983
   44       -1.653595
   45        1.273848
   46        1.299195
   47        1.309672
   48        1.314268
   49        1.326514
   50        1.452506
   51        1.463579
   52        1.467944
   53        1.477138
   54        1.753933
   55        1.756091
   56        1.821289
   57        1.823215
   58        2.204165
   59        2.205036
   60        2.205127
   61        2.208731
   62        2.361180
   63        2.577700
   64        2.579668
   65        6.195767
   66        6.198145
   67        6.392925
   68        6.398542
   69        6.398858
   70        6.400513
   71        6.494653
   72        6.801892
   73        6.806261
   74        6.906515
   75        6.909578
   76        7.366187
   77        8.933806
   78       11.494750
   79       11.498142
   80       11.890631
   81       12.069023
   82       12.070438
   83       12.148751
   84       12.152508
 
 -0.1355253E-19  0.2222222E+00  0.0000000E+00  0.6172840E-02
    1      -14.722368
    2      -14.588426
    3      -14.588043
    4      -14.445566
    5      -11.494402
    6      -11.386342
    7      -11.386029
    8      -11.272952
    9      -10.292271
   10      -10.285927
   11      -10.197983
   12      -10.196763
   13      -10.191090
   14      -10.189763
   15      -10.098541
   16      -10.091771
   17       -7.637033
   18       -7.630218
   19       -7.564153
   20       -7.563634
   21       -7.556297
   22       -7.555867
   23       -7.486178
   24       -7.479112
   25       -6.475046
   26       -6.404258
   27       -6.404030
   28       -6.330589
   29       -3.503086
   30       -2.660841
   31       -2.659236
   32       -2.626987
   33       -2.612049
   34       -2.592833
   35       -2.590675
   36       -2.577695
   37       -2.575618
   38       -2.555432
   39       -2.540538
   40       -1.639986
   41       -1.507104
   42       -1.482126
   43       -1.482001
   44       -1.456880
   45        0.262454
   46        0.483477
   47        0.503267
   48        0.503337
   49        0.523419
   50        0.939549
   51        0.940705
   52        1.024459
   53        1.039574
   54        1.039625
   55        1.054682
   56        1.530092
   57        1.535329
   58        1.706295
   59        2.074334
   60        2.076680
   61        2.082000
   62        2.084512
   63        2.614918
   64        2.626736
   65        6.447258
   66        6.449939
   67        6.726572
   68        6.728761
   69        6.732728
   70        6.734865
   71        7.210844
   72        7.215855
   73        7.629469
   74        8.030226
   75        8.032749
   76        8.584754
   77        9.201971
   78       11.727212
   79       11.730588
   80       11.972889
   81       12.145571
   82       12.145952
   83       12.301207
   84       12.995712
 
  0.1111111E+00  0.2222222E+00  0.0000000E+00  0.6172840E-02
    1      -14.502134
    2      -14.369910
    3      -14.369532
    4      -14.229023
    5      -11.913898
    6      -11.802462
    7      -11.802137
    8      -11.685049
    9      -11.289426
   10      -11.183336
   11      -11.183023
   12      -11.071636
   13       -9.559879
   14       -9.480126
   15       -9.479365
   16       -9.399188
   17       -7.970073
   18       -7.909298
   19       -7.906796
   20       -7.839681
   21       -6.333295
   22       -6.266290
   23       -6.264590
   24       -6.195193
   25       -5.734306
   26       -5.668903
   27       -5.668580
   28       -5.601126
   29       -3.595505
   30       -3.553033
   31       -3.550990
   32       -3.507364
   33       -3.236736
   34       -2.402228
   35       -2.401806
   36       -2.400304
   37       -2.368983
   38       -2.366684
   39       -2.332995
   40       -1.589753
   41       -1.562590
   42       -1.562423
   43       -1.534941
   44       -1.391550
   45       -0.195116
   46       -0.174950
   47       -0.155784
   48       -0.153416
   49       -0.134480