       N       E                     dE             d eps       ncg     rms          rms(c)
DAV:   1     0.596351556553E+03    0.59635E+03   -0.71596E+04 27384   0.159E+03
DAV:   2    -0.263021576149E+03   -0.85937E+03   -0.82860E+03 34188   0.312E+02
DAV:   3    -0.312824450151E+03   -0.49803E+02   -0.49340E+02 33432   0.756E+01
DAV:   4    -0.313768796337E+03   -0.94435E+00   -0.94264E+00 35016   0.113E+01
DAV:   5    -0.313796133139E+03   -0.27337E-01   -0.27325E-01 34980   0.179E+00    0.221E+01
DAV:   6    -0.299286334314E+03    0.14510E+02   -0.14958E+01 31296   0.107E+01    0.116E+01
DAV:   7    -0.294675853334E+03    0.46105E+01   -0.15779E+01 30912   0.110E+01    0.194E+00
DAV:   8    -0.294741906722E+03   -0.66053E-01   -0.42272E-01 31008   0.189E+00    0.360E-01
DAV:   9    -0.294742545331E+03   -0.63861E-03   -0.25339E-02 32400   0.546E-01    0.160E-01
DAV:  10    -0.294742917130E+03   -0.37180E-03   -0.52600E-03 33936   0.233E-01    0.113E-01
