       N       E                     dE             d eps       ncg     rms          rms(c)
DAV:   1     0.595837618747E+03    0.59584E+03   -0.71660E+04 27384   0.160E+03
DAV:   2    -0.262883020746E+03   -0.85872E+03   -0.82791E+03 34236   0.312E+02
DAV:   3    -0.312763638230E+03   -0.49881E+02   -0.49414E+02 33324   0.756E+01
DAV:   4    -0.313709129286E+03   -0.94549E+00   -0.94376E+00 35124   0.113E+01
DAV:   5    -0.313736430931E+03   -0.27302E-01   -0.27290E-01 35124   0.178E+00    0.221E+01
DAV:   6    -0.299247421850E+03    0.14489E+02   -0.14942E+01 31296   0.107E+01    0.116E+01
DAV:   7    -0.294649460263E+03    0.45980E+01   -0.15726E+01 30840   0.110E+01    0.194E+00
DAV:   8    -0.294714349305E+03   -0.64889E-01   -0.41465E-01 30996   0.187E+00    0.348E-01
DAV:   9    -0.294715196423E+03   -0.84712E-03   -0.25969E-02 32436   0.535E-01    0.158E-01
DAV:  10    -0.294715559955E+03   -0.36353E-03   -0.49208E-03 33192   0.226E-01    0.109E-01
DAV:  11    -0.294715968663E+03   -0.40871E-03   -0.33165E-03 32232   0.140E-01    0.882E-02
DAV:  12    -0.294716413025E+03   -0.44436E-03   -0.18775E-03 31128   0.115E-01    0.519E-02
DAV:  13    -0.294716578536E+03   -0.16551E-03   -0.32597E-03 35292   0.126E-01    0.550E-02
DAV:  14    -0.294716467452E+03    0.11108E-03   -0.53907E-04 33792   0.789E-02    0.188E-02
DAV:  15    -0.294716469623E+03   -0.21707E-05   -0.43313E-05 31392   0.231E-02    0.148E-02
DAV:  16    -0.294716484455E+03   -0.14832E-04   -0.28898E-04 34656   0.224E-02    0.229E-02
DAV:  17    -0.294716471590E+03    0.12866E-04   -0.37841E-05 24768   0.151E-02    0.139E-02
DAV:  18    -0.294716471596E+03   -0.59927E-08   -0.41675E-05 26076   0.767E-03    0.133E-02
DAV:  19    -0.294716473523E+03   -0.19274E-05   -0.96059E-06 19452   0.682E-03    0.174E-02
DAV:  20    -0.294716470161E+03    0.33619E-05   -0.27456E-05 19356   0.719E-03    0.390E-03
DAV:  21    -0.294716470812E+03   -0.65116E-06   -0.43021E-06 18720   0.302E-03
   1 F= -.29967074E+03 E0= -.29967074E+03  d E =0.000000E+00
