  32  32   0   0
  0.8905205E+01  0.4932875E-09  0.4932875E-09  0.1352877E-08  0.5000000E-15
  1.000000000000000E-004
  CAR 
 graphite                                
     15.48719946    -17.01666864  301      4.60390560      1.00000000
    -17.017  0.0000E+00  0.0000E+00
    -16.908  0.0000E+00  0.0000E+00
    -16.800  0.0000E+00  0.0000E+00
    -16.692  0.0000E+00  0.0000E+00
    -16.583  0.0000E+00  0.0000E+00
    -16.475  0.0000E+00  0.0000E+00
    -16.367  0.0000E+00  0.0000E+00
    -16.258  0.0000E+00  0.0000E+00
    -16.150  0.0000E+00  0.0000E+00
    -16.042  0.0000E+00  0.0000E+00
    -15.933  0.0000E+00  0.0000E+00
    -15.825  0.0000E+00  0.0000E+00
    -15.717  0.0000E+00  0.0000E+00
    -15.608  0.0000E+00  0.0000E+00
    -15.500  0.0000E+00  0.0000E+00
    -15.391  0.0000E+00  0.0000E+00
    -15.283  0.0000E+00  0.0000E+00
    -15.175  0.0000E+00  0.0000E+00
    -15.066  0.0000E+00  0.0000E+00
    -14.958  0.1258E+01  0.2847E-01
    -14.850  0.2527E+01  0.2395E+00
    -14.741  0.4077E+01  0.5946E+00
    -14.633  0.4795E+01  0.1109E+01
    -14.525  0.5037E+01  0.1645E+01
    -14.416  0.4899E+01  0.2179E+01
    -14.308  0.4949E+01  0.2713E+01
    -14.200  0.4913E+01  0.3248E+01
    -14.091  0.4973E+01  0.3784E+01
    -13.983  0.4979E+01  0.4323E+01
    -13.875  0.5008E+01  0.4864E+01
    -13.766  0.5631E+01  0.5437E+01
    -13.658  0.5892E+01  0.6066E+01
    -13.550  0.6801E+01  0.6783E+01
    -13.441  0.4591E+01  0.7366E+01
    -13.333  0.1804E+01  0.7726E+01
    -13.225  0.3419E+01  0.7976E+01
    -13.116  0.4243E+01  0.8420E+01
    -13.008  0.4708E+01  0.8905E+01
    -12.900  0.5868E+01  0.9657E+01
    -12.791  0.6654E+01  0.1035E+02
    -12.683  0.4359E+01  0.1090E+02
    -12.574  0.4538E+01  0.1139E+02
    -12.466  0.4675E+01  0.1189E+02
    -12.358  0.4792E+01  0.1240E+02
    -12.249  0.5145E+01  0.1294E+02
    -12.141  0.5478E+01  0.1351E+02
    -12.033  0.5667E+01  0.1414E+02
    -11.924  0.5527E+01  0.1474E+02
    -11.816  0.5120E+01  0.1531E+02
    -11.708  0.4945E+01  0.1585E+02
    -11.599  0.4935E+01  0.1638E+02
    -11.491  0.5031E+01  0.1692E+02
    -11.383  0.5089E+01  0.1747E+02
    -11.274  0.5250E+01  0.1803E+02
    -11.166  0.5506E+01  0.1861E+02
    -11.058  0.5902E+01  0.1923E+02
    -10.949  0.5791E+01  0.1986E+02
    -10.841  0.5751E+01  0.2048E+02
    -10.733  0.5816E+01  0.2111E+02
    -10.624  0.5254E+01  0.2173E+02
    -10.516  0.4530E+01  0.2224E+02
    -10.408  0.5141E+01  0.2276E+02
    -10.299  0.5333E+01  0.2334E+02
    -10.191  0.5443E+01  0.2392E+02
    -10.083  0.5644E+01  0.2452E+02
     -9.974  0.5894E+01  0.2514E+02
     -9.866  0.7340E+01  0.2585E+02
     -9.757  0.1047E+02  0.2681E+02
     -9.649  0.7072E+01  0.2775E+02
     -9.541  0.7228E+01  0.2842E+02
     -9.432  0.5952E+01  0.2912E+02
     -9.324  0.3613E+01  0.2964E+02
     -9.216  0.3242E+01  0.3001E+02
     -9.107  0.2871E+01  0.3034E+02
     -8.999  0.2500E+01  0.3063E+02
     -8.891  0.2455E+01  0.3089E+02
     -8.782  0.2951E+01  0.3121E+02
     -8.674  0.1954E+01  0.3148E+02
     -8.566  0.1623E+01  0.3164E+02
     -8.457  0.2522E+01  0.3187E+02
     -8.349  0.6892E+01  0.3230E+02
     -8.241  0.4420E+01  0.3303E+02
     -8.132  0.3913E+01  0.3348E+02
     -8.024  0.4246E+01  0.3392E+02
     -7.916  0.6805E+01  0.3455E+02
     -7.807  0.6255E+01  0.3532E+02
     -7.699  0.7319E+01  0.3606E+02
     -7.591  0.8432E+01  0.3691E+02
     -7.482  0.8095E+01  0.3786E+02
     -7.374  0.6291E+01  0.3861E+02
     -7.266  0.6028E+01  0.3928E+02
     -7.157  0.5769E+01  0.3992E+02
     -7.049  0.5539E+01  0.4053E+02
     -6.940  0.5348E+01  0.4112E+02
     -6.832  0.5168E+01  0.4169E+02
     -6.724  0.4972E+01  0.4224E+02
     -6.615  0.4848E+01  0.4277E+02
     -6.507  0.4821E+01  0.4329E+02
     -6.399  0.4790E+01  0.4381E+02
     -6.290  0.4625E+01  0.4433E+02
     -6.182  0.4427E+01  0.4482E+02
     -6.074  0.4176E+01  0.4529E+02
     -5.965  0.4065E+01  0.4570E+02
     -5.857  0.4327E+01  0.4614E+02
     -5.749  0.4957E+01  0.4665E+02
     -5.640  0.5773E+01  0.4723E+02
     -5.532  0.6623E+01  0.4790E+02
     -5.424  0.1063E+02  0.4883E+02
     -5.315  0.8575E+01  0.4988E+02
     -5.207  0.6267E+01  0.5068E+02
     -5.099  0.3959E+01  0.5124E+02
     -4.990  0.2610E+01  0.5157E+02
     -4.882  0.3068E+01  0.5186E+02
     -4.774  0.4326E+01  0.5226E+02
     -4.665  0.5670E+01  0.5280E+02
     -4.557  0.7324E+01  0.5350E+02
     -4.449  0.8019E+01  0.5436E+02
     -4.340  0.6791E+01  0.5516E+02
     -4.232  0.5652E+01  0.5583E+02
     -4.123  0.7278E+01  0.5648E+02
     -4.015  0.7278E+01  0.5729E+02
     -3.907  0.6756E+01  0.5805E+02
     -3.798  0.6523E+01  0.5876E+02
     -3.690  0.6426E+01  0.5947E+02
     -3.582  0.8326E+01  0.6021E+02
     -3.473  0.1501E+02  0.6140E+02
     -3.365  0.8741E+01  0.6241E+02
     -3.257  0.7872E+01  0.6331E+02
     -3.148  0.7177E+01  0.6413E+02
     -3.040  0.6860E+01  0.6487E+02
     -2.932  0.7717E+01  0.6566E+02
     -2.823  0.8825E+01  0.6655E+02
     -2.715  0.1112E+02  0.6760E+02
     -2.607  0.1412E+02  0.6901E+02
     -2.498  0.1170E+02  0.7050E+02
     -2.390  0.1276E+02  0.7176E+02
     -2.282  0.1240E+02  0.7310E+02
     -2.173  0.1494E+02  0.7449E+02
     -2.065  0.1289E+02  0.7606E+02
     -1.957  0.1943E+02  0.7761E+02
     -1.848  0.1122E+02  0.7932E+02
     -1.740  0.1707E+02  0.8060E+02
     -1.632  0.1702E+02  0.8271E+02
     -1.523  0.1868E+02  0.8469E+02
     -1.415  0.1444E+02  0.8646E+02
     -1.306  0.1187E+02  0.8789E+02
     -1.198  0.1074E+02  0.8909E+02
     -1.090  0.8870E+01  0.9016E+02
     -0.981  0.7744E+01  0.9104E+02
     -0.873  0.1137E+02  0.9207E+02
     -0.765  0.1338E+02  0.9348E+02
     -0.656  0.1867E+02  0.9504E+02
     -0.548  0.8704E+01  0.9633E+02
     -0.440  0.9888E+01  0.9734E+02
     -0.331  0.1079E+02  0.9847E+02
     -0.223  0.1063E+02  0.9960E+02
     -0.115  0.1079E+02  0.1008E+03
     -0.006  0.9407E+01  0.1019E+03
      0.102  0.9695E+01  0.1029E+03
      0.210  0.9524E+01  0.1040E+03
      0.319  0.9729E+01  0.1050E+03
      0.427  0.9289E+01  0.1060E+03
      0.535  0.9263E+01  0.1070E+03
      0.644  0.9407E+01  0.1081E+03
      0.752  0.9373E+01  0.1091E+03
      0.860  0.9232E+01  0.1101E+03
      0.969  0.9338E+01  0.1111E+03
      1.077  0.9214E+01  0.1121E+03
      1.185  0.9534E+01  0.1131E+03
      1.294  0.9441E+01  0.1141E+03
      1.402  0.9442E+01  0.1152E+03
      1.511  0.9512E+01  0.1162E+03
      1.619  0.6677E+01  0.1171E+03
      1.727  0.6483E+01  0.1178E+03
      1.836  0.5878E+01  0.1185E+03
      1.944  0.4643E+01  0.1191E+03
      2.052  0.3842E+01  0.1195E+03
      2.161  0.4815E+01  0.1200E+03
      2.269  0.8197E+01  0.1206E+03
      2.377  0.9988E+01  0.1216E+03
      2.486  0.5618E+01  0.1223E+03
      2.594  0.8417E+01  0.1231E+03
      2.702  0.6421E+01  0.1240E+03
      2.811  0.5067E+01  0.1246E+03
      2.919  0.4228E+01  0.1251E+03
      3.027  0.3622E+01  0.1255E+03
      3.136  0.3258E+01  0.1259E+03
      3.244  0.3115E+01  0.1262E+03
      3.352  0.2733E+01  0.1265E+03
      3.461  0.2335E+01  0.1268E+03
      3.569  0.1997E+01  0.1270E+03
      3.677  0.1766E+01  0.1272E+03
      3.786  0.1527E+01  0.1274E+03
      3.894  0.1288E+01  0.1276E+03
      4.002  0.1056E+01  0.1277E+03
      4.111  0.8687E+00  0.1278E+03
      4.219  0.6533E+00  0.1279E+03
      4.328  0.4526E+00  0.1279E+03
      4.436  0.2645E+00  0.1280E+03
      4.544  0.8657E-01  0.1280E+03
      4.653  0.4309E-01  0.1280E+03
      4.761  0.1710E+00  0.1280E+03
      4.869  0.3103E+00  0.1280E+03
      4.978  0.4642E+00  0.1281E+03
      5.086  0.6347E+00  0.1281E+03
      5.194  0.8312E+00  0.1282E+03
      5.303  0.1109E+01  0.1283E+03
      5.411  0.1471E+01  0.1285E+03
      5.519  0.1838E+01  0.1286E+03
      5.628  0.2189E+01  0.1289E+03
      5.736  0.2608E+01  0.1291E+03
      5.844  0.3145E+01  0.1294E+03
      5.953  0.3731E+01  0.1298E+03
      6.061  0.4710E+01  0.1303E+03
      6.169  0.1067E+02  0.1311E+03
      6.278  0.8478E+01  0.1321E+03
      6.386  0.7934E+01  0.1330E+03
      6.494  0.8084E+01  0.1339E+03
      6.603  0.6785E+01  0.1347E+03
      6.711  0.6093E+01  0.1354E+03
      6.820  0.6011E+01  0.1361E+03
      6.928  0.5404E+01  0.1367E+03
      7.036  0.4733E+01  0.1372E+03
      7.145  0.3966E+01  0.1377E+03
      7.253  0.3557E+01  0.1381E+03
      7.361  0.3622E+01  0.1385E+03
      7.470  0.4068E+01  0.1389E+03
      7.578  0.4477E+01  0.1394E+03
      7.686  0.4791E+01  0.1399E+03
      7.795  0.4659E+01  0.1404E+03
      7.903  0.4495E+01  0.1409E+03
      8.011  0.4336E+01  0.1414E+03
      8.120  0.4172E+01  0.1418E+03
      8.228  0.3986E+01  0.1423E+03
      8.336  0.3818E+01  0.1427E+03
      8.445  0.3675E+01  0.1431E+03
      8.553  0.3573E+01  0.1435E+03
      8.661  0.3504E+01  0.1439E+03
      8.770  0.3402E+01  0.1442E+03
      8.878  0.3329E+01  0.1446E+03
      8.986  0.3553E+01  0.1450E+03
      9.095  0.3768E+01  0.1454E+03
      9.203  0.3972E+01  0.1458E+03
      9.311  0.4078E+01  0.1462E+03
      9.420  0.4169E+01  0.1467E+03
      9.528  0.3991E+01  0.1471E+03
      9.637  0.3944E+01  0.1475E+03
      9.745  0.3933E+01  0.1480E+03
      9.853  0.3929E+01  0.1484E+03
      9.962  0.3944E+01  0.1488E+03
     10.070  0.3968E+01  0.1493E+03
     10.178  0.4022E+01  0.1497E+03
     10.287  0.4094E+01  0.1501E+03
     10.395  0.4229E+01  0.1506E+03
     10.503  0.4313E+01  0.1510E+03
     10.612  0.5593E+01  0.1516E+03
     10.720  0.5038E+01  0.1522E+03
     10.828  0.4912E+01  0.1528E+03
     10.937  0.4650E+01  0.1533E+03
     11.045  0.4983E+01  0.1538E+03
     11.153  0.3759E+01  0.1542E+03
     11.262  0.3473E+01  0.1546E+03
     11.370  0.3686E+01  0.1550E+03
     11.478  0.4257E+01  0.1555E+03
     11.587  0.2818E+01  0.1559E+03
     11.695  0.2667E+01  0.1561E+03
     11.803  0.3789E+01  0.1565E+03
     11.912  0.6920E+01  0.1570E+03
     12.020  0.8577E+01  0.1578E+03
     12.128  0.1131E+02  0.1589E+03
     12.237  0.1344E+02  0.1602E+03
     12.345  0.1395E+02  0.1618E+03
     12.454  0.1284E+02  0.1633E+03
     12.562  0.9885E+01  0.1645E+03
     12.670  0.7102E+01  0.1654E+03
     12.779  0.5988E+01  0.1661E+03
     12.887  0.5472E+01  0.1667E+03
     12.995  0.4967E+01  0.1673E+03
     13.104  0.2639E+01  0.1677E+03
     13.212  0.1356E+01  0.1679E+03
     13.320  0.3583E+00  0.1680E+03
     13.429  0.1059E-02  0.1680E+03
     13.537  0.0000E+00  0.1680E+03
     13.645  0.0000E+00  0.1680E+03
     13.754  0.0000E+00  0.1680E+03
     13.862  0.0000E+00  0.1680E+03
     13.970  0.0000E+00  0.1680E+03
     14.079  0.0000E+00  0.1680E+03
     14.187  0.0000E+00  0.1680E+03
     14.295  0.0000E+00  0.1680E+03
     14.404  0.0000E+00  0.1680E+03
     14.512  0.0000E+00  0.1680E+03
     14.620  0.0000E+00  0.1680E+03
     14.729  0.0000E+00  0.1680E+03
     14.837  0.0000E+00  0.1680E+03
     14.945  0.0000E+00  0.1680E+03
     15.054  0.0000E+00  0.1680E+03
     15.162  0.0000E+00  0.1680E+03
     15.271  0.0000E+00  0.1680E+03
     15.379  0.0000E+00  0.1680E+03
     15.487  0.0000E+00  0.1680E+03
