 running on    6 total cores
 distrk:  each k-point on    6 cores,    1 groups
 distr:  one band on    1 cores,    6 groups
 using from now: INCAR     
 vasp.5.3.5 31Mar14 (build Nov 02 2014 15:17:37) complex                        
  
 POSCAR found :  1 types and      32 ions
 scaLAPACK will be used

 ----------------------------------------------------------------------------- 
|                                                                             |
|           W    W    AA    RRRRR   N    N  II  N    N   GGGG   !!!           |
|           W    W   A  A   R    R  NN   N  II  NN   N  G    G  !!!           |
|           W    W  A    A  R    R  N N  N  II  N N  N  G       !!!           |
|           W WW W  AAAAAA  RRRRR   N  N N  II  N  N N  G  GGG   !            |
|           WW  WW  A    A  R   R   N   NN  II  N   NN  G    G                |
|           W    W  A    A  R    R  N    N  II  N    N   GGGG   !!!           |
|                                                                             |
|      For optimal performance we recommend to set                            |
|        NCORE= 4 - approx SQRT( number of cores)                             |
|      NCORE specifies how many cores store one orbital (NPAR=cpu/NCORE).     |
|      This setting can  greatly improve the performance of VASP for DFT.     |
|      The default, NPAR=number of cores might be grossly inefficient         |
|      on modern multi-core architectures or massively parallel machines.     |
|      Do your own testing !!!!                                               |
|      Unfortunately you need to use the default for GW and RPA calculations. |
|      (for HF NCORE is supported but not extensively tested yet)             |
|                                                                             |
 ----------------------------------------------------------------------------- 


 ----------------------------------------------------------------------------- 
|                                                                             |
|  ADVICE TO THIS USER RUNNING 'VASP/VAMP'   (HEAR YOUR MASTER'S VOICE ...):  |
|                                                                             |
|      You have a (more or less) 'large supercell' and for larger cells       |
|      it might be more efficient to use real space projection operators      |
|      So try LREAL= Auto  in the INCAR   file.                               |
|      Mind: If you want to do a very accurate calculations keep the          |
|      reciprocal projection scheme          (i.e. LREAL=.FALSE.)             |
|                                                                             |
 ----------------------------------------------------------------------------- 

 LDA part: xc-table for Pade appr. of Perdew
 POSCAR, INCAR and KPOINTS ok, starting setup
 WARNING: small aliasing (wrap around) errors must be expected
 FFT: planning ...
 WAVECAR not read
 WARNING: random wavefunctions but no delay for mixing, default for NELMDL
 entering main loop
       N       E                     dE             d eps       ncg     rms          rms(c)
DAV:   1     0.595837115708E+03    0.59584E+03   -0.71660E+04 27384   0.160E+03
DAV:   2    -0.262894459938E+03   -0.85873E+03   -0.82795E+03 34260   0.312E+02
DAV:   3    -0.312763323966E+03   -0.49869E+02   -0.49403E+02 33312   0.756E+01
DAV:   4    -0.313709255792E+03   -0.94593E+00   -0.94420E+00 35136   0.113E+01
DAV:   5    -0.313736295935E+03   -0.27040E-01   -0.27029E-01 35124   0.178E+00    0.221E+01
DAV:   6    -0.299247333875E+03    0.14489E+02   -0.14940E+01 31296   0.107E+01    0.116E+01
DAV:   7    -0.294649161737E+03    0.45982E+01   -0.15722E+01 30852   0.110E+01    0.194E+00
DAV:   8    -0.294714047974E+03   -0.64886E-01   -0.40294E-01 30900   0.184E+00    0.312E-01
DAV:   9    -0.294715164641E+03   -0.11167E-02   -0.26247E-02 32772   0.493E-01    0.157E-01
DAV:  10    -0.294715448295E+03   -0.28365E-03   -0.41315E-03 32496   0.208E-01    0.998E-02
DAV:  11    -0.294716286752E+03   -0.83846E-03   -0.47657E-03 34164   0.180E-01    0.751E-02
DAV:  12    -0.294716441377E+03   -0.15463E-03   -0.86414E-04 31020   0.969E-02    0.541E-02
DAV:  13    -0.294716408295E+03    0.33083E-04   -0.20691E-03 42528   0.119E-01    0.445E-02
DAV:  14    -0.294716428167E+03   -0.19872E-04   -0.11760E-03 32316   0.813E-02    0.253E-02
DAV:  15    -0.294716411325E+03    0.16841E-04   -0.91785E-05 31440   0.287E-02    0.116E-02
DAV:  16    -0.294716409349E+03    0.19763E-05   -0.39523E-05 36516   0.168E-02    0.457E-03
DAV:  17    -0.294716412089E+03   -0.27396E-05   -0.32718E-05 28524   0.123E-02    0.111E-02
DAV:  18    -0.294716409596E+03    0.24923E-05   -0.53107E-05 22080   0.134E-02    0.461E-03
DAV:  19    -0.294716409158E+03    0.43852E-06   -0.27981E-06 19284   0.418E-03
   1 F= -.29967068E+03 E0= -.29967068E+03  d E =0.000000E+00
