   32   32    1    1
  0.9254429E+01  0.4932875E-09  0.4932875E-09  0.1405931E-08  0.5000000E-15
  1.000000000000000E-004
  CAR 
 graphite                                
    128    163     84
 
  0.0000000E+00  0.0000000E+00  0.0000000E+00  0.3086420E-02
    1      -15.313875
    2      -15.213119
    3      -15.212318
    4      -15.106533
    5      -10.015129
    6      -10.006511
    7      -10.003866
    8       -9.975601
    9       -9.975517
   10       -9.967770
   11       -9.963875
   12       -9.963842
   13       -9.962351
   14       -9.940159
   15       -9.929831
   16       -9.926934
   17       -8.952039
   18       -8.948223
   19       -8.946325
   20       -8.929644
   21       -8.925769
   22       -8.924124
   23       -8.923118
   24       -8.923091
   25       -8.920102
   26       -8.894364
   27       -8.889937
   28       -8.887835
   29       -4.040456
   30       -3.338115
   31       -3.336636
   32       -2.499697
   33       -2.125124
   34       -2.122219
   35       -2.109290
   36       -2.105300
   37       -2.105049
   38       -2.105044
   39       -2.102398
   40       -2.089372
   41       -2.087833
   42       -2.086333
   43       -2.083901
   44       -2.067691
   45        1.257677
   46        1.267938
   47        1.271588
   48        1.275841
   49        1.283169
   50        1.287843
   51        1.290517
   52        1.299693
   53        1.623990
   54        1.624546
   55        1.626491
   56        1.920521
   57        1.922145
   58        1.924360
   59        1.928396
   60        1.928522
   61        1.929710
   62        2.146414
   63        2.157853
   64        2.160433
   65        5.785736
   66        5.787818
   67        5.789575
   68        5.934032
   69        5.939396
   70        5.943897
   71        5.944950
   72        5.945149
   73        5.949555
   74        6.339585
   75        6.352120
   76        6.354496
   77        8.232136
   78       10.521798
   79       10.524927
   80       11.527751
   81       11.531348
   82       11.564981
   83       11.665275
   84       11.670994
 
  0.1111111E+00  0.6938894E-17  0.0000000E+00  0.6172840E-02
    1      -15.240409
    2      -15.140047
    3      -15.139248
    4      -15.033983
    5      -10.790836
    6      -10.720749
    7      -10.719745
    8      -10.647669
    9      -10.256144
   10      -10.247800
   11      -10.196258
   12      -10.195603
   13      -10.187067
   14      -10.186769
   15      -10.135039
   16      -10.125949
   17       -8.636201
   18       -8.629609
   19       -8.588806
   20       -8.585582
   21       -8.580583
   22       -8.580039
   23       -8.534508
   24       -8.527631
   25       -8.113218
   26       -8.058949
   27       -8.057801
   28       -8.001243
   29       -3.951321
   30       -3.250999
   31       -3.249518
   32       -2.415362
   33       -2.348666
   34       -2.330628
   35       -2.328626
   36       -2.328120
   37       -2.310331
   38       -2.310274
   39       -2.307445
   40       -2.289486
   41       -2.051756
   42       -2.035700
   43       -2.032599
   44       -2.016522
   45        0.978383
   46        0.985515
   47        0.988237
   48        0.996602
   49        1.058894
   50        1.106783
   51        1.115507
   52        1.119469
   53        1.125122
   54        1.499060
   55        1.501915
   56        1.516536
   57        1.519601
   58        1.869087
   59        1.870547
   60        1.875601
   61        1.877197
   62        1.945100
   63        2.176401
   64        2.187594
   65        5.879696
   66        5.882458
   67        6.065039
   68        6.070301
   69        6.075194
   70        6.076533
   71        6.211712
   72        6.473634
   73        6.484537
   74        6.485352
   75        6.488693
   76        6.938191
   77        8.322670
   78       10.604174
   79       10.607272
   80       11.569108
   81       11.702267
   82       11.704289
   83       11.840575
   84       11.864337
 
  0.2222222E+00  0.1387779E-16  0.0000000E+00  0.6172840E-02
    1      -15.020221
    2      -14.921252
    3      -14.920463
    4      -14.816685
    5      -11.798947
    6      -11.720164
    7      -11.719420
    8      -11.637869
    9      -10.599941
   10      -10.594193
   11      -10.531531
   12      -10.530398
   13      -10.524973
   14      -10.524675
   15      -10.459755
   16      -10.453635
   17       -7.952964
   18       -7.943642
   19       -7.901186
   20       -7.898322
   21       -7.890692
   22       -7.890018
   23       -7.844480
   24       -7.835213
   25       -6.789109
   26       -6.738521
   27       -6.737505
   28       -6.685680
   29       -3.684824
   30       -2.990714
   31       -2.989219
   32       -2.953324
   33       -2.935225
   34       -2.928993
   35       -2.928421
   36       -2.911191
   37       -2.909695
   38       -2.903428
   39       -2.885145
   40       -2.163459
   41       -1.837029
   42       -1.821270
   43       -1.818039
   44       -1.802384
   45        0.058370
   46        0.154885
   47        0.167275
   48        0.170558
   49        0.183752
   50        0.610230
   51        0.612270
   52        0.688755
   53        0.698961
   54        0.703418
   55        0.711724
   56        1.230527
   57        1.310018
   58        1.313372
   59        1.748309
   60        1.749286
   61        1.753525
   62        1.755180
   63        2.190919
   64        2.198716
   65        6.157188
   66        6.161955
   67        6.398770
   68        6.403816
   69        6.408426
   70        6.409834
   71        6.787175
   72        6.795396
   73        7.377622
   74        7.707197
   75        7.709440
   76        8.150314
   77        8.594869
   78       10.850756
   79       10.853751
   80       11.680627
   81       11.809977
   82       11.812073
   83       11.918714
   84       12.693963
 
  0.3333333E+00  0.0000000E+00  0.0000000E+00  0.6172840E-02
    1      -14.654482
    2      -14.557773
    3      -14.556997
    4      -14.455795
    5      -12.709875
    6      -12.625254
    7      -12.624548
    8      -12.536463
    9      -10.855118
   10      -10.851509
   11      -10.783473
   12      -10.781985
   13      -10.778854
   14      -10.778637
   15      -10.707887
   16      -10.704180
   17       -7.146573
   18       -7.135880
   19       -7.099373
   20       -7.096390
   21       -7.087689
   22       -7.086719
   23       -7.047939
   24       -7.037484
   25       -5.358041
   26       -5.314638
   27       -5.313435
   28       -5.269261
   29       -3.766616
   30       -3.750756
   31       -3.737572
   32       -3.737267
   33       -3.722235
   34       -3.720487
   35       -3.707334
   36       -3.691212
   37       -3.243799
   38       -2.560264
   39       -2.558766
   40       -1.747866
   41       -1.488519
   42       -1.473347
   43       -1.469915
   44       -1.454839
   45       -1.027780
   46       -1.007991
   47       -1.005616
   48       -0.985715
   49       -0.951592
   50       -0.343434
   51       -0.341693
   52        0.127758
   53        0.139372
   54        0.143661
   55        0.154511
   56        0.362676
   57        1.128745
   58        1.131482
   59        1.624640
   60        1.625371
   61        1.628260
   62        1.630203
   63        2.164009
   64        2.168862
   65        6.534827
   66        6.540361
   67        6.789479
   68        6.794353
   69        6.797592
   70        6.799096
   71        7.112064
   72        7.117024
   73        8.886273
   74        9.048359
   75        9.184053
   76        9.186325
   77        9.571263
   78       11.252811
   79       11.255598
   80       11.429544
   81       11.903000
   82       11.970787
   83       11.973153
   84       12.189416
 
  0.4444444E+00  0.2775558E-16  0.0000000E+00  0.6172840E-02
    1      -14.145084
    2      -14.051585
    3      -14.050816
    4      -13.953095
    5      -13.495131
    6      -13.405615
    7      -13.404911
    8      -13.311611
    9      -10.986522
   10      -10.984543
   11      -10.914045
   12      -10.912020
   13      -10.910970
   14      -10.910483
   15      -10.836805
   16      -10.834834
   17       -6.401839
   18       -6.393940
   19       -6.368662
   20       -6.365024
   21       -6.360117
   22       -6.358244
   23       -6.331724
   24       -6.324665
   25       -4.516465
   26       -4.507686
   27       -4.492355
   28       -4.491540
   29       -4.483797
   30       -4.481593
   31       -4.465101
   32       -4.455522
   33       -3.880060
   34       -3.844736
   35       -3.843145
   36       -3.807110
   37       -2.633344
   38       -2.410914
   39       -2.383742
   40       -2.381672
   41       -2.353584
   42       -1.965784
   43       -1.964169
   44       -1.863161
   45       -1.219383
   46       -1.217727
   47       -1.176138
   48       -1.022645
   49       -1.008356
   50       -1.004633
   51       -0.990734
   52       -0.468022
   53       -0.462927
   54       -0.454933
   55       -0.451019
   56       -0.438170
   57        1.027628
   58        1.029589
   59        1.550155
   60        1.551372
   61        1.552469
   62        1.555010
   63        2.135754
   64        2.138439
   65        6.826396
   66        6.829933
   67        7.056457
   68        7.061473
   69        7.062393
   70        7.063605
   71        7.301724
   72        7.304571
   73        9.682167
   74       10.486417
   75       10.502076
   76       10.717279
   77       10.720611
   78       11.044938
   79       11.715804
   80       11.721972
   81       12.077706
   82       12.119335
   83       12.123016
   84       12.124182
 
  0.0000000E+00  0.1111111E+00  0.0000000E+00  0.6172840E-02
    1      -15.240410
    2      -15.140050
    3      -15.139248
    4      -15.033984
    5      -10.790762
    6      -10.720586
    7      -10.719742
    8      -10.647577
    9      -10.256150
   10      -10.248075
   11      -10.196252
   12      -10.195599
   13      -10.187631
   14      -10.186798
   15      -10.135004
   16      -10.126317
   17       -8.636325
   18       -8.628448
   19       -8.589087
   20       -8.585582
   21       -8.580045
   22       -8.578032
   23       -8.534590
   24       -8.526308
   25       -8.114111
   26       -8.059641
   27       -8.058936
   28       -8.002177
   29       -3.951317
   30       -3.250992
   31       -3.249515
   32       -2.415355
   33       -2.350006
   34       -2.331845
   35       -2.329063
   36       -2.328624
   37       -2.310460
   38       -2.310277
   39       -2.308557
   40       -2.289658
   41       -2.050236
   42       -2.033269
   43       -2.032598
   44       -2.015485
   45        0.976192
   46        0.983385
   47        0.985514
   48        0.992486
   49        1.059578
   50        1.112316
   51        1.119470
   52        1.119694
   53        1.126791
   54        1.500648
   55        1.502115
   56        1.516492
   57        1.518680
   58        1.868949
   59        1.870645
   60        1.873892
   61        1.876534
   62        1.946252
   63        2.176454
   64        2.186185
   65        5.880224
   66        5.883989
   67        6.065375
   68        6.070284
   69        6.075945
   70        6.079472
   71        6.209857
   72        6.473563
   73        6.484102
   74        6.485447
   75        6.487696
   76        6.936570
   77        8.322675
   78       10.604190
   79       10.607287
   80       11.569575
   81       11.703165
   82       11.704378
   83       11.841682
   84       11.866978
 
  0.1111111E+00  0.1111111E+00  0.0000000E+00  0.6172840E-02
    1      -15.093398
    2      -14.994016
    3      -14.993224
    4      -14.888938
    5      -11.254587
    6      -11.251665
    7      -11.181266
    8      -11.177591
    9      -11.177569
   10      -11.175453
   11      -11.101707
   12      -11.098785
   13       -9.826264
   14       -9.787637
   15       -9.786997
   16       -9.752896
   17       -8.768087
   18       -8.746528
   19       -8.742893
   20       -8.713065
   21       -7.431546
   22       -7.428502
   23       -7.379741
   24       -7.376704
   25       -7.376684
   26       -7.373490
   27       -7.323049
   28       -7.319788
   29       -3.773384
   30       -3.077195
   31       -3.075708
   32       -3.010212
   33       -2.986276
   34       -2.984837
   35       -2.960191
   36       -2.247011
   37       -2.205770
   38       -2.202701
   39       -2.187973
   40       -2.183702
   41       -2.183698
   42       -2.183021
   43       -2.166037
   44       -2.163833
   45        0.449637
   46        0.456743
   47        0.459641
   48        0.468347
   49        0.634840
   50        0.637346
   51        0.791154
   52        0.799941
   53        0.803624
   54        0.808785
   55        1.139330
   56        1.142902
   57        1.142980
   58        1.144462
   59        1.688898
   60        1.691298
   61        1.891527
   62        2.186809
   63        2.189082
   64        2.409278
   65        5.758693
   66        5.860951
   67        5.865827
   68        6.188672
   69        6.715009
   70        6.717588
   71        7.025569
   72        7.027460
   73        7.027782
   74        7.031039
   75        7.465757
   76        7.468127
   77        8.504322
   78       10.769387
   79       10.772420
   80       11.939742
   81       11.943867
   82       12.072484
   83       12.077461
   84       12.080401
 
  0.2222222E+00  0.1111111E+00  0.0000000E+00  0.6172840E-02
    1      -14.800374
    2      -14.702770
    3      -14.701992
    4      -14.599758
    5      -12.217648
    6      -12.136195
    7      -12.135448
    8      -12.050937
    9      -11.594530
   10      -11.517283
   11      -11.516470
   12      -11.436262
   13       -9.871163
   14       -9.813248
   15       -9.813078
   16       -9.754956
   17       -8.290385
   18       -8.246559
   19       -8.243378
   20       -8.196210
   21       -6.648254
   22       -6.600135
   23       -6.599066
   24       -6.549754
   25       -6.049983
   26       -6.003459
   27       -6.002417
   28       -5.955043
   29       -3.916251
   30       -3.886305
   31       -3.884906
   32       -3.854195
   33       -3.419461
   34       -2.731695
   35       -2.730154
   36       -2.728340
   37       -2.704987
   38       -2.704632
   39       -2.680699
   40       -1.918847
   41       -1.913116
   42       -1.901528
   43       -1.898360
   44       -1.880969
   45       -0.502148
   46       -0.489354
   47       -0.485885
   48       -0.472518
   49       -0.392370
   50        0.189794
   51        0.191714
   52        0.248952
   53        0.259473
   54        0.264204
   55        0.272310
   56        0.308587
   57        0.853850
   58        0.855371
   59        0.858487
   60        1.468088
   61        2.036824
   62        2.389449
   63        2.391585
   64        2.696311
   65        5.751132
   66        5.868509
   67        5.873199
   68        6.144660
   69        7.296847
   70        7.595304
   71        7.597433
   72        7.970157
   73        8.084944
   74        8.397500
   75        8.399327
   76        8.796720
   77        8.868572
   78       11.098212
   79       11.101097
   80       11.969605
   81       12.163016
   82       12.210540
   83       12.212631
   84       12.479051
 
  0.3333333E+00  0.1111111E+00  0.0000000E+00  0.6172840E-02
    1      -14.362686
    2      -14.267797
    3      -14.267036
    4      -14.167818
    5      -13.066244
    6      -12.979417
    7      -12.978690
    8      -12.888330
    9      -11.803017
   10      -11.724283
   11      -11.723436
   12      -11.641750
   13      -10.012702
   14       -9.947740
   15       -9.947225
   16       -9.880723
   17       -7.524204
   18       -7.480573
   19       -7.477526
   20       -7.432809
   21       -5.852416
   22       -5.813311
   23       -5.811566
   24       -5.771925
   25       -4.853977
   26       -4.822391
   27       -4.820852
   28       -4.788272
   29       -4.603164
   30       -4.564535
   31       -4.563292
   32       -4.523895
   33       -3.426161
   34       -3.400468
   35       -3.400020
   36       -3.373409
   37       -2.893344
   38       -2.218944
   39       -2.217445
   40       -1.745279
   41       -1.723604
   42       -1.720699
   43       -1.699251
   44       -1.503118
   45       -1.486693
   46       -1.483368
   47       -1.467014
   48       -1.418958
   49       -1.360310
   50       -0.733953
   51       -0.732325
   52       -0.372217
   53       -0.359584
   54       -0.355001
   55       -0.343107
   56       -0.002220
   57        0.102240
   58        0.670315
   59        0.671572
   60        1.319212
   61        2.047996
   62        2.480020
   63        2.481778
   64        2.922077
   65        5.789812
   66        5.987055
   67        5.991152
   68        6.245116
   69        7.800268
   70        8.048937
   71        8.051536
   72        8.323675
   73        9.413063
   74        9.644684
   75        9.902105
   76        9.904206
   77       10.234989
   78       11.026838
   79       11.570882
   80       11.573745
   81       12.326063
   82       12.362409
   83       12.364827
   84       12.580786
 
  0.4444444E+00  0.1111111E+00  0.0000000E+00  0.6172840E-02
    1      -13.784879
    2      -13.781995
    3      -13.694859
    4      -13.691898
    5      -13.690928
    6      -13.689345
    7      -13.597526
    8      -13.594625
    9      -11.873648
   10      -11.794330
   11      -11.793465
   12      -11.711249
   13      -10.067012
   14      -10.000871
   15      -10.000189
   16       -9.932141
   17       -7.020410
   18       -6.993475
   19       -6.990562
   20       -6.964675
   21       -5.387096
   22       -5.383361
   23       -5.366448
   24       -5.366097
   25       -5.364017
   26       -5.361797
   27       -5.344361
   28       -5.340698
   29       -3.845166
   30       -3.829984
   31       -3.827807
   32       -3.810229
   33       -3.147237
   34       -3.144253
   35       -3.116627
   36       -3.116389
   37       -3.114434
   38       -3.110667
   39       -3.084542
   40       -3.080619
   41       -2.203827
   42       -2.201471
   43       -1.549909
   44       -1.546858
   45       -1.546057
   46       -1.544575
   47       -0.980677
   48       -0.972951
   49       -0.964058
   50       -0.958213
   51       -0.956459
   52       -0.956035
   53       -0.943727
   54       -0.940210
   55       -0.776691
   56       -0.774079
   57        0.031693
   58        0.606722
   59        0.607978
   60        1.266622
   61        2.041352
   62        2.503276
   63        2.504664
   64        3.001468
   65        5.822216
   66        6.054845
   67        6.058094
   68        6.301739
   69        8.013601
   70        8.225279
   71        8.228406
   72        8.440281
   73       10.135072
   74       10.136614
   75       11.223458
   76       11.226744
   77       11.376204
   78       11.380508
   79       11.381774
   80       11.386926
   81       11.668013
   82       11.670918
   83       12.220130
   84       12.223293
 
 -0.4444444E+00  0.1111111E+00  0.0000000E+00  0.6172840E-02
    1      -14.363451
    2      -14.268576
    3      -14.267793
    4      -14.168636
    5      -13.065032
    6      -12.978197
    7      -12.977504
    8      -12.887108
    9      -11.804799
   10      -11.726018
   11      -11.725151
   12      -11.643544
   13      -10.009979
   14       -9.945026
   15       -9.944280
   16       -9.877772
   17       -7.515817
   18       -7.471478
   19       -7.470053
   20       -7.424640
   21       -5.863748
   22       -5.825099
   23       -5.821963
   24       -5.782750
   25       -4.866162
   26       -4.834049
   27       -4.833944
   28       -4.800831
   29       -4.605368
   30       -4.566911
   31       -4.565333
   32       -4.526051
   33       -3.411657
   34       -3.386648
   35       -3.384540
   36       -3.358533
   37       -2.894115
   38       -2.219656
   39       -2.218196
   40       -1.745156
   41       -1.722998
   42       -1.721428
   43       -1.699628
   44       -1.501007
   45       -1.484763
   46       -1.481095
   47       -1.464881
   48       -1.419658
   49       -1.359222
   50       -0.732948
   51       -0.731243
   52       -0.371700
   53       -0.359380
   54       -0.355981
   55       -0.343745
   56       -0.001226
   57        0.100759
   58        0.668635
   59        0.669927
   60        1.317212
   61        2.049073
   62        2.482737
   63        2.483977
   64        2.927042
   65        5.791643
   66        5.990785
   67        5.993202
   68        6.247112
   69        7.794865
   70        8.043812
   71        8.047379
   72        8.320810
   73        9.412048
   74        9.644856
   75        9.901602
   76        9.903894
   77       10.234154
   78       11.028349
   79       11.570204
   80       11.573056
   81       12.322729
   82       12.359378
   83       12.362465
   84       12.577342
 
 -0.3333333E+00  0.1111111E+00  0.0000000E+00  0.6172840E-02
    1      -14.800920
    2      -14.703322
    3      -14.702528
    4      -14.600300
    5      -12.216227
    6      -12.134750
    7      -12.134049
    8      -12.049515
    9      -11.598237
   10      -11.520908
   11      -11.520063
   12      -11.439886
   13       -9.865229
   14       -9.807249
   15       -9.806482
   16       -9.748235
   17       -8.283442
   18       -8.238268
   19       -8.237370
   20       -8.188889
   21       -6.659842
   22       -6.612398
   23       -6.609741
   24       -6.561151
   25       -6.052302
   26       -6.005850
   27       -6.004674
   28       -5.957371
   29       -3.932080
   30       -3.901799
   31       -3.901218
   32       -3.870179
   33       -3.420003
   34       -2.732168
   35       -2.730684
   36       -2.710160
   37       -2.687368
   38       -2.685581
   39       -2.662221
   40       -1.917169
   41       -1.913625
   42       -1.899905
   43       -1.896524
   44       -1.879228
   45       -0.505860
   46       -0.492301
   47       -0.491267
   48       -0.477839
   49       -0.391227
   50        0.190869
   51        0.192891
   52        0.255316
   53        0.263903
   54        0.266875
   55        0.275398
   56        0.305851
   57        0.851028
   58        0.852425
   59        0.858742
   60        1.464049
   61        2.038127
   62        2.394465
   63        2.395796
   64        2.706171
   65        5.751773
   66        5.874810
   67        5.876675
   68        6.150769
   69        7.289683
   70        7.586945
   71        7.590808
   72        7.963807
   73        8.084577
   74        8.396583
   75        8.398685
   76        8.795601
   77        8.867828
   78       11.097565
   79       11.100446
   80       11.969368
   81       12.161781
   82       12.208028
   83       12.210508
   84       12.477366
 
 -0.2222222E+00  0.1111111E+00  0.0000000E+00  0.6172840E-02
    1      -15.093730
    2      -14.994353
    3      -14.993552
    4      -14.889273
    5      -11.258494
    6      -11.251464
    7      -11.183840
    8      -11.183063
    9      -11.176786
   10      -11.175984
   11      -11.105842
   12      -11.098737
   13       -9.816418
   14       -9.777065
   15       -9.776306
   16       -9.741419
   17       -8.764754
   18       -8.741444
   19       -8.740696
   20       -8.708988
   21       -7.440287
   22       -7.431668
   23       -7.388178
   24       -7.385685
   25       -7.378868
   26       -7.377818
   27       -7.331801
   28       -7.323262
   29       -3.773716
   30       -3.077512
   31       -3.076039
   32       -3.027960
   33       -3.003746
   34       -3.003002
   35       -2.978094
   36       -2.247331
   37       -2.203686
   38       -2.185689
   39       -2.183796
   40       -2.182513
   41       -2.165223
   42       -2.164559
   43       -2.163526
   44       -2.144763
   45        0.437790
   46        0.445461
   47        0.446770
   48        0.454107
   49        0.632576
   50        0.636929
   51        0.807153
   52        0.813067
   53        0.813491
   54        0.819874
   55        1.137234
   56        1.138831
   57        1.141954
   58        1.144339
   59        1.684369
   60        1.690410
   61        1.892730
   62        2.193234
   63        2.194691
   64        2.422189
   65        5.758056
   66        5.868732
   67        5.870382
   68        6.198569
   69        6.708944
   70        6.716685
   71        7.016649
   72        7.020754
   73        7.026553
   74        7.029238
   75        7.457473
   76        7.466485
   77        8.503864
   78       10.768958
   79       10.771989
   80       11.939920
   81       11.975880
   82       12.074716
   83       12.082436
   84       12.110648
 
 -0.1111111E+00  0.1111111E+00  0.0000000E+00  0.6172840E-02
    1      -15.240519
    2      -15.140160
    3      -15.139355
    4      -15.034093
    5      -10.798166
    6      -10.727981
    7      -10.727358
    8      -10.655198
    9      -10.247695
   10      -10.245558
   11      -10.188723
   12      -10.185467
   13      -10.185441
   14      -10.184340
   15      -10.126037
   16      -10.123796
   17       -8.631558
   18       -8.629775
   19       -8.583117
   20       -8.581715
   21       -8.581697
   22       -8.579472
   23       -8.529692
   24       -8.527831
   25       -8.121801
   26       -8.068291
   27       -8.065752
   28       -8.009874
   29       -3.951427
   30       -3.251098
   31       -3.249625
   32       -2.415461
   33       -2.350411
   34       -2.347647
   35       -2.332343
   36       -2.328231
   37       -2.328225
   38       -2.327889
   39       -2.310287
   40       -2.308331
   41       -2.030602
   42       -2.014032
   43       -2.012362
   44       -1.995548
   45        0.958978
   46        0.968954
   47        0.973368
   48        0.979727
   49        1.055322
   50        1.125410
   51        1.131646
   52        1.134612
   53        1.143477
   54        1.494756
   55        1.496519
   56        1.518510
   57        1.520511
   58        1.872435
   59        1.876789
   60        1.876907
   61        1.877595
   62        1.937699
   63        2.185739
   64        2.188232
   65        5.881429
   66        5.884253
   67        6.073896
   68        6.075393
   69        6.075592
   70        6.079838
   71        6.205430
   72        6.474614
   73        6.479127
   74        6.483987
   75        6.486370
   76        6.926688
   77        8.322520
   78       10.604040
   79       10.607136
   80       11.604069
   81       11.738051
   82       11.738535
   83       11.863968
   84       11.871744
 
 -0.1355253E-19  0.2222222E+00  0.0000000E+00  0.6172840E-02
    1      -15.020227
    2      -14.921264
    3      -14.920463
    4      -14.816691
    5      -11.798983
    6      -11.720231
    7      -11.719421
    8      -11.637902
    9      -10.600096
   10      -10.594157
   11      -10.531968
   12      -10.530399
   13      -10.524782
   14      -10.524561
   15      -10.459828
   16      -10.453588
   17       -7.953132
   18       -7.942627
   19       -7.901546
   20       -7.898322
   21       -7.890027
   22       -7.888298
   23       -7.844516
   24       -7.834000
   25       -6.789946
   26       -6.739246
   27       -6.738509
   28       -6.686574
   29       -3.684805
   30       -2.990683
   31       -2.989208
   32       -2.954638
   33       -2.935295
   34       -2.931230
   35       -2.928423
   36       -2.911191
   37       -2.909829
   38       -2.904567
   39       -2.885293
   40       -2.163432
   41       -1.835426
   42       -1.818759
   43       -1.818037
   44       -1.801326
   45        0.058791
   46        0.153265
   47        0.166386
   48        0.167274
   49        0.180610
   50        0.611107
   51        0.612473
   52        0.692924
   53        0.702813
   54        0.703420
   55        0.713137
   56        1.231205
   57        1.309635
   58        1.312815
   59        1.747740
   60        1.749002
   61        1.752929
   62        1.754425
   63        2.190807
   64        2.197530
   65        6.157415
   66        6.163746
   67        6.399212
   68        6.403803
   69        6.409333
   70        6.412514
   71        6.787425
   72        6.797206
   73        7.376191
   74        7.706204
   75        7.707885
   76        8.149088
   77        8.594881
   78       10.850812
   79       10.853804
   80       11.681197
   81       11.811077
   82       11.812101
   83       11.919254
   84       12.665371
 
  0.1111111E+00  0.2222222E+00  0.0000000E+00  0.6172840E-02
    1      -14.800379
    2      -14.702778
    3      -14.701992
    4      -14.599763
    5      -12.217699
    6      -12.136294
    7      -12.135450
    8      -12.050987
    9      -11.594494
   10      -11.517214
   11      -11.516469
   12      -11.436230
   13       -9.871154
   14       -9.813239
   15       -9.813071
   16       -9.754949
   17       -8.290325
   18       -8.246446
   19       -8.243378
   20       -8.196154
   21       -6.647311
   22       -6.599075
   23       -6.598190
   24       -6.548760
   25       -6.050906
   26       -6.004340
   27       -6.003450
   28       -5.956036
   29       -3.916321
   30       -3.886305
   31       -3.885060
   32       -3.854282
   33       -3.419447
   34       -2.731715
   35       -2.730213
   36       -2.729684
   37       -2.707547
   38       -2.704637
   39       -2.681860
   40       -1.917218
   41       -1.913095
   42       -1.898865
   43       -1.898358
   44       -1.879816
   45       -0.502791
   46       -0.489355
   47       -0.487755
   48       -0.474346
   49       -0.392021