 vasp.5.3.5 31Mar14 (build Nov 04 2014 22:34:45) complex                        
  
 executed on         atom-AMD-MKL date 2016.08.28  17:30:47
 running on    6 total cores
 distrk:  each k-point on    6 cores,    1 groups
 distr:  one band on NCORES_PER_BAND=   1 cores,    6 groups


--------------------------------------------------------------------------------------------------------


 INCAR:
 POTCAR:   PAW_PBE C 08Apr2002                    

 ----------------------------------------------------------------------------- 
|                                                                             |
|           W    W    AA    RRRRR   N    N  II  N    N   GGGG   !!!           |
|           W    W   A  A   R    R  NN   N  II  NN   N  G    G  !!!           |
|           W    W  A    A  R    R  N N  N  II  N N  N  G       !!!           |
|           W WW W  AAAAAA  RRRRR   N  N N  II  N  N N  G  GGG   !            |
|           WW  WW  A    A  R   R   N   NN  II  N   NN  G    G                |
|           W    W  A    A  R    R  N    N  II  N    N   GGGG   !!!           |
|                                                                             |
|      For optimal performance we recommend to set                            |
|        NCORE= 4 - approx SQRT( number of cores)                             |
|      NCORE specifies how many cores store one orbital (NPAR=cpu/NCORE).     |
|      This setting can  greatly improve the performance of VASP for DFT.     |
|      The default, NPAR=number of cores might be grossly inefficient         |
|      on modern multi-core architectures or massively parallel machines.     |
|      Do your own testing !!!!                                               |
|      Unfortunately you need to use the default for GW and RPA calculations. |
|      (for HF NCORE is supported but not extensively tested yet)             |
|                                                                             |
 ----------------------------------------------------------------------------- 

 POTCAR:   PAW_PBE C 08Apr2002                    
   VRHFIN =C: s2p2                                                              
   LEXCH  = PE                                                                  
   EATOM  =   147.1560 eV,   10.8157 Ry                                         
                                                                                
   TITEL  = PAW_PBE C 08Apr2002                                                 
   LULTRA =        F    use ultrasoft PP ?                                      
   IUNSCR =        0    unscreen: 0-lin 1-nonlin 2-no                           
   RPACOR =     .000    partial core radius                                     
   POMASS =   12.011; ZVAL   =    4.000    mass and valenz                      
   RCORE  =    1.500    outmost cutoff radius                                   
   RWIGS  =    1.630; RWIGS  =     .863    wigner-seitz radius (au A)           
   ENMAX  =  400.000; ENMIN  =  300.000 eV                                      
   ICORE  =        2    local potential                                         
   LCOR   =        T    correct aug charges                                     
   LPAW   =        T    paw PP                                                  
   EAUG   =  644.873                                                            
   DEXC   =     .000                                                            
   RMAX   =    2.266    core radius for proj-oper                               
   RAUG   =    1.300    factor for augmentation sphere                          
   RDEP   =    1.501    radius for radial grids                                 
   RDEPT  =    1.300    core radius for aug-charge                              
   QCUT   =   -5.516; QGAM   =   11.032    optimization parameters              
                                                                                
   Description                                                                  
     l     E      TYP  RCUT    TYP  RCUT                                        
     0   .000     23  1.200                                                     
     0   .000     23  1.200                                                     
     1   .000     23  1.500                                                     
     1  2.500     23  1.500                                                     
     2   .000      7  1.500                                                     
  local pseudopotential read in
  atomic valenz-charges read in
  non local Contribution for L=           0  read in
    real space projection operators read in
  non local Contribution for L=           0  read in
    real space projection operators read in
  non local Contribution for L=           1  read in
    real space projection operators read in
  non local Contribution for L=           1  read in
    real space projection operators read in
    PAW grid and wavefunctions read in
 
   number of l-projection  operators is LMAX  =           4
   number of lm-projection operators is LMMAX =           8
 

 ----------------------------------------------------------------------------- 
|                                                                             |
|  ADVICE TO THIS USER RUNNING 'VASP/VAMP'   (HEAR YOUR MASTER'S VOICE ...):  |
|                                                                             |
|      You have a (more or less) 'large supercell' and for larger cells       |
|      it might be more efficient to use real space projection operators      |
|      So try LREAL= Auto  in the INCAR   file.                               |
|      Mind: If you want to do a very accurate calculations keep the          |
|      reciprocal projection scheme          (i.e. LREAL=.FALSE.)             |
|                                                                             |
 ----------------------------------------------------------------------------- 

 PAW_PBE C 08Apr2002                    :
 energy of atom  1       EATOM= -147.1560
 kinetic energy error for atom=    0.0057 (will be added to EATOM!!)
 
 
 POSCAR: C                                       
  positions in direct lattice
  No initial velocities read in
 exchange correlation table for  LEXCH =        8
   RHO(1)=    0.500       N(1)  =     2000
   RHO(2)=  100.500       N(2)  =     4000
 


--------------------------------------------------------------------------------------------------------


 ion  position               nearest neighbor table
   1  0.500  0.000  0.126-  20 1.42  18 1.42  19 1.43
   2  1.000  0.000  0.125-  17 1.42  20 1.42  19 1.42
   3  0.500  0.500  0.125-  20 1.42  17 1.42  18 1.42
   4  1.000  0.500  0.125-  19 1.42  18 1.42  17 1.42
   5  0.500  0.000  0.625-  22 1.42  23 1.42  24 1.42
   6  1.000  0.000  0.625-  21 1.42  24 1.42  23 1.42
   7  0.500  0.500  0.625-  24 1.42  21 1.42  22 1.42
   8  1.000  0.500  0.625-  23 1.42  22 1.42  21 1.42
   9  0.000  0.500  0.375-  27 1.42  26 1.42  28 1.42
  10  0.500  0.500  0.375-  28 1.42  25 1.42  27 1.42
  11  0.000  1.000  0.375-  25 1.42  28 1.42  26 1.42
  12  0.500  1.000  0.375-  26 1.42  27 1.42  25 1.42
  13  0.000  0.500  0.875-  31 1.42  30 1.42  32 1.42
  14  0.500  0.500  0.875-  32 1.42  29 1.42  31 1.42
  15  0.000  1.000  0.875-  29 1.42  32 1.42  30 1.42
  16  0.500  1.000  0.875-  30 1.42  31 1.42  29 1.42
  17  0.166  0.334  0.125-   2 1.42   3 1.42   4 1.42
  18  0.666  0.334  0.125-   4 1.42   1 1.42   3 1.42
  19  0.166  0.834  0.125-   4 1.42   2 1.42   1 1.43
  20  0.666  0.834  0.125-   1 1.42   3 1.42   2 1.42
  21  0.166  0.334  0.625-   6 1.42   7 1.42   8 1.42
  22  0.666  0.334  0.625-   5 1.42   8 1.42   7 1.42
  23  0.166  0.834  0.625-   8 1.42   5 1.42   6 1.42
  24  0.666  0.834  0.625-   7 1.42   6 1.42   5 1.42
  25  0.334  0.166  0.375-  11 1.42  10 1.42  12 1.42
  26  0.834  0.166  0.375-  12 1.42   9 1.42  11 1.42
  27  0.334  0.666  0.375-   9 1.42  12 1.42  10 1.42
  28  0.834  0.666  0.375-  10 1.42  11 1.42   9 1.42
  29  0.334  0.166  0.875-  15 1.42  14 1.42  16 1.42
  30  0.834  0.166  0.875-  16 1.42  13 1.42  15 1.42
  31  0.334  0.666  0.875-  13 1.42  16 1.42  14 1.42
  32  0.834  0.666  0.875-  14 1.42  15 1.42  13 1.42
 
  LATTYP: Found a base centered orthorhombic cell.
 ALAT       =     4.9295501972
 B/A-ratio  =     1.7336081796
 C/A-ratio  =     2.8520475462
  
  Lattice vectors:
  
 A1 = (   4.9328744980,  -0.0019192860,   0.0000000000)
 A2 = (  -2.4680993993,   4.2710349859,   0.0000000000)
 A3 = (   0.0000000000,   0.0000000000,  14.0593115437)


Analysis of symmetry for initial positions (statically):
=====================================================================
 Subroutine PRICEL returns:
 Original cell was already a primitive cell.
 

 Routine SETGRP: Setting up the symmetry group for a 
 base centered orthorhombic supercell.


 Subroutine GETGRP returns: Found  1 space group operations
 (whereof  1 operations were pure point group operations)
 out of a pool of  8 trial point group operations.


The static configuration has the point symmetry C_1 .


Analysis of symmetry for dynamics (positions and initial velocities):
=====================================================================
 Subroutine PRICEL returns:
 Original cell was already a primitive cell.
 

 Routine SETGRP: Setting up the symmetry group for a 
 base centered orthorhombic supercell.


 Subroutine GETGRP returns: Found  1 space group operations
 (whereof  1 operations were pure point group operations)
 out of a pool of  8 trial point group operations.


The dynamic configuration has the point symmetry C_1 .
 
 
 KPOINTS: B4C B11C-CBC                            

Automatic generation of k-mesh.
Space group operators:
 irot       det(A)        alpha          n_x          n_y          n_z        tau_x        tau_y        tau_z
    1     1.000000     0.000000     1.000000     0.000000     0.000000     0.000000     0.000000     0.000000
 
 Subroutine IBZKPT returns following result:
 ===========================================
 
 Found    163 irreducible k-points:
 
 Following reciprocal coordinates:
            Coordinates               Weight
  0.000000  0.000000  0.000000      1.000000
  0.111111  0.000000  0.000000      2.000000
  0.222222  0.000000  0.000000      2.000000
  0.333333  0.000000  0.000000      2.000000
  0.444444  0.000000  0.000000      2.000000
  0.000000  0.111111  0.000000      2.000000
  0.111111  0.111111  0.000000      2.000000
  0.222222  0.111111  0.000000      2.000000
  0.333333  0.111111  0.000000      2.000000
  0.444444  0.111111  0.000000      2.000000
 -0.444444  0.111111  0.000000      2.000000
 -0.333333  0.111111  0.000000      2.000000
 -0.222222  0.111111  0.000000      2.000000
 -0.111111  0.111111  0.000000      2.000000
 -0.000000  0.222222  0.000000      2.000000
  0.111111  0.222222  0.000000      2.000000
  0.222222  0.222222  0.000000      2.000000
  0.333333  0.222222  0.000000      2.000000
  0.444444  0.222222  0.000000      2.000000
 -0.444444  0.222222  0.000000      2.000000
 -0.333333  0.222222  0.000000      2.000000
 -0.222222  0.222222  0.000000      2.000000
 -0.111111  0.222222  0.000000      2.000000
  0.000000  0.333333  0.000000      2.000000
  0.111111  0.333333  0.000000      2.000000
  0.222222  0.333333  0.000000      2.000000
  0.333333  0.333333  0.000000      2.000000
  0.444444  0.333333  0.000000      2.000000
 -0.444444  0.333333  0.000000      2.000000
 -0.333333  0.333333  0.000000      2.000000
 -0.222222  0.333333  0.000000      2.000000
 -0.111111  0.333333  0.000000      2.000000
 -0.000000  0.444444  0.000000      2.000000
  0.111111  0.444444  0.000000      2.000000
  0.222222  0.444444  0.000000      2.000000
  0.333333  0.444444  0.000000      2.000000
  0.444444  0.444444  0.000000      2.000000
 -0.444444  0.444444  0.000000      2.000000
 -0.333333  0.444444  0.000000      2.000000
 -0.222222  0.444444  0.000000      2.000000
 -0.111111  0.444444  0.000000      2.000000
  0.000000  0.000000  0.250000      2.000000
  0.111111  0.000000  0.250000      2.000000
  0.222222  0.000000  0.250000      2.000000
  0.333333  0.000000  0.250000      2.000000
  0.444444  0.000000  0.250000      2.000000
 -0.444444 -0.000000  0.250000      2.000000
 -0.333333  0.000000  0.250000      2.000000
 -0.222222 -0.000000  0.250000      2.000000
 -0.111111 -0.000000  0.250000      2.000000
  0.000000  0.111111  0.250000      2.000000
  0.111111  0.111111  0.250000      2.000000
  0.222222  0.111111  0.250000      2.000000
  0.333333  0.111111  0.250000      2.000000
  0.444444  0.111111  0.250000      2.000000
 -0.444444  0.111111  0.250000      2.000000
 -0.333333  0.111111  0.250000      2.000000
 -0.222222  0.111111  0.250000      2.000000
 -0.111111  0.111111  0.250000      2.000000
 -0.000000  0.222222  0.250000      2.000000
  0.111111  0.222222  0.250000      2.000000
  0.222222  0.222222  0.250000      2.000000
  0.333333  0.222222  0.250000      2.000000
  0.444444  0.222222  0.250000      2.000000
 -0.444444  0.222222  0.250000      2.000000
 -0.333333  0.222222  0.250000      2.000000
 -0.222222  0.222222  0.250000      2.000000
 -0.111111  0.222222  0.250000      2.000000
  0.000000  0.333333  0.250000      2.000000
  0.111111  0.333333  0.250000      2.000000
  0.222222  0.333333  0.250000      2.000000
  0.333333  0.333333  0.250000      2.000000
  0.444444  0.333333  0.250000      2.000000
 -0.444444  0.333333  0.250000      2.000000
 -0.333333  0.333333  0.250000      2.000000
 -0.222222  0.333333  0.250000      2.000000
 -0.111111  0.333333  0.250000      2.000000
 -0.000000  0.444444  0.250000      2.000000
  0.111111  0.444444  0.250000      2.000000
  0.222222  0.444444  0.250000      2.000000
  0.333333  0.444444  0.250000      2.000000
  0.444444  0.444444  0.250000      2.000000
 -0.444444  0.444444  0.250000      2.000000
 -0.333333  0.444444  0.250000      2.000000
 -0.222222  0.444444  0.250000      2.000000
 -0.111111  0.444444  0.250000      2.000000
  0.000000 -0.444444  0.250000      2.000000
  0.111111 -0.444444  0.250000      2.000000
  0.222222 -0.444444  0.250000      2.000000
  0.333333 -0.444444  0.250000      2.000000
  0.444444 -0.444444  0.250000      2.000000
 -0.444444 -0.444444  0.250000      2.000000
 -0.333333 -0.444444  0.250000      2.000000
 -0.222222 -0.444444  0.250000      2.000000
 -0.111111 -0.444444  0.250000      2.000000
  0.000000 -0.333333  0.250000      2.000000
  0.111111 -0.333333  0.250000      2.000000
  0.222222 -0.333333  0.250000      2.000000
  0.333333 -0.333333  0.250000      2.000000
  0.444444 -0.333333  0.250000      2.000000
 -0.444444 -0.333333  0.250000      2.000000
 -0.333333 -0.333333  0.250000      2.000000
 -0.222222 -0.333333  0.250000      2.000000
 -0.111111 -0.333333  0.250000      2.000000
  0.000000 -0.222222  0.250000      2.000000
  0.111111 -0.222222  0.250000      2.000000
  0.222222 -0.222222  0.250000      2.000000
  0.333333 -0.222222  0.250000      2.000000
  0.444444 -0.222222  0.250000      2.000000
 -0.444444 -0.222222  0.250000      2.000000
 -0.333333 -0.222222  0.250000      2.000000
 -0.222222 -0.222222  0.250000      2.000000
 -0.111111 -0.222222  0.250000      2.000000
  0.000000 -0.111111  0.250000      2.000000
  0.111111 -0.111111  0.250000      2.000000
  0.222222 -0.111111  0.250000      2.000000
  0.333333 -0.111111  0.250000      2.000000
  0.444444 -0.111111  0.250000      2.000000
 -0.444444 -0.111111  0.250000      2.000000
 -0.333333 -0.111111  0.250000      2.000000
 -0.222222 -0.111111  0.250000      2.000000
 -0.111111 -0.111111  0.250000      2.000000
  0.000000  0.000000  0.500000      1.000000
  0.111111  0.000000  0.500000      2.000000
  0.222222  0.000000  0.500000      2.000000
  0.333333  0.000000  0.500000      2.000000
  0.444444  0.000000  0.500000      2.000000
  0.000000  0.111111  0.500000      2.000000
  0.111111  0.111111  0.500000      2.000000
  0.222222  0.111111  0.500000      2.000000
  0.333333  0.111111  0.500000      2.000000
  0.444444  0.111111  0.500000      2.000000
 -0.444444  0.111111  0.500000      2.000000
 -0.333333  0.111111  0.500000      2.000000
 -0.222222  0.111111  0.500000      2.000000
 -0.111111  0.111111  0.500000      2.000000
 -0.000000  0.222222  0.500000      2.000000
  0.111111  0.222222  0.500000      2.000000
  0.222222  0.222222  0.500000      2.000000
  0.333333  0.222222  0.500000      2.000000
  0.444444  0.222222  0.500000      2.000000
 -0.444444  0.222222  0.500000      2.000000
 -0.333333  0.222222  0.500000      2.000000
 -0.222222  0.222222  0.500000      2.000000
 -0.111111  0.222222  0.500000      2.000000
  0.000000  0.333333  0.500000      2.000000
  0.111111  0.333333  0.500000      2.000000
  0.222222  0.333333  0.500000      2.000000
  0.333333  0.333333  0.500000      2.000000
  0.444444  0.333333  0.500000      2.000000
 -0.444444  0.333333  0.500000      2.000000
 -0.333333  0.333333  0.500000      2.000000
 -0.222222  0.333333  0.500000      2.000000
 -0.111111  0.333333  0.500000      2.000000
 -0.000000  0.444444  0.500000      2.000000
  0.111111  0.444444  0.500000      2.000000
  0.222222  0.444444  0.500000      2.000000
  0.333333  0.444444  0.500000      2.000000
  0.444444  0.444444  0.500000      2.000000
 -0.444444  0.444444  0.500000      2.000000
 -0.333333  0.444444  0.500000      2.000000
 -0.222222  0.444444  0.500000      2.000000
 -0.111111  0.444444  0.500000      2.000000
 
 Following cartesian coordinates:
            Coordinates               Weight
  0.000000  0.000000  0.000000      1.000000
  0.022530  0.013019  0.000000      2.000000
  0.045059  0.026038  0.000000      2.000000
  0.067589  0.039058  0.000000      2.000000
  0.090119  0.052077  0.000000      2.000000
  0.000010  0.026021  0.000000      2.000000
  0.022540  0.039040  0.000000      2.000000
  0.045069  0.052059  0.000000      2.000000
  0.067599  0.065079  0.000000      2.000000
  0.090129  0.078098  0.000000      2.000000
 -0.090109 -0.026056  0.000000      2.000000
 -0.067579 -0.013037  0.000000      2.000000
 -0.045049 -0.000018  0.000000      2.000000
 -0.022520  0.013002  0.000000      2.000000
  0.000020  0.052042  0.000000      2.000000
  0.022550  0.065061  0.000000      2.000000
  0.045080  0.078080  0.000000      2.000000
  0.067609  0.091099  0.000000      2.000000
  0.090139  0.104119  0.000000      2.000000
 -0.090098 -0.000035  0.000000      2.000000
 -0.067569  0.012984  0.000000      2.000000
 -0.045039  0.026003  0.000000      2.000000
 -0.022509  0.039023  0.000000      2.000000
  0.000030  0.078063  0.000000      2.000000
  0.022560  0.091082  0.000000      2.000000
  0.045090  0.104101  0.000000      2.000000
  0.067619  0.117120  0.000000      2.000000
  0.090149  0.130139  0.000000      2.000000
 -0.090088  0.025986  0.000000      2.000000
 -0.067559  0.039005  0.000000      2.000000
 -0.045029  0.052024  0.000000      2.000000
 -0.022499  0.065043  0.000000      2.000000
  0.000040  0.104084  0.000000      2.000000
  0.022570  0.117103  0.000000      2.000000
  0.045100  0.130122  0.000000      2.000000
  0.067630  0.143141  0.000000      2.000000
  0.090159  0.156160  0.000000      2.000000
 -0.090078  0.052007  0.000000      2.000000
 -0.067549  0.065026  0.000000      2.000000
 -0.045019  0.078045  0.000000      2.000000
 -0.022489  0.091064  0.000000      2.000000
  0.000000  0.000000  0.017782      2.000000
  0.022530  0.013019  0.017782      2.000000
  0.045059  0.026038  0.017782      2.000000
  0.067589  0.039058  0.017782      2.000000
  0.090119  0.052077  0.017782      2.000000
 -0.090119 -0.052077  0.017782      2.000000
 -0.067589 -0.039058  0.017782      2.000000
 -0.045059 -0.026038  0.017782      2.000000
 -0.022530 -0.013019  0.017782      2.000000
  0.000010  0.026021  0.017782      2.000000
  0.022540  0.039040  0.017782      2.000000
  0.045069  0.052059  0.017782      2.000000
  0.067599  0.065079  0.017782      2.000000
  0.090129  0.078098  0.017782      2.000000
 -0.090109 -0.026056  0.017782      2.000000
 -0.067579 -0.013037  0.017782      2.000000
 -0.045049 -0.000018  0.017782      2.000000
 -0.022520  0.013002  0.017782      2.000000
  0.000020  0.052042  0.017782      2.000000
  0.022550  0.065061  0.017782      2.000000
  0.045080  0.078080  0.017782      2.000000
  0.067609  0.091099  0.017782      2.000000
  0.090139  0.104119  0.017782      2.000000
 -0.090098 -0.000035  0.017782      2.000000
 -0.067569  0.012984  0.017782      2.000000
 -0.045039  0.026003  0.017782      2.000000
 -0.022509  0.039023  0.017782      2.000000
  0.000030  0.078063  0.017782      2.000000
  0.022560  0.091082  0.017782      2.000000
  0.045090  0.104101  0.017782      2.000000
  0.067619  0.117120  0.017782      2.000000
  0.090149  0.130139  0.017782      2.000000
 -0.090088  0.025986  0.017782      2.000000
 -0.067559  0.039005  0.017782      2.000000
 -0.045029  0.052024  0.017782      2.000000
 -0.022499  0.065043  0.017782      2.000000
  0.000040  0.104084  0.017782      2.000000
  0.022570  0.117103  0.017782      2.000000
  0.045100  0.130122  0.017782      2.000000
  0.067630  0.143141  0.017782      2.000000
  0.090159  0.156160  0.017782      2.000000
 -0.090078  0.052007  0.017782      2.000000
 -0.067549  0.065026  0.017782      2.000000
 -0.045019  0.078045  0.017782      2.000000
 -0.022489  0.091064  0.017782      2.000000
 -0.000040 -0.104084  0.017782      2.000000
  0.022489 -0.091064  0.017782      2.000000
  0.045019 -0.078045  0.017782      2.000000
  0.067549 -0.065026  0.017782      2.000000
  0.090078 -0.052007  0.017782      2.000000
 -0.090159 -0.156160  0.017782      2.000000
 -0.067630 -0.143141  0.017782      2.000000
 -0.045100 -0.130122  0.017782      2.000000
 -0.022570 -0.117103  0.017782      2.000000
 -0.000030 -0.078063  0.017782      2.000000
  0.022499 -0.065043  0.017782      2.000000
  0.045029 -0.052024  0.017782      2.000000
  0.067559 -0.039005  0.017782      2.000000
  0.090088 -0.025986  0.017782      2.000000
 -0.090149 -0.130139  0.017782      2.000000
 -0.067619 -0.117120  0.017782      2.000000
 -0.045090 -0.104101  0.017782      2.000000
 -0.022560 -0.091082  0.017782      2.000000
 -0.000020 -0.052042  0.017782      2.000000
  0.022509 -0.039023  0.017782      2.000000
  0.045039 -0.026003  0.017782      2.000000
  0.067569 -0.012984  0.017782      2.000000
  0.090098  0.000035  0.017782      2.000000
 -0.090139 -0.104119  0.017782      2.000000
 -0.067609 -0.091099  0.017782      2.000000
 -0.045080 -0.078080  0.017782      2.000000
 -0.022550 -0.065061  0.017782      2.000000
 -0.000010 -0.026021  0.017782      2.000000
  0.022520 -0.013002  0.017782      2.000000
  0.045049  0.000018  0.017782      2.000000
  0.067579  0.013037  0.017782      2.000000
  0.090109  0.026056  0.017782      2.000000
 -0.090129 -0.078098  0.017782      2.000000
 -0.067599 -0.065079  0.017782      2.000000
 -0.045069 -0.052059  0.017782      2.000000
 -0.022540 -0.039040  0.017782      2.000000
  0.000000  0.000000  0.035564      1.000000
  0.022530  0.013019  0.035564      2.000000
  0.045059  0.026038  0.035564      2.000000
  0.067589  0.039058  0.035564      2.000000
  0.090119  0.052077  0.035564      2.000000
  0.000010  0.026021  0.035564      2.000000
  0.022540  0.039040  0.035564      2.000000
  0.045069  0.052059  0.035564      2.000000
  0.067599  0.065079  0.035564      2.000000
  0.090129  0.078098  0.035564      2.000000
 -0.090109 -0.026056  0.035564      2.000000
 -0.067579 -0.013037  0.035564      2.000000
 -0.045049 -0.000018  0.035564      2.000000
 -0.022520  0.013002  0.035564      2.000000
  0.000020  0.052042  0.035564      2.000000
  0.022550  0.065061  0.035564      2.000000
  0.045080  0.078080  0.035564      2.000000
  0.067609  0.091099  0.035564      2.000000
  0.090139  0.104119  0.035564      2.000000
 -0.090098 -0.000035  0.035564      2.000000
 -0.067569  0.012984  0.035564      2.000000
 -0.045039  0.026003  0.035564      2.000000
 -0.022509  0.039023  0.035564      2.000000
  0.000030  0.078063  0.035564      2.000000
  0.022560  0.091082  0.035564      2.000000
  0.045090  0.104101  0.035564      2.000000
  0.067619  0.117120  0.035564      2.000000
  0.090149  0.130139  0.035564      2.000000
 -0.090088  0.025986  0.035564      2.000000
 -0.067559  0.039005  0.035564      2.000000
 -0.045029  0.052024  0.035564      2.000000
 -0.022499  0.065043  0.035564      2.000000
  0.000040  0.104084  0.035564      2.000000
  0.022570  0.117103  0.035564      2.000000
  0.045100  0.130122  0.035564      2.000000
  0.067630  0.143141  0.035564      2.000000
  0.090159  0.156160  0.035564      2.000000
 -0.090078  0.052007  0.035564      2.000000
 -0.067549  0.065026  0.035564      2.000000
 -0.045019  0.078045  0.035564      2.000000
 -0.022489  0.091064  0.035564      2.000000
 
 TETIRR: Found    970 inequivalent tetrahedra from     1944


--------------------------------------------------------------------------------------------------------




 Dimension of arrays:
   k-points           NKPTS =    163   k-points in BZ     NKDIM =    163   number of bands    NBANDS=     84
   number of dos      NEDOS =    301   number of ions     NIONS =     32
   non local maximal  LDIM  =      4   non local SUM 2l+1 LMDIM =      8
   total plane-waves  NPLWV = 179200
   max r-space proj   IRMAX =      1   max aug-charges    IRDMAX=   7340
   dimension x,y,z NGX =    40 NGY =   40 NGZ =  112
   dimension x,y,z NGXF=    80 NGYF=   80 NGZF=  224
   support grid    NGXF=    80 NGYF=   80 NGZF=  224
   ions per type =              32
 NGX,Y,Z   is equivalent  to a cutoff of  13.48, 13.48, 13.24 a.u.
 NGXF,Y,Z  is equivalent  to a cutoff of  26.96, 26.96, 26.49 a.u.


 I would recommend the setting:
   dimension x,y,z NGX =    39 NGY =   39 NGZ =  112
 SYSTEM =  graphite                                
 POSCAR =  C                                       

 Startparameter for this run:
   NWRITE =      2    write-flag & timer
   PREC   = accura    normal or accurate (medium, high low for compatibility)
   ISTART =      0    job   : 0-new  1-cont  2-samecut
   ICHARG =      2    charge: 1-file 2-atom 10-const
   ISPIN  =      1    spin polarized calculation?
   LNONCOLLINEAR =      F non collinear calculations
   LSORBIT =      F    spin-orbit coupling
   INIWAV =      1    electr: 0-lowe 1-rand  2-diag
   LASPH  =      F    aspherical Exc in radial PAW
   METAGGA=      F    non-selfconsistent MetaGGA calc.

 Electronic Relaxation 1
   ENCUT  =  600.0 eV  44.10 Ry    6.64 a.u.   9.85  9.85 28.08*2*pi/ulx,y,z
   ENINI  =  600.0     initial cutoff
   ENAUG  =  644.9 eV  augmentation charge cutoff
   NELM   =    200;   NELMIN=  2; NELMDL=  0     # of ELM steps 
   EDIFF  = 0.1E-05   stopping-criterion for ELM
   LREAL  =      F    real-space projection
   NLSPLINE    = F    spline interpolate recip. space projectors
   LCOMPAT=      F    compatible to vasp.4.4
   GGA_COMPAT  = T    GGA compatible to vasp.4.4-vasp.4.6
   LMAXPAW     = -100 max onsite density
   LMAXMIX     =    2 max onsite mixed and CHGCAR
   VOSKOWN=      0    Vosko Wilk Nusair interpolation
   ROPT   =    0.00000
 Ionic relaxation
   EDIFFG = 0.1E-02   stopping-criterion for IOM
   NSW    =      0    number of steps for IOM
   NBLOCK =      1;   KBLOCK =      1    inner block; outer block 
   IBRION =     -1    ionic relax: 0-MD 1-quasi-New 2-CG
   NFREE  =      0    steps in history (QN), initial steepest desc. (CG)
   ISIF   =      2    stress and relaxation
   IWAVPR =     10    prediction:  0-non 1-charg 2-wave 3-comb
   ISYM   =      2    0-nonsym 1-usesym 2-fastsym
   LCORR  =      T    Harris-Foulkes like correction to forces

   POTIM  = 0.5000    time-step for ionic-motion
   TEIN   =    0.0    initial temperature
   TEBEG  =    0.0;   TEEND  =   0.0 temperature during run
   SMASS  =  -3.00    Nose mass-parameter (am)
   estimated Nose-frequenzy (Omega)   =  0.10E-29 period in steps =****** mass=  -0.556E-27a.u.
   SCALEE = 1.0000    scale energy and forces
   NPACO  =    256;   APACO  = 16.0  distance and # of slots for P.C.
   PSTRESS=    0.0 pullay stress

  Mass of Ions in am
   POMASS =  12.01
  Ionic Valenz
   ZVAL   =   4.00
  Atomic Wigner-Seitz radii
   RWIGS  =  -1.00
  virtual crystal weights 
   VCA    =   1.00
   NELECT =     128.0000    total number of electrons
   NUPDOWN=      -1.0000    fix difference up-down

 DOS related values:
   EMIN   =  10.00;   EMAX   =-10.00  energy-range for DOS
   EFERMI =   0.00
   ISMEAR =    -5;   SIGMA  =   0.20  broadening in eV -4-tet -1-fermi 0-gaus

 Electronic relaxation 2 (details)
   IALGO  =     38    algorithm
   LDIAG  =      T    sub-space diagonalisation (order eigenvalues)
   LSUBROT=      F    optimize rotation matrix (better conditioning)
   TURBO    =      0    0=normal 1=particle mesh
   IRESTART =      0    0=no restart 2=restart with 2 vectors
   NREBOOT  =      0    no. of reboots
   NMIN     =      0    reboot dimension
   EREF     =   0.00    reference energy to select bands
   IMIX   =      4    mixing-type and parameters
     AMIX     =   0.40;   BMIX     =  1.00
     AMIX_MAG =   1.60;   BMIX_MAG =  1.00
     AMIN     =   0.10
     WC   =   100.;   INIMIX=   1;  MIXPRE=   1;  MAXMIX= -45

 Intra band minimization:
   WEIMIN = 0.0000     energy-eigenvalue tresh-hold
   EBREAK =  0.30E-08  absolut break condition
   DEPER  =   0.30     relativ break condition  

   TIME   =   0.40     timestep for ELM

  volume/ion in A,a.u.               =       9.25        62.45
  Fermi-wavevector in a.u.,A,eV,Ry     =   1.237784  2.339073 20.845620  1.532110
  Thomas-Fermi vector in A             =   2.372337
 
 Write flags
   LWAVE  =      F    write WAVECAR
   LCHARG =      F    write CHGCAR
   LVTOT  =      F    write LOCPOT, total local potential
   LVHAR  =      F    write LOCPOT, Hartree potential only
   LELF   =      F    write electronic localiz. function (ELF)
   LORBIT =      0    0 simple, 1 ext, 2 COOP (PROOUT)


 Dipole corrections
   LMONO  =      F    monopole corrections only (constant potential shift)
   LDIPOL =      F    correct potential (dipole corrections)
   IDIPOL =      0    1-x, 2-y, 3-z, 4-all directions 
   EPSILON=  1.0000000 bulk dielectric constant

 Exchange correlation treatment:
   GGA     =    PE    GGA type
   LEXCH   =     8    internal setting for exchange type
   VOSKOWN=      0    Vosko Wilk Nusair interpolation
   LHFCALC =     F    Hartree Fock is set to
   LHFONE  =     F    Hartree Fock one center treatment
   AEXX    =    0.0000 exact exchange contribution

 Linear response parameters
   LEPSILON=     F    determine dielectric tensor
   LRPA    =     F    only Hartree local field effects (RPA)
   LNABLA  =     F    use nabla operator in PAW spheres
   LVEL    =     F    velocity operator in full k-point grid
   LINTERFAST=   F  fast interpolation
   KINTER  =     0    interpolate to denser k-point grid
   CSHIFT  =0.1000    complex shift for real part using Kramers Kronig
   OMEGAMAX=  -1.0    maximum frequency
   DEG_THRESHOLD= 0.2000000E-02 threshold for treating states as degnerate
   RTIME   =    0.100 relaxation time in fs

 Orbital magnetization related:
   ORBITALMAG=     F  switch on orbital magnetization
   LCHIMAG   =     F  perturbation theory with respect to B field
   DQ        =  0.001000  dq finite difference perturbation B field



--------------------------------------------------------------------------------------------------------


 Static calculation
 charge density and potential will be updated during run
 non-spin polarized calculation
 Variant of blocked Davidson
 Davidson routine will perform the subspace rotation
 perform sub-space diagonalisation
    after iterative eigenvector-optimisation
 modified Broyden-mixing scheme, WC =      100.0
 initial mixing is a Kerker type mixing with AMIX =  0.4000 and BMIX =      1.0000
 Hartree-type preconditioning will be used
 using additional bands           20
 reciprocal scheme for non local part
 calculate Harris-corrections to forces 
   (improved forces if not selfconsistent)
 use gradient corrections 
 use of overlap-Matrix (Vanderbilt PP)
 Fermi weights with tetrahedron method with Bloechl corrections


--------------------------------------------------------------------------------------------------------


  energy-cutoff  :      600.00
  volume of cell :      296.14
      direct lattice vectors                 reciprocal lattice vectors
     4.932874498 -0.001919286  0.000000000     0.202767147  0.117172881  0.000000000
    -2.468099399  4.271034986  0.000000000     0.000091118  0.234187941  0.000000000
     0.000000000  0.000000000 14.059311544     0.000000000  0.000000000  0.071127238

  length of vectors
     4.932874871  4.932874871 14.059311544     0.234187958  0.234187958  0.071127238


 
 k-points in units of 2pi/SCALE and weight: B4C B11C-CBC                            
   0.00000000  0.00000000  0.00000000       0.003
   0.02252968  0.01301921  0.00000000       0.006
   0.04505937  0.02603842  0.00000000       0.006
   0.06758905  0.03905763  0.00000000       0.006
   0.09011873  0.05207684  0.00000000       0.006
   0.00001012  0.02602088  0.00000000       0.006
   0.02253981  0.03904009  0.00000000       0.006
   0.04506949  0.05205930  0.00000000       0.006
   0.06759917  0.06507851  0.00000000       0.006
   0.09012886  0.07809772  0.00000000       0.006
  -0.09010861 -0.02605595  0.00000000       0.006
  -0.06757892 -0.01303674  0.00000000       0.006
  -0.04504924 -0.00001754  0.00000000       0.006
  -0.02251956  0.01300167  0.00000000       0.006
   0.00002025  0.05204176  0.00000000       0.006
   0.02254993  0.06506097  0.00000000       0.006
   0.04507961  0.07808018  0.00000000       0.006
   0.06760930  0.09109939  0.00000000       0.006
   0.09013898  0.10411860  0.00000000       0.006
  -0.09009848 -0.00003507  0.00000000       0.006
  -0.06756880  0.01298414  0.00000000       0.006
  -0.04503912  0.02600335  0.00000000       0.006
  -0.02250943  0.03902256  0.00000000       0.006
   0.00003037  0.07806265  0.00000000       0.006
   0.02256006  0.09108186  0.00000000       0.006
   0.04508974  0.10410106  0.00000000       0.006
   0.06761942  0.11712027  0.00000000       0.006
   0.09014910  0.13013948  0.00000000       0.006
  -0.09008836  0.02598581  0.00000000       0.006
  -0.06755868  0.03900502  0.00000000       0.006
  -0.04502899  0.05202423  0.00000000       0.006
  -0.02249931  0.06504344  0.00000000       0.006
   0.00004050  0.10408353  0.00000000       0.006
   0.02257018  0.11710274  0.00000000       0.006
   0.04509986  0.13012195  0.00000000       0.006
   0.06762955  0.14314116  0.00000000       0.006
   0.09015923  0.15616037  0.00000000       0.006
  -0.09007824  0.05200669  0.00000000       0.006
  -0.06754855  0.06502590  0.00000000       0.006
  -0.04501887  0.07804511  0.00000000       0.006
  -0.02248919  0.09106432  0.00000000       0.006
   0.00000000  0.00000000  0.01778181       0.006
   0.02252968  0.01301921  0.01778181       0.006
   0.04505937  0.02603842  0.01778181       0.006
   0.06758905  0.03905763  0.01778181       0.006
   0.09011873  0.05207684  0.01778181       0.006
  -0.09011873 -0.05207684  0.01778181       0.006
  -0.06758905 -0.03905763  0.01778181       0.006
  -0.04505937 -0.02603842  0.01778181       0.006
  -0.02252968 -0.01301921  0.01778181       0.006
   0.00001012  0.02602088  0.01778181       0.006
   0.02253981  0.03904009  0.01778181       0.006
   0.04506949  0.05205930  0.01778181       0.006
   0.06759917  0.06507851  0.01778181       0.006
   0.09012886  0.07809772  0.01778181       0.006
  -0.09010861 -0.02605595  0.01778181       0.006
  -0.06757892 -0.01303674  0.01778181       0.006
  -0.04504924 -0.00001754  0.01778181       0.006
  -0.02251956  0.01300167  0.01778181       0.006
   0.00002025  0.05204176  0.01778181       0.006
   0.02254993  0.06506097  0.01778181       0.006
   0.04507961  0.07808018  0.01778181       0.006
   0.06760930  0.09109939  0.01778181       0.006
   0.09013898  0.10411860  0.01778181       0.006
  -0.09009848 -0.00003507  0.01778181       0.006
  -0.06756880  0.01298414  0.01778181       0.006
  -0.04503912  0.02600335  0.01778181       0.006
  -0.02250943  0.03902256  0.01778181       0.006
   0.00003037  0.07806265  0.01778181       0.006
   0.02256006  0.09108186  0.01778181       0.006
   0.04508974  0.10410106  0.01778181       0.006
   0.06761942  0.11712027  0.01778181       0.006
   0.09014910  0.13013948  0.01778181       0.006
  -0.09008836  0.02598581  0.01778181       0.006
  -0.06755868  0.03900502  0.01778181       0.006
  -0.04502899  0.05202423  0.01778181       0.006
  -0.02249931  0.06504344  0.01778181       0.006
   0.00004050  0.10408353  0.01778181       0.006
   0.02257018  0.11710274  0.01778181       0.006
   0.04509986  0.13012195  0.01778181       0.006
   0.06762955  0.14314116  0.01778181       0.006
   0.09015923  0.15616037  0.01778181       0.006
  -0.09007824  0.05200669  0.01778181       0.006
  -0.06754855  0.06502590  0.01778181       0.006
  -0.04501887  0.07804511  0.01778181       0.006
  -0.02248919  0.09106432  0.01778181       0.006
  -0.00004050 -0.10408353  0.01778181       0.006
   0.02248919 -0.09106432  0.01778181       0.006
   0.04501887 -0.07804511  0.01778181       0.006
   0.06754855 -0.06502590  0.01778181       0.006
   0.09007824 -0.05200669  0.01778181       0.006
  -0.09015923 -0.15616037  0.01778181       0.006
  -0.06762955 -0.14314116  0.01778181       0.006
  -0.04509986 -0.13012195  0.01778181       0.006
  -0.02257018 -0.11710274  0.01778181       0.006
  -0.00003037 -0.07806265  0.01778181       0.006
   0.02249931 -0.06504344  0.01778181       0.006
   0.04502899 -0.05202423  0.01778181       0.006
   0.06755868 -0.03900502  0.01778181       0.006
   0.09008836 -0.02598581  0.01778181       0.006
  -0.09014910 -0.13013948  0.01778181       0.006
  -0.06761942 -0.11712027  0.01778181       0.006
  -0.04508974 -0.10410106  0.01778181       0.006
  -0.02256006 -0.09108186  0.01778181       0.006
  -0.00002025 -0.05204176  0.01778181       0.006
   0.02250943 -0.03902256  0.01778181       0.006
   0.04503912 -0.02600335  0.01778181       0.006
   0.06756880 -0.01298414  0.01778181       0.006
   0.09009848  0.00003507  0.01778181       0.006
  -0.09013898 -0.10411860  0.01778181       0.006
  -0.06760930 -0.09109939  0.01778181       0.006
  -0.04507961 -0.07808018  0.01778181       0.006
  -0.02254993 -0.06506097  0.01778181       0.006
  -0.00001012 -0.02602088  0.01778181       0.006
   0.02251956 -0.01300167  0.01778181       0.006
   0.04504924  0.00001754  0.01778181       0.006
   0.06757892  0.01303674  0.01778181       0.006
   0.09010861  0.02605595  0.01778181       0.006
  -0.09012886 -0.07809772  0.01778181       0.006
  -0.06759917 -0.06507851  0.01778181       0.006
  -0.04506949 -0.05205930  0.01778181       0.006
  -0.02253981 -0.03904009  0.01778181       0.006
   0.00000000  0.00000000  0.03556362       0.003
   0.02252968  0.01301921  0.03556362       0.006
   0.04505937  0.02603842  0.03556362       0.006
   0.06758905  0.03905763  0.03556362       0.006
   0.09011873  0.05207684  0.03556362       0.006
   0.00001012  0.02602088  0.03556362       0.006
   0.02253981  0.03904009  0.03556362       0.006
   0.04506949  0.05205930  0.03556362       0.006
   0.06759917  0.06507851  0.03556362       0.006
   0.09012886  0.07809772  0.03556362       0.006
  -0.09010861 -0.02605595  0.03556362       0.006
  -0.06757892 -0.01303674  0.03556362       0.006
  -0.04504924 -0.00001754  0.03556362       0.006
  -0.02251956  0.01300167  0.03556362       0.006
   0.00002025  0.05204176  0.03556362       0.006
   0.02254993  0.06506097  0.03556362       0.006
   0.04507961  0.07808018  0.03556362       0.006
   0.06760930  0.09109939  0.03556362       0.006
   0.09013898  0.10411860  0.03556362       0.006
  -0.09009848 -0.00003507  0.03556362       0.006
  -0.06756880  0.01298414  0.03556362       0.006
  -0.04503912  0.02600335  0.03556362       0.006
  -0.02250943  0.03902256  0.03556362       0.006
   0.00003037  0.07806265  0.03556362       0.006
   0.02256006  0.09108186  0.03556362       0.006
   0.04508974  0.10410106  0.03556362       0.006
   0.06761942  0.11712027  0.03556362       0.006
   0.09014910  0.13013948  0.03556362       0.006
  -0.09008836  0.02598581  0.03556362       0.006
  -0.06755868  0.03900502  0.03556362       0.006
  -0.04502899  0.05202423  0.03556362       0.006
  -0.02249931  0.06504344  0.03556362       0.006
   0.00004050  0.10408353  0.03556362       0.006
   0.02257018  0.11710274  0.03556362       0.006
   0.04509986  0.13012195  0.03556362       0.006
   0.06762955  0.14314116  0.03556362       0.006
   0.09015923  0.15616037  0.03556362       0.006
  -0.09007824  0.05200669  0.03556362       0.006
  -0.06754855  0.06502590  0.03556362       0.006
  -0.04501887  0.07804511  0.03556362       0.006
  -0.02248919  0.09106432  0.03556362       0.006
 
 k-points in reciprocal lattice and weights: B4C B11C-CBC                            
   0.00000000  0.00000000  0.00000000       0.003
   0.11111111  0.00000000  0.00000000       0.006
   0.22222222  0.00000000  0.00000000       0.006
   0.33333333  0.00000000  0.00000000       0.006
   0.44444444  0.00000000  0.00000000       0.006
   0.00000000  0.11111111  0.00000000       0.006
   0.11111111  0.11111111  0.00000000       0.006
   0.22222222  0.11111111  0.00000000       0.006
   0.33333333  0.11111111  0.00000000       0.006
   0.44444444  0.11111111  0.00000000       0.006
  -0.44444444  0.11111111  0.00000000       0.006
  -0.33333333  0.11111111  0.00000000       0.006
  -0.22222222  0.11111111  0.00000000       0.006
  -0.11111111  0.11111111  0.00000000       0.006
  -0.00000000  0.22222222  0.00000000       0.006
   0.11111111  0.22222222  0.00000000       0.006
   0.22222222  0.22222222  0.00000000       0.006
   0.33333333  0.22222222  0.00000000       0.006
   0.44444444  0.22222222  0.00000000       0.006
  -0.44444444  0.22222222  0.00000000       0.006
  -0.33333333  0.22222222  0.00000000       0.006
  -0.22222222  0.22222222  0.00000000       0.006
  -0.11111111  0.22222222  0.00000000       0.006
   0.00000000  0.33333333  0.00000000       0.006
   0.11111111  0.33333333  0.00000000       0.006
   0.22222222  0.33333333  0.00000000       0.006
   0.33333333  0.33333333  0.00000000       0.006
   0.44444444  0.33333333  0.00000000       0.006
  -0.44444444  0.33333333  0.00000000       0.006
  -0.33333333  0.33333333  0.00000000       0.006
  -0.22222222  0.33333333  0.00000000       0.006
  -0.11111111  0.33333333  0.00000000       0.006
  -0.00000000  0.44444444  0.00000000       0.006
   0.11111111  0.44444444  0.00000000       0.006
   0.22222222  0.44444444  0.00000000       0.006
   0.33333333  0.44444444  0.00000000       0.006
   0.44444444  0.44444444  0.00000000       0.006
  -0.44444444  0.44444444  0.00000000       0.006
  -0.33333333  0.44444444  0.00000000       0.006
  -0.22222222  0.44444444  0.00000000       0.006
  -0.11111111  0.44444444  0.00000000       0.006
   0.00000000  0.00000000  0.25000000       0.006
   0.11111111  0.00000000  0.25000000       0.006
   0.22222222  0.00000000  0.25000000       0.006
   0.33333333  0.00000000  0.25000000       0.006
   0.44444444  0.00000000  0.25000000       0.006
  -0.44444444 -0.00000000  0.25000000       0.006
  -0.33333333  0.00000000  0.25000000       0.006
  -0.22222222 -0.00000000  0.25000000       0.006
  -0.11111111 -0.00000000  0.25000000       0.006
   0.00000000  0.11111111  0.25000000       0.006
   0.11111111  0.11111111  0.25000000       0.006
   0.22222222  0.11111111  0.25000000       0.006
   0.33333333  0.11111111  0.25000000       0.006
   0.44444444  0.11111111  0.25000000       0.006
  -0.44444444  0.11111111  0.25000000       0.006
  -0.33333333  0.11111111  0.25000000       0.006
  -0.22222222  0.11111111  0.25000000       0.006
  -0.11111111  0.11111111  0.25000000       0.006
  -0.00000000  0.22222222  0.25000000       0.006
   0.11111111  0.22222222  0.25000000       0.006
   0.22222222  0.22222222  0.25000000       0.006
   0.33333333  0.22222222  0.25000000       0.006
   0.44444444  0.22222222  0.25000000       0.006
  -0.44444444  0.22222222  0.25000000       0.006
  -0.33333333  0.22222222  0.25000000       0.006
  -0.22222222  0.22222222  0.25000000       0.006
  -0.11111111  0.22222222  0.25000000       0.006
   0.00000000  0.33333333  0.25000000       0.006
   0.11111111  0.33333333  0.25000000       0.006
   0.22222222  0.33333333  0.25000000       0.006
   0.33333333  0.33333333  0.25000000       0.006
   0.44444444  0.33333333  0.25000000       0.006
  -0.44444444  0.33333333  0.25000000       0.006
  -0.33333333  0.33333333  0.25000000       0.006
  -0.22222222  0.33333333  0.25000000       0.006
  -0.11111111  0.33333333  0.25000000       0.006
  -0.00000000  0.44444444  0.25000000       0.006
   0.11111111  0.44444444  0.25000000       0.006
   0.22222222  0.44444444  0.25000000       0.006
   0.33333333  0.44444444  0.25000000       0.006
   0.44444444  0.44444444  0.25000000       0.006
  -0.44444444  0.44444444  0.25000000       0.006
  -0.33333333  0.44444444  0.25000000       0.006
  -0.22222222  0.44444444  0.25000000       0.006
  -0.11111111  0.44444444  0.25000000       0.006
   0.00000000 -0.44444444  0.25000000       0.006
   0.11111111 -0.44444444  0.25000000       0.006
   0.22222222 -0.44444444  0.25000000       0.006
   0.33333333 -0.44444444  0.25000000       0.006
   0.44444444 -0.44444444  0.25000000       0.006
  -0.44444444 -0.44444444  0.25000000       0.006
  -0.33333333 -0.44444444  0.25000000       0.006
  -0.22222222 -0.44444444  0.25000000       0.006
  -0.11111111 -0.44444444  0.25000000       0.006
   0.00000000 -0.33333333  0.25000000       0.006
   0.11111111 -0.33333333  0.25000000       0.006
   0.22222222 -0.33333333  0.25000000       0.006
   0.33333333 -0.33333333  0.25000000       0.006
   0.44444444 -0.33333333  0.25000000       0.006
  -0.44444444 -0.33333333  0.25000000       0.006
  -0.33333333 -0.33333333  0.25000000       0.006
  -0.22222222 -0.33333333  0.25000000       0.006
  -0.11111111 -0.33333333  0.25000000       0.006
   0.00000000 -0.22222222  0.25000000       0.006
   0.11111111 -0.22222222  0.25000000       0.006
   0.22222222 -0.22222222  0.25000000       0.006
   0.33333333 -0.22222222  0.25000000       0.006
   0.44444444 -0.22222222  0.25000000       0.006
  -0.44444444 -0.22222222  0.25000000       0.006
  -0.33333333 -0.22222222  0.25000000       0.006
  -0.22222222 -0.22222222  0.25000000       0.006
  -0.11111111 -0.22222222  0.25000000       0.006
   0.00000000 -0.11111111  0.25000000       0.006
   0.11111111 -0.11111111  0.25000000       0.006
   0.22222222 -0.11111111  0.25000000       0.006
   0.33333333 -0.11111111  0.25000000       0.006
   0.44444444 -0.11111111  0.25000000       0.006
  -0.44444444 -0.11111111  0.25000000       0.006
  -0.33333333 -0.11111111  0.25000000       0.006
  -0.22222222 -0.11111111  0.25000000       0.006
  -0.11111111 -0.11111111  0.25000000       0.006
   0.00000000  0.00000000  0.50000000       0.003
   0.11111111  0.00000000  0.50000000       0.006
   0.22222222  0.00000000  0.50000000       0.006
   0.33333333  0.00000000  0.50000000       0.006
   0.44444444  0.00000000  0.50000000       0.006
   0.00000000  0.11111111  0.50000000       0.006
   0.11111111  0.11111111  0.50000000       0.006
   0.22222222  0.11111111  0.50000000       0.006
   0.33333333  0.11111111  0.50000000       0.006
   0.44444444  0.11111111  0.50000000       0.006
  -0.44444444  0.11111111  0.50000000       0.006
  -0.33333333  0.11111111  0.50000000       0.006
  -0.22222222  0.11111111  0.50000000       0.006
  -0.11111111  0.11111111  0.50000000       0.006
  -0.00000000  0.22222222  0.50000000       0.006
   0.11111111  0.22222222  0.50000000       0.006
   0.22222222  0.22222222  0.50000000       0.006
   0.33333333  0.22222222  0.50000000       0.006
   0.44444444  0.22222222  0.50000000       0.006
  -0.44444444  0.22222222  0.50000000       0.006
  -0.33333333  0.22222222  0.50000000       0.006
  -0.22222222  0.22222222  0.50000000       0.006
  -0.11111111  0.22222222  0.50000000       0.006
   0.00000000  0.33333333  0.50000000       0.006
   0.11111111  0.33333333  0.50000000       0.006
   0.22222222  0.33333333  0.50000000       0.006
   0.33333333  0.33333333  0.50000000       0.006
   0.44444444  0.33333333  0.50000000       0.006
  -0.44444444  0.33333333  0.50000000       0.006
  -0.33333333  0.33333333  0.50000000       0.006
  -0.22222222  0.33333333  0.50000000       0.006
  -0.11111111  0.33333333  0.50000000       0.006
  -0.00000000  0.44444444  0.50000000       0.006
   0.11111111  0.44444444  0.50000000       0.006
   0.22222222  0.44444444  0.50000000       0.006
   0.33333333  0.44444444  0.50000000       0.006
   0.44444444  0.44444444  0.50000000       0.006
  -0.44444444  0.44444444  0.50000000       0.006
  -0.33333333  0.44444444  0.50000000       0.006
  -0.22222222  0.44444444  0.50000000       0.006
  -0.11111111  0.44444444  0.50000000       0.006
 
 position of ions in fractional coordinates (direct lattice) 
   0.50034446  0.00032672  0.12567116
   0.99967330  0.00032672  0.12500000
   0.49967330  0.50032672  0.12500000
   0.99967330  0.50032672  0.12500000
   0.49967330  0.00032672  0.62500000
   0.99967330  0.00032672  0.62500000
   0.49967330  0.50032672  0.62500000
   0.99967330  0.50032672  0.62500000
   0.00032672  0.49967330  0.37500000
   0.50032672  0.49967330  0.37500000
   0.00032672  0.99967330  0.37500000
   0.50032672  0.99967330  0.37500000
   0.00032672  0.49967330  0.87500000
   0.50032672  0.49967330  0.87500000
   0.00032672  0.99967330  0.87500000
   0.50032672  0.99967330  0.87500000
   0.16629246  0.33370753  0.12500000
   0.66629246  0.33370753  0.12500000
   0.16629246  0.83370753  0.12500000
   0.66629246  0.83370753  0.12500000
   0.16629246  0.33370753  0.62500000
   0.66629246  0.33370753  0.62500000
   0.16629246  0.83370753  0.62500000
   0.66629246  0.83370753  0.62500000
   0.33370753  0.16629246  0.37500000
   0.83370753  0.16629246  0.37500000
   0.33370753  0.66629246  0.37500000
   0.83370753  0.66629246  0.37500000
   0.33370753  0.16629246  0.87500000
   0.83370753  0.16629246  0.87500000
   0.33370753  0.66629246  0.87500000
   0.83370753  0.66629246  0.87500000
 
 position of ions in cartesian coordinates  (Angst):
   2.46733007  0.00043512  1.76684999
   4.93045658 -0.00052323  1.75741394
   1.22996963  2.13595390  1.75741394
   3.69640688  2.13499426  1.75741394
   2.46401933  0.00043641  8.78706971
   4.93045658 -0.00052323  8.78706971
   1.22996963  2.13595390  8.78706971
   3.69640688  2.13499426  8.78706971
  -1.23163172  2.13412154  5.27224183
   1.23480553  2.13316189  5.27224183
  -2.46568142  4.26963903  5.27224183
   0.00075583  4.26867939  5.27224183
  -1.23163172  2.13412154 12.30189760
   1.23480553  2.13316189 12.30189760
  -2.46568142  4.26963903 12.30189760
   0.00075583  4.26867939 12.30189760
  -0.00332350  1.42495737  1.75741394
   2.46311374  1.42399773  1.75741394
  -1.23737320  3.56047486  1.75741394
   1.22906405  3.55951522  1.75741394
  -0.00332350  1.42495737  8.78706971
   2.46311374  1.42399773  8.78706971
  -1.23737320  3.56047486  8.78706971
   1.22906405  3.55951522  8.78706971
   1.23571103  0.70960044  5.27224183
   3.70214828  0.70864080  5.27224183
   0.00166133  2.84511794  5.27224183
   2.46809858  2.84415829  5.27224183
   1.23571103  0.70960044 12.30189760
   3.70214828  0.70864080 12.30189760
   0.00166133  2.84511794 12.30189760
   2.46809858  2.84415829 12.30189760
 


--------------------------------------------------------------------------------------------------------


 k-point  1 :   0.0000 0.0000 0.0000  plane waves:    9853
 k-point  2 :   0.1111 0.0000 0.0000  plane waves:    9851
 k-point  3 :   0.2222 0.0000 0.0000  plane waves:    9867
 k-point  4 :   0.3333 0.0000 0.0000  plane waves:    9893
 k-point  5 :   0.4444 0.0000 0.0000  plane waves:    9895
 k-point  6 :   0.0000 0.1111 0.0000  plane waves:    9851
 k-point  7 :   0.1111 0.1111 0.0000  plane waves:    9856
 k-point  8 :   0.2222 0.1111 0.0000  plane waves:    9884
 k-point  9 :   0.3333 0.1111 0.0000  plane waves:    9882
 k-point 10 :   0.4444 0.1111 0.0000  plane waves:    9904
 k-point 11 :  -0.4444 0.1111 0.0000  plane waves:    9878
 k-point 12 :  -0.3333 0.1111 0.0000  plane waves:    9884
 k-point 13 :  -0.2222 0.1111 0.0000  plane waves:    9860
 k-point 14 :  -0.1111 0.1111 0.0000  plane waves:    9857
 k-point 15 :  -0.0000 0.2222 0.0000  plane waves:    9867
 k-point 16 :   0.1111 0.2222 0.0000  plane waves:    9884
 k-point 17 :   0.2222 0.2222 0.0000  plane waves:    9872
 k-point 18 :   0.3333 0.2222 0.0000  plane waves:    9882
 k-point 19 :   0.4444 0.2222 0.0000  plane waves:    9884
 k-point 20 :  -0.4444 0.2222 0.0000  plane waves:    9876
 k-point 21 :  -0.3333 0.2222 0.0000  plane waves:    9876
 k-point 22 :  -0.2222 0.2222 0.0000  plane waves:    9867
 k-point 23 :  -0.1111 0.2222 0.0000  plane waves:    9860
 k-point 24 :   0.0000 0.3333 0.0000  plane waves:    9893
 k-point 25 :   0.1111 0.3333 0.0000  plane waves:    9882
 k-point 26 :   0.2222 0.3333 0.0000  plane waves:    9882
 k-point 27 :   0.3333 0.3333 0.0000  plane waves:    9886
 k-point 28 :   0.4444 0.3333 0.0000  plane waves:    9886
 k-point 29 :  -0.4444 0.3333 0.0000  plane waves:    9876
 k-point 30 :  -0.3333 0.3333 0.0000  plane waves:    9899
 k-point 31 :  -0.2222 0.3333 0.0000  plane waves:    9876
 k-point 32 :  -0.1111 0.3333 0.0000  plane waves:    9884
 k-point 33 :  -0.0000 0.4444 0.0000  plane waves:    9895
 k-point 34 :   0.1111 0.4444 0.0000  plane waves:    9904
 k-point 35 :   0.2222 0.4444 0.0000  plane waves:    9884
 k-point 36 :   0.3333 0.4444 0.0000  plane waves:    9886
 k-point 37 :   0.4444 0.4444 0.0000  plane waves:    9894
 k-point 38 :  -0.4444 0.4444 0.0000  plane waves:    9895
 k-point 39 :  -0.3333 0.4444 0.0000  plane waves:    9876
 k-point 40 :  -0.2222 0.4444 0.0000  plane waves:    9876
 k-point 41 :  -0.1111 0.4444 0.0000  plane waves:    9878
 k-point 42 :   0.0000 0.0000 0.2500  plane waves:    9828
 k-point 43 :   0.1111 0.0000 0.2500  plane waves:    9860
 k-point 44 :   0.2222 0.0000 0.2500  plane waves:    9879
 k-point 45 :   0.3333 0.0000 0.2500  plane waves:    9884
 k-point 46 :   0.4444 0.0000 0.2500  plane waves:    9893
 k-point 47 :  -0.4444-0.0000 0.2500  plane waves:    9893
 k-point 48 :  -0.3333 0.0000 0.2500  plane waves:    9884
 k-point 49 :  -0.2222-0.0000 0.2500  plane waves:    9879
 k-point 50 :  -0.1111-0.0000 0.2500  plane waves:    9860
 k-point 51 :   0.0000 0.1111 0.2500  plane waves:    9860
 k-point 52 :   0.1111 0.1111 0.2500  plane waves:    9864
 k-point 53 :   0.2222 0.1111 0.2500  plane waves:    9887
 k-point 54 :   0.3333 0.1111 0.2500  plane waves:    9891
 k-point 55 :   0.4444 0.1111 0.2500  plane waves:    9901
 k-point 56 :  -0.4444 0.1111 0.2500  plane waves:    9895
 k-point 57 :  -0.3333 0.1111 0.2500  plane waves:    9880
 k-point 58 :  -0.2222 0.1111 0.2500  plane waves:    9866
 k-point 59 :  -0.1111 0.1111 0.2500  plane waves:    9864
 k-point 60 :  -0.0000 0.2222 0.2500  plane waves:    9879
 k-point 61 :   0.1111 0.2222 0.2500  plane waves:    9887
 k-point 62 :   0.2222 0.2222 0.2500  plane waves:    9892
 k-point 63 :   0.3333 0.2222 0.2500  plane waves:    9886
 k-point 64 :   0.4444 0.2222 0.2500  plane waves:    9882
 k-point 65 :  -0.4444 0.2222 0.2500  plane waves:    9894
 k-point 66 :  -0.3333 0.2222 0.2500  plane waves:    9887
 k-point 67 :  -0.2222 0.2222 0.2500  plane waves:    9879
 k-point 68 :  -0.1111 0.2222 0.2500  plane waves:    9866
 k-point 69 :   0.0000 0.3333 0.2500  plane waves:    9884
 k-point 70 :   0.1111 0.3333 0.2500  plane waves:    9891
 k-point 71 :   0.2222 0.3333 0.2500  plane waves:    9886
 k-point 72 :   0.3333 0.3333 0.2500  plane waves:    9888
 k-point 73 :   0.4444 0.3333 0.2500  plane waves:    9882
 k-point 74 :  -0.4444 0.3333 0.2500  plane waves:    9892
 k-point 75 :  -0.3333 0.3333 0.2500  plane waves:    9884
 k-point 76 :  -0.2222 0.3333 0.2500  plane waves:    9887
 k-point 77 :  -0.1111 0.3333 0.2500  plane waves:    9880
 k-point 78 :  -0.0000 0.4444 0.2500  plane waves:    9893
 k-point 79 :   0.1111 0.4444 0.2500  plane waves:    9901
 k-point 80 :   0.2222 0.4444 0.2500  plane waves:    9882
 k-point 81 :   0.3333 0.4444 0.2500  plane waves:    9882
 k-point 82 :   0.4444 0.4444 0.2500  plane waves:    9904
 k-point 83 :  -0.4444 0.4444 0.2500  plane waves:    9893
 k-point 84 :  -0.3333 0.4444 0.2500  plane waves:    9892
 k-point 85 :  -0.2222 0.4444 0.2500  plane waves:    9894
 k-point 86 :  -0.1111 0.4444 0.2500  plane waves:    9895
 k-point 87 :   0.0000-0.4444 0.2500  plane waves:    9893
 k-point 88 :   0.1111-0.4444 0.2500  plane waves:    9895
 k-point 89 :   0.2222-0.4444 0.2500  plane waves:    9894
 k-point 90 :   0.3333-0.4444 0.2500  plane waves:    9892
 k-point 91 :   0.4444-0.4444 0.2500  plane waves:    9893
 k-point 92 :  -0.4444-0.4444 0.2500  plane waves:    9904
 k-point 93 :  -0.3333-0.4444 0.2500  plane waves:    9882
 k-point 94 :  -0.2222-0.4444 0.2500  plane waves:    9882
 k-point 95 :  -0.1111-0.4444 0.2500  plane waves:    9901
 k-point 96 :   0.0000-0.3333 0.2500  plane waves:    9884
 k-point 97 :   0.1111-0.3333 0.2500  plane waves:    9880
 k-point 98 :   0.2222-0.3333 0.2500  plane waves:    9887
 k-point 99 :   0.3333-0.3333 0.2500  plane waves:    9884
 k-point ** :   0.4444-0.3333 0.2500  plane waves:    9892
 k-point ** :  -0.4444-0.3333 0.2500  plane waves:    9882
 k-point ** :  -0.3333-0.3333 0.2500  plane waves:    9888
 k-point ** :  -0.2222-0.3333 0.2500  plane waves:    9886
 k-point ** :  -0.1111-0.3333 0.2500  plane waves:    9891
 k-point ** :   0.0000-0.2222 0.2500  plane waves:    9879
 k-point ** :   0.1111-0.2222 0.2500  plane waves:    9866
 k-point ** :   0.2222-0.2222 0.2500  plane waves:    9879
 k-point ** :   0.3333-0.2222 0.2500  plane waves:    9887
 k-point ** :   0.4444-0.2222 0.2500  plane waves:    9894
 k-point ** :  -0.4444-0.2222 0.2500  plane waves:    9882
 k-point ** :  -0.3333-0.2222 0.2500  plane waves:    9886
 k-point ** :  -0.2222-0.2222 0.2500  plane waves:    9892
 k-point ** :  -0.1111-0.2222 0.2500  plane waves:    9887
 k-point ** :   0.0000-0.1111 0.2500  plane waves:    9860
 k-point ** :   0.1111-0.1111 0.2500  plane waves:    9864
 k-point ** :   0.2222-0.1111 0.2500  plane waves:    9866
 k-point ** :   0.3333-0.1111 0.2500  plane waves:    9880
 k-point ** :   0.4444-0.1111 0.2500  plane waves:    9895
 k-point ** :  -0.4444-0.1111 0.2500  plane waves:    9901
 k-point ** :  -0.3333-0.1111 0.2500  plane waves:    9891
 k-point ** :  -0.2222-0.1111 0.2500  plane waves:    9887
 k-point ** :  -0.1111-0.1111 0.2500  plane waves:    9864
 k-point ** :   0.0000 0.0000 0.5000  plane waves:    9800
 k-point ** :   0.1111 0.0000 0.5000  plane waves:    9858
 k-point ** :   0.2222 0.0000 0.5000  plane waves:    9892
 k-point ** :   0.3333 0.0000 0.5000  plane waves:    9904
 k-point ** :   0.4444 0.0000 0.5000  plane waves:    9908
 k-point ** :   0.0000 0.1111 0.5000  plane waves:    9858
 k-point ** :   0.1111 0.1111 0.5000  plane waves:    9852
 k-point ** :   0.2222 0.1111 0.5000  plane waves:    9884
 k-point ** :   0.3333 0.1111 0.5000  plane waves:    9884
 k-point ** :   0.4444 0.1111 0.5000  plane waves:    9882
 k-point ** :  -0.4444 0.1111 0.5000  plane waves:    9886
 k-point ** :  -0.3333 0.1111 0.5000  plane waves:    9884
 k-point ** :  -0.2222 0.1111 0.5000  plane waves:    9862
 k-point ** :  -0.1111 0.1111 0.5000  plane waves:    9860
 k-point ** :  -0.0000 0.2222 0.5000  plane waves:    9892
 k-point ** :   0.1111 0.2222 0.5000  plane waves:    9884
 k-point ** :   0.2222 0.2222 0.5000  plane waves:    9878
 k-point ** :   0.3333 0.2222 0.5000  plane waves:    9894
 k-point ** :   0.4444 0.2222 0.5000  plane waves:    9902
 k-point ** :  -0.4444 0.2222 0.5000  plane waves:    9874
 k-point ** :  -0.3333 0.2222 0.5000  plane waves:    9886
 k-point ** :  -0.2222 0.2222 0.5000  plane waves:    9890
 k-point ** :  -0.1111 0.2222 0.5000  plane waves:    9862
 k-point ** :   0.0000 0.3333 0.5000  plane waves:    9904
 k-point ** :   0.1111 0.3333 0.5000  plane waves:    9884
 k-point ** :   0.2222 0.3333 0.5000  plane waves:    9894
 k-point ** :   0.3333 0.3333 0.5000  plane waves:    9908
 k-point ** :   0.4444 0.3333 0.5000  plane waves:    9898
 k-point ** :  -0.4444 0.3333 0.5000  plane waves:    9886
 k-point ** :  -0.3333 0.3333 0.5000  plane waves:    9906
 k-point ** :  -0.2222 0.3333 0.5000  plane waves:    9886
 k-point ** :  -0.1111 0.3333 0.5000  plane waves:    9884
 k-point ** :  -0.0000 0.4444 0.5000  plane waves:    9908
 k-point ** :   0.1111 0.4444 0.5000  plane waves:    9882
 k-point ** :   0.2222 0.4444 0.5000  plane waves:    9902
 k-point ** :   0.3333 0.4444 0.5000  plane waves:    9898
 k-point ** :   0.4444 0.4444 0.5000  plane waves:    9884
 k-point ** :  -0.4444 0.4444 0.5000  plane waves:    9916
 k-point ** :  -0.3333 0.4444 0.5000  plane waves:    9886
 k-point ** :  -0.2222 0.4444 0.5000  plane waves:    9874
 k-point ** :  -0.1111 0.4444 0.5000  plane waves:    9886

 maximum and minimum number of plane-waves per node :      9916     9800

 maximum number of plane-waves:      9916
 maximum index in each direction: 
   IXMAX=   10   IYMAX=   10   IZMAX=   28
   IXMIN=  -10   IYMIN=  -10   IZMIN=  -28

 WARNING: aliasing errors must be expected set NGX to  42 to avoid them
 WARNING: aliasing errors must be expected set NGY to  42 to avoid them
 WARNING: aliasing errors must be expected set NGZ to 114 to avoid them
 aliasing errors are usually negligible using standard VASP settings
 and one can safely disregard these warnings

 serial   3D FFT for wavefunctions
 parallel 3D FFT for charge:
    minimum data exchange during FFTs selected (reduces bandwidth)


 total amount of memory used by VASP on root node   538597. kBytes
========================================================================

   base      :      30000. kBytes
   nonl-proj :     108542. kBytes
   fftplans  :       9104. kBytes
   grid      :      19307. kBytes
   one-center:         98. kBytes
   wavefun   :     371546. kBytes
 
     INWAV:  cpu time    0.00: real time    0.00
 Broyden mixing: mesh for mixing (old mesh)
   NGX = 19   NGY = 19   NGZ = 57
  (NGX  = 80   NGY  = 80   NGZ  =224)
  gives a total of  20577 points

 initial charge density was supplied:
 charge density of overlapping atoms calculated
 number of electron     128.0000000 magnetization 
 keeping initial charge density in first step


--------------------------------------------------------------------------------------------------------


 Maximum index for augmentation-charges         1406 (set IRDMAX)


--------------------------------------------------------------------------------------------------------


 First call to EWALD:  gamma=   0.266
 Maximum number of real-space cells 4x 4x 2
 Maximum number of reciprocal cells 2x 2x 5

 FEWALD executed in parallel
    FEWALD:  cpu time    0.00: real time    0.00


----------------------------------------- Iteration    1(   1)  ---------------------------------------


    POTLOK:  cpu time    0.21: real time    0.21
    SETDIJ:  cpu time    0.01: real time    0.01
     EDDAV:  cpu time  153.82: real time  154.12
 BZINTS: Fermi energy: 15.460693;128.000000 electrons
         Band energy:  10.279698;  BLOECHL correction: -0.114000
       DOS:  cpu time    0.21: real time    0.21
    --------------------------------------------
      LOOP:  cpu time  154.26: real time  154.57

 eigenvalue-minimisations  : 27396
 total energy-change (2. order) : 0.6115874E+03  (-0.7117315E+04)
 number of electron     128.0000000 magnetization 
 augmentation part      128.0000000 magnetization 

 Free energy of the ion-electron system (eV)
  ---------------------------------------------------
  alpha Z        PSCENC =       281.74243124
  Ewald energy   TEWEN  =     -3451.21658878
  -Hartree energ DENC   =     -1343.73849095
  -exchange      EXHF   =         0.00000000
  -V(xc)+E(xc)   XCENC  =       442.52644154
  PAW double counting   =      1210.60617908    -1247.42152856
  entropy T*S    EENTRO =         0.00000000
  eigenvalues    EBANDS =        10.27969846
  atomic energy  EATOM  =      4708.80920826
  ---------------------------------------------------
  free energy    TOTEN  =       611.58735030 eV

  energy without entropy =      611.58735030  energy(sigma->0) =      611.58735030


--------------------------------------------------------------------------------------------------------




----------------------------------------- Iteration    1(   2)  ---------------------------------------


     EDDAV:  cpu time  181.34: real time  181.45
 BZINTS: Fermi energy:  3.340758;128.000000 electrons
         Band energy:-862.306812;  BLOECHL correction: -0.001181
       DOS:  cpu time    0.17: real time    0.17
    --------------------------------------------
      LOOP:  cpu time  181.52: real time  181.62

 eigenvalue-minimisations  : 34272
 total energy-change (2. order) :-0.8725865E+03  (-0.8416456E+03)
 number of electron     128.0000000 magnetization 
 augmentation part      128.0000000 magnetization 

 Free energy of the ion-electron system (eV)
  ---------------------------------------------------
  alpha Z        PSCENC =       281.74243124
  Ewald energy   TEWEN  =     -3451.21658878
  -Hartree energ DENC   =     -1343.73849095
  -exchange      EXHF   =         0.00000000
  -V(xc)+E(xc)   XCENC  =       442.52644154
  PAW double counting   =      1210.60617908    -1247.42152856
  entropy T*S    EENTRO =         0.00000000
  eigenvalues    EBANDS =      -862.30681187
  atomic energy  EATOM  =      4708.80920826
  ---------------------------------------------------
  free energy    TOTEN  =      -260.99916004 eV

  energy without entropy =     -260.99916004  energy(sigma->0) =     -260.99916004


--------------------------------------------------------------------------------------------------------




----------------------------------------- Iteration    1(   3)  ---------------------------------------


     EDDAV:  cpu time  178.30: real time  178.40
 BZINTS: Fermi energy:  2.691994;128.000000 electrons
         Band energy:-914.424056;  BLOECHL correction: -0.000000
       DOS:  cpu time    0.09: real time    0.09
    --------------------------------------------
      LOOP:  cpu time  178.39: real time  178.50

 eigenvalue-minimisations  : 33384
 total energy-change (2. order) :-0.5211724E+02  (-0.5164166E+02)
 number of electron     128.0000000 magnetization 
 augmentation part      128.0000000 magnetization 

 Free energy of the ion-electron system (eV)
  ---------------------------------------------------
  alpha Z        PSCENC =       281.74243124
  Ewald energy   TEWEN  =     -3451.21658878
  -Hartree energ DENC   =     -1343.73849095
  -exchange      EXHF   =         0.00000000
  -V(xc)+E(xc)   XCENC  =       442.52644154
  PAW double counting   =      1210.60617908    -1247.42152856
  entropy T*S    EENTRO =         0.00000000
  eigenvalues    EBANDS =      -914.42405603
  atomic energy  EATOM  =      4708.80920826
  ---------------------------------------------------
  free energy    TOTEN  =      -313.11640419 eV

  energy without entropy =     -313.11640419  energy(sigma->0) =     -313.11640419


--------------------------------------------------------------------------------------------------------




----------------------------------------- Iteration    1(   4)  ---------------------------------------


     EDDAV:  cpu time  186.03: real time  186.13
 BZINTS: Fermi energy:  2.687003;128.000000 electrons
         Band energy:-915.439070;  BLOECHL correction:  0.000000
       DOS:  cpu time    0.07: real time    0.07
    --------------------------------------------
      LOOP:  cpu time  186.10: real time  186.21

 eigenvalue-minimisations  : 35316
 total energy-change (2. order) :-0.1015014E+01  (-0.1013088E+01)
 number of electron     128.0000000 magnetization 
 augmentation part      128.0000000 magnetization 

 Free energy of the ion-electron system (eV)
  ---------------------------------------------------
  alpha Z        PSCENC =       281.74243124
  Ewald energy   TEWEN  =     -3451.21658878
  -Hartree energ DENC   =     -1343.73849095
  -exchange      EXHF   =         0.00000000
  -V(xc)+E(xc)   XCENC  =       442.52644154
  PAW double counting   =      1210.60617908    -1247.42152856
  entropy T*S    EENTRO =         0.00000000
  eigenvalues    EBANDS =      -915.43906989
  atomic energy  EATOM  =      4708.80920826
  ---------------------------------------------------
  free energy    TOTEN  =      -314.13141805 eV

  energy without entropy =     -314.13141805  energy(sigma->0) =     -314.13141805


--------------------------------------------------------------------------------------------------------




----------------------------------------- Iteration    1(   5)  ---------------------------------------


     EDDAV:  cpu time  187.51: real time  187.62
 BZINTS: Fermi energy:  2.688238;128.000000 electrons
         Band energy:-915.468546;  BLOECHL correction:  0.000000
       DOS:  cpu time    0.07: real time    0.07
    CHARGE:  cpu time    7.57: real time    7.58
    MIXING:  cpu time    0.01: real time    0.01
    --------------------------------------------
      LOOP:  cpu time  195.17: real time  195.28

 eigenvalue-minimisations  : 35328
 total energy-change (2. order) :-0.2947625E-01  (-0.2946313E-01)
 number of electron     128.0000013 magnetization 
 augmentation part        3.4035373 magnetization 

 Broyden mixing:
  rms(total) = 0.22091E+01    rms(broyden)= 0.22088E+01
  rms(prec ) = 0.25812E+01
  weight for this iteration     100.00

 Free energy of the ion-electron system (eV)
  ---------------------------------------------------
  alpha Z        PSCENC =       281.74243124
  Ewald energy   TEWEN  =     -3451.21658878
  -Hartree energ DENC   =     -1343.73849095
  -exchange      EXHF   =         0.00000000
  -V(xc)+E(xc)   XCENC  =       442.52644154
  PAW double counting   =      1210.60617908    -1247.42152856
  entropy T*S    EENTRO =         0.00000000
  eigenvalues    EBANDS =      -915.46854614
  atomic energy  EATOM  =      4708.80920826
  ---------------------------------------------------
  free energy    TOTEN  =      -314.16089430 eV

  energy without entropy =     -314.16089430  energy(sigma->0) =     -314.16089430


--------------------------------------------------------------------------------------------------------




----------------------------------------- Iteration    1(   6)  ---------------------------------------


    POTLOK:  cpu time    0.21: real time    0.21
    SETDIJ:  cpu time    0.01: real time    0.02
     EDDAV:  cpu time  170.74: real time  170.84
 BZINTS: Fermi energy:  3.489688;128.000000 electrons
         Band energy:-770.024225;  BLOECHL correction:  0.000000
       DOS:  cpu time    0.08: real time    0.08
    CHARGE:  cpu time    7.61: real time    7.62
    MIXING:  cpu time    0.01: real time    0.01
    --------------------------------------------
      LOOP:  cpu time  178.66: real time  178.77

 eigenvalue-minimisations  : 31296
 total energy-change (2. order) : 0.1464010E+02  (-0.1504345E+01)
 number of electron     128.0000012 magnetization 
 augmentation part        3.2468246 magnetization 

 Broyden mixing:
  rms(total) = 0.11591E+01    rms(broyden)= 0.11591E+01
  rms(prec ) = 0.13469E+01
  weight for this iteration     100.00

 eigenvalues of (default mixing * dielectric matrix)
  average eigenvalue GAMMA=   2.0332
  2.0332

 Free energy of the ion-electron system (eV)
  ---------------------------------------------------
  alpha Z        PSCENC =       281.74243124
  Ewald energy   TEWEN  =     -3451.21658878
  -Hartree energ DENC   =     -1480.04040654
  -exchange      EXHF   =         0.00000000
  -V(xc)+E(xc)   XCENC  =       450.96218459
  PAW double counting   =      1642.57057959    -1682.32398189
  entropy T*S    EENTRO =         0.00000000
  eigenvalues    EBANDS =      -770.02422535
  atomic energy  EATOM  =      4708.80920826
  ---------------------------------------------------
  free energy    TOTEN  =      -299.52079887 eV

  energy without entropy =     -299.52079887  energy(sigma->0) =     -299.52079887


--------------------------------------------------------------------------------------------------------




----------------------------------------- Iteration    1(   7)  ---------------------------------------


    POTLOK:  cpu time    0.21: real time    0.21
    SETDIJ:  cpu time    0.01: real time    0.01
     EDDAV:  cpu time  168.43: real time  168.53
 BZINTS: Fermi energy:  4.280508;128.000000 electrons
         Band energy:-620.388867;  BLOECHL correction: -0.000000
       DOS:  cpu time    0.06: real time    0.06
    CHARGE:  cpu time    7.66: real time    7.67
    MIXING:  cpu time    0.01: real time    0.03
    --------------------------------------------
      LOOP:  cpu time  176.39: real time  176.52

 eigenvalue-minimisations  : 30828
 total energy-change (2. order) : 0.4700041E+01  (-0.1608466E+01)
 number of electron     128.0000011 magnetization 
 augmentation part        3.0795202 magnetization 

 Broyden mixing:
  rms(total) = 0.19630E+00    rms(broyden)= 0.19623E+00
  rms(prec ) = 0.21004E+00
  weight for this iteration     100.00

 eigenvalues of (default mixing * dielectric matrix)
  average eigenvalue GAMMA=   2.1699
  2.1699  2.1699

 Free energy of the ion-electron system (eV)
  ---------------------------------------------------
  alpha Z        PSCENC =       281.74243124
  Ewald energy   TEWEN  =     -3451.21658878
  -Hartree energ DENC   =     -1632.23538118
  -exchange      EXHF   =         0.00000000
  -V(xc)+E(xc)   XCENC  =       460.61832241
  PAW double counting   =      2182.17004036    -2224.31992316
  entropy T*S    EENTRO =         0.00000000
  eigenvalues    EBANDS =      -620.38886700
  atomic energy  EATOM  =      4708.80920826
  ---------------------------------------------------
  free energy    TOTEN  =      -294.82075785 eV

  energy without entropy =     -294.82075785  energy(sigma->0) =     -294.82075785


--------------------------------------------------------------------------------------------------------




----------------------------------------- Iteration    1(   8)  ---------------------------------------


    POTLOK:  cpu time    0.21: real time    0.21
    SETDIJ:  cpu time    0.01: real time    0.02
     EDDAV:  cpu time  169.03: real time  169.13
 BZINTS: Fermi energy:  4.255514;128.000000 electrons
         Band energy:-622.841396;  BLOECHL correction:  0.000000
       DOS:  cpu time    0.06: real time    0.06
    CHARGE:  cpu time    7.79: real time    7.80
    MIXING:  cpu time    0.01: real time    0.01
    --------------------------------------------
      LOOP:  cpu time  177.12: real time  177.23

 eigenvalue-minimisations  : 31080
 total energy-change (2. order) :-0.7436610E-01  (-0.4668621E-01)
 number of electron     128.0000011 magnetization 
 augmentation part        3.0728088 magnetization 

 Broyden mixing:
  rms(total) = 0.39496E-01    rms(broyden)= 0.39480E-01
  rms(prec ) = 0.56369E-01
  weight for this iteration     100.00

 eigenvalues of (default mixing * dielectric matrix)
  average eigenvalue GAMMA=   1.6961
  2.3951  2.0379  0.6554

 Free energy of the ion-electron system (eV)
  ---------------------------------------------------
  alpha Z        PSCENC =       281.74243124
  Ewald energy   TEWEN  =     -3451.21658878
  -Hartree energ DENC   =     -1630.53830714
  -exchange      EXHF   =         0.00000000
  -V(xc)+E(xc)   XCENC  =       460.51886371
  PAW double counting   =      2210.08510779    -2251.45444274
  entropy T*S    EENTRO =         0.00000000
  eigenvalues    EBANDS =      -622.84139630
  atomic energy  EATOM  =      4708.80920826
  ---------------------------------------------------
  free energy    TOTEN  =      -294.89512396 eV

  energy without entropy =     -294.89512396  energy(sigma->0) =     -294.89512396


--------------------------------------------------------------------------------------------------------




----------------------------------------- Iteration    1(   9)  ---------------------------------------


    POTLOK:  cpu time    0.21: real time    0.21
    SETDIJ:  cpu time    0.01: real time    0.01
     EDDAV:  cpu time  173.37: real time  173.47
 BZINTS: Fermi energy:  4.261689;128.000000 electrons
         Band energy:-620.959989;  BLOECHL correction:  0.000000
       DOS:  cpu time    0.07: real time    0.07
    CHARGE:  cpu time    7.63: real time    7.63
    MIXING:  cpu time    0.01: real time    0.01
    --------------------------------------------
      LOOP:  cpu time  181.30: real time  181.41

 eigenvalue-minimisations  : 32136
 total energy-change (2. order) :-0.1349069E-03  (-0.2563915E-02)
 number of electron     128.0000011 magnetization 
 augmentation part        3.0695572 magnetization 

 Broyden mixing:
  rms(total) = 0.20345E-01    rms(broyden)= 0.20344E-01
  rms(prec ) = 0.34454E-01
  weight for this iteration     100.00

 eigenvalues of (default mixing * dielectric matrix)
  average eigenvalue GAMMA=   1.5658
  2.4192  2.0303  0.9068  0.9068

 Free energy of the ion-electron system (eV)
  ---------------------------------------------------
  alpha Z        PSCENC =       281.74243124
  Ewald energy   TEWEN  =     -3451.21658878
  -Hartree energ DENC   =     -1632.60100023
  -exchange      EXHF   =         0.00000000
  -V(xc)+E(xc)   XCENC  =       460.65891351
  PAW double counting   =      2218.89624327    -2260.22447741
  entropy T*S    EENTRO =         0.00000000
  eigenvalues    EBANDS =      -620.95998874
  atomic energy  EATOM  =      4708.80920826
  ---------------------------------------------------
  free energy    TOTEN  =      -294.89525886 eV

  energy without entropy =     -294.89525886  energy(sigma->0) =     -294.89525886


--------------------------------------------------------------------------------------------------------




----------------------------------------- Iteration    1(  10)  ---------------------------------------


    POTLOK:  cpu time    0.21: real time    0.21
    SETDIJ:  cpu time    0.01: real time    0.02
     EDDAV:  cpu time  216.53: real time  216.64
 BZINTS: Fermi energy:  4.268779;128.000000 electrons
         Band energy:-620.090134;  BLOECHL correction:  0.000000
       DOS:  cpu time    0.06: real time    0.06
    CHARGE:  cpu time    7.49: real time    7.49
    MIXING:  cpu time    0.01: real time    0.01
    --------------------------------------------
      LOOP:  cpu time  224.32: real time  224.44

 eigenvalue-minimisations  : 42444
 total energy-change (2. order) :-0.1143282E-02  (-0.3480363E-02)
 number of electron     128.0000011 magnetization 
 augmentation part        3.0687402 magnetization 

 Broyden mixing:
  rms(total) = 0.18258E-01    rms(broyden)= 0.18242E-01
  rms(prec ) = 0.33222E-01
  weight for this iteration     100.00

 eigenvalues of (default mixing * dielectric matrix)
  average eigenvalue GAMMA=   1.3979
  2.5153  1.9692  1.1376  0.6838  0.6838

 Free energy of the ion-electron system (eV)
[...]
     79      11.5915      0.00000
     80      11.5951      0.00000
     81      12.3838      0.00000
     82      12.3850      0.00000
     83      12.6076      0.00000
     84      12.6092      0.00000

 k-point   162 :      -0.2222    0.4444    0.5000
  band No.  band energies     occupation 
      1     -14.4092      2.00000
      2     -14.4090      2.00000
      3     -14.2709      2.00000
      4     -14.2705      2.00000
      5     -12.4796      2.00000
      6     -12.4782      2.00000
      7     -12.4733      2.00000
      8     -12.4721      2.00000
      9     -12.3590      2.00000
     10     -12.3577      2.00000
     11     -12.3529      2.00000
     12     -12.3515      2.00000
     13      -9.2425      2.00000
     14      -9.2409      2.00000
     15      -9.1924      2.00000
     16      -9.1909      2.00000
     17      -8.2744      2.00000
     18      -8.2716      2.00000
     19      -8.2452      2.00000
     20      -8.2419      2.00000
     21      -5.2688      2.00000
     22      -5.2657      2.00000
     23      -5.2583      2.00000
     24      -5.2569      2.00000
     25      -5.2099      2.00000
     26      -5.2074      2.00000
     27      -5.2002      2.00000
     28      -5.1985      2.00000
     29      -4.9649      2.00000
     30      -4.9628      2.00000
     31      -4.9157      2.00000
     32      -4.9139      2.00000
     33      -2.7930      2.00000
     34      -2.7923      2.00000
     35      -2.3488      2.00000
     36      -2.3474      2.00000
     37      -2.3343      2.00000
     38      -2.3323      2.00000
     39      -2.3169      2.00000
     40      -2.3161      2.00000
     41      -2.3029      2.00000
     42      -2.3001      2.00000
     43      -1.7544      2.00000
     44      -1.7533      2.00000
     45      -1.4110      2.00000
     46      -1.4058      2.00000
     47      -1.3907      2.00000
     48      -1.3877      2.00000
     49      -0.5353      2.00000
     50      -0.5343      2.00000
     51      -0.5300      2.00000
     52      -0.5292      2.00000
     53      -0.4409      2.00000
     54      -0.4376      2.00000
     55      -0.4282      2.00000
     56      -0.4225      2.00000
     57       0.3775      2.00000
     58       0.3788      2.00000
     59       0.3830      2.00000
     60       0.3843      2.00000
     61       2.7765      2.00000
     62       2.7790      2.00000
     63       3.1467      2.00000
     64       3.1494      2.00000
     65       5.4597      0.00000
     66       5.4631      0.00000
     67       5.4985      0.00000
     68       5.5018      0.00000
     69       8.7977      0.00000
     70       8.8006      0.00000
     71       8.8065      0.00000
     72       8.8081      0.00000
     73       9.2110      0.00000
     74       9.2136      0.00000
     75       9.2162      0.00000
     76       9.2180      0.00000
     77       9.9328      0.00000
     78       9.9344      0.00000
     79      12.2760      0.00000
     80      12.2784      0.00000
     81      12.2812      0.00000
     82      12.2840      0.00000
     83      12.9609      0.00000
     84      12.9752      0.00000

 k-point   163 :      -0.1111    0.4444    0.5000
  band No.  band energies     occupation 
      1     -14.3361      2.00000
      2     -14.3359      2.00000
      3     -14.1985      2.00000
      4     -14.1981      2.00000
      5     -13.0400      2.00000
      6     -13.0399      2.00000
      7     -12.9143      2.00000
      8     -12.9140      2.00000
      9     -11.7819      2.00000
     10     -11.7818      2.00000
     11     -11.6680      2.00000
     12     -11.6677      2.00000
     13      -9.9912      2.00000
     14      -9.9910      2.00000
     15      -9.8978      2.00000
     16      -9.8974      2.00000
     17      -7.5022      2.00000
     18      -7.5007      2.00000
     19      -7.4379      2.00000
     20      -7.4364      2.00000
     21      -5.8523      2.00000
     22      -5.8507      2.00000
     23      -5.7951      2.00000
     24      -5.7936      2.00000
     25      -4.8590      2.00000
     26      -4.8572      2.00000
     27      -4.8126      2.00000
     28      -4.8110      2.00000
     29      -4.5951      2.00000
     30      -4.5948      2.00000
     31      -4.5391      2.00000
     32      -4.5387      2.00000
     33      -3.4054      2.00000
     34      -3.4039      2.00000
     35      -3.3680      2.00000
     36      -3.3663      2.00000
     37      -2.7061      2.00000
     38      -2.7054      2.00000
     39      -1.7420      2.00000
     40      -1.7402      2.00000
     41      -1.7091      2.00000
     42      -1.7075      2.00000
     43      -1.6707      2.00000
     44      -1.6693      2.00000
     45      -1.4943      2.00000
     46      -1.4939      2.00000
     47      -1.4692      2.00000
     48      -1.4688      2.00000
     49      -1.1840      2.00000
     50      -1.1832      2.00000
     51      -0.3659      2.00000
     52      -0.3645      2.00000
     53      -0.3467      2.00000
     54      -0.3453      2.00000
     55      -0.2296      2.00000
     56      -0.2285      2.00000
     57       0.2601      2.00000
     58       0.2609      2.00000
     59       1.1163      2.00000
     60       1.1175      2.00000
     61       2.1731      2.00000
     62       2.1744      2.00000
     63       2.7953      2.00000
     64       2.7970      2.00000
     65       5.8436      0.00000
     66       5.8458      0.00000
     67       6.1683      0.00000
     68       6.1699      0.00000
     69       7.8646      0.00000
     70       7.8664      0.00000
     71       8.2382      0.00000
     72       8.2397      0.00000
     73       9.7045      0.00000
     74       9.7068      0.00000
     75      10.0177      0.00000
     76      10.0194      0.00000
     77      10.1303      0.00000
     78      10.1318      0.00000
     79      11.5939      0.00000
     80      11.5975      0.00000
     81      12.3507      0.00000
     82      12.3517      0.00000
     83      12.5770      0.00000
     84      12.5779      0.00000


--------------------------------------------------------------------------------------------------------


 soft charge-density along one line, spin component           1
         0         1         2         3         4         5         6         7         8         9
 total charge-density along one line
 
 pseudopotential strength for first ion, spin component:           1
  9.798   0.006  -0.000  -0.000   0.000   0.000   0.000  -0.000
  0.006  -0.002   0.000   0.000   0.000   0.000   0.000  -0.000
 -0.000   0.000  -3.966   0.000   0.000  -0.015   0.000   0.000
 -0.000   0.000   0.000  -3.960   0.000   0.000  -0.012   0.000
  0.000   0.000   0.000   0.000  -3.966   0.000   0.000  -0.015
  0.000   0.000  -0.015   0.000   0.000  -0.764   0.000   0.000
  0.000   0.000   0.000  -0.012   0.000   0.000  -0.764  -0.000
 -0.000  -0.000   0.000   0.000  -0.015   0.000  -0.000  -0.764
 total augmentation occupancy for first ion, spin component:           1
  1.469  -1.109   0.000   0.001   0.003   0.000  -0.001   0.001
 -1.109   1.040  -0.000   0.007  -0.002  -0.000   0.002  -0.001
  0.000  -0.000   1.224  -0.000  -0.002   0.225  -0.000  -0.001
  0.001   0.007  -0.000   0.929  -0.000  -0.000   0.103  -0.000
  0.003  -0.002  -0.002  -0.000   1.224  -0.001  -0.000   0.225
  0.000  -0.000   0.225  -0.000  -0.001   0.047  -0.000  -0.000
 -0.001   0.002  -0.000   0.103  -0.000  -0.000   0.013  -0.000
  0.001  -0.001  -0.001  -0.000   0.225  -0.000  -0.000   0.047


------------------------ aborting loop because EDIFF is reached ----------------------------------------


    CHARGE:  cpu time    7.48: real time    7.48
    FORLOC:  cpu time    0.05: real time    0.05
    FORNL :  cpu time   52.67: real time   52.70
    STRESS:  cpu time   98.79: real time   98.84
    FORHAR:  cpu time    0.08: real time    0.08
    MIXING:  cpu time    0.01: real time    0.01
    OFIELD:  cpu time    0.00: real time    0.00

 ---------------------------------------------------------------------------------------------

         DFTD3 V3.0 Rev 1        
 IVDW         = 12
 DF pbe       
 parameters
 VDW_S6       =    1.0000
 VDW_S8       =    0.7875
 VDW_A1       =    0.4289
 VDW_A2       =    4.4407
 k1-k3        =   16.0000    1.3333   -4.0000
 VDW_RADIUS   =   50.2022 A
 VDW_CNRADIUS =   21.1671 A
 Edisp (eV)   -4.73048

 E6    (eV) :    -3.3982
 E8    (eV) :    -1.3322
 % E8        : 28.16
    FORVDW:  cpu time    0.27: real time    0.78

  FORCE on cell =-STRESS in cart. coord.  units (eV):
  Direction    XX          YY          ZZ          XY          YZ          ZX
  --------------------------------------------------------------------------------------
  Alpha Z   281.74243   281.74243   281.74243
  Ewald     851.98758   851.51544 -5154.73822    -1.13429    -0.00058    -0.00683
  Hartree  1454.50801  1454.51907 -1273.92784    -0.09076    -0.00015    -0.00143
  E(xc)    -467.34778  -467.35452  -484.98883    -0.00862    -0.00002     0.00001
  Local   -3916.89095 -3916.53089  4547.83885     0.99958     0.00037     0.00699
  n-local  -112.49371  -112.60496  -102.57674    -0.10171    -0.00028     0.00042
  augment   -12.37358   -12.37272   -11.33927     0.00189     0.00001     0.00001
  Kinetic  1921.34956  1922.15963  2201.08852     0.82005     0.00402    -0.00453
  Fock        0.00000     0.00000     0.00000     0.00000     0.00000     0.00000
  vdW        -0.80037    -0.79115    -5.69364     0.00833     0.00000    -0.00001
  -------------------------------------------------------------------------------------
  Total      -0.31880     0.28234    -2.59474     0.49446     0.00336    -0.00538
  in kB      -1.72477     1.52750   -14.03799     2.67512     0.01819    -0.02909
  external pressure =       -4.75 kB  Pullay stress =        0.00 kB


 VOLUME and BASIS-vectors are now :
 -----------------------------------------------------------------------------
  energy-cutoff  :      600.00
  volume of cell :      296.14
      direct lattice vectors                 reciprocal lattice vectors
     4.932874498 -0.001919286  0.000000000     0.202767147  0.117172881  0.000000000
    -2.468099399  4.271034986  0.000000000     0.000091118  0.234187941  0.000000000
     0.000000000  0.000000000 14.059311544     0.000000000  0.000000000  0.071127238

  length of vectors
     4.932874871  4.932874871 14.059311544     0.234187958  0.234187958  0.071127238


 FORCES acting on ions
    electron-ion (+dipol)            ewald-force                    non-local-force                 convergence-correction
 -----------------------------------------------------------------------------------------------
   0.609E+00 0.632E-01 -.186E+01   -.727E+00 -.583E-01 0.190E+01   -.944E-01 0.289E-02 -.176E+00   -.432E-04 0.882E-05 0.569E-02
   -.303E+00 0.664E-01 0.386E+00   0.317E+00 -.623E-01 -.374E+00   0.136E-01 0.280E-02 -.233E-01   -.733E-04 0.611E-05 0.564E-02
   -.136E+00 0.163E+00 0.386E+00   0.126E+00 -.173E+00 -.374E+00   0.325E-02 -.325E-02 -.233E-01   -.536E-04 0.183E-04 0.564E-02
   -.136E+00 -.304E-01 0.386E+00   0.126E+00 0.484E-01 -.375E+00   0.334E-02 0.866E-02 -.232E-01   -.569E-04 -.241E-05 0.564E-02
   -.117E+00 0.660E-01 -.867E-01   0.108E+00 -.622E-01 0.926E-01   -.535E-02 0.260E-02 0.121E-02   0.449E-04 0.265E-04 -.575E-02
   -.117E+00 0.660E-01 -.862E-01   0.108E+00 -.622E-01 0.921E-01   -.536E-02 0.260E-02 0.122E-02   0.448E-04 0.211E-04 -.575E-02
   -.117E+00 0.660E-01 -.862E-01   0.108E+00 -.622E-01 0.921E-01   -.536E-02 0.261E-02 0.122E-02   0.487E-04 0.198E-04 -.575E-02
   -.117E+00 0.659E-01 -.862E-01   0.108E+00 -.621E-01 0.921E-01   -.535E-02 0.260E-02 0.122E-02   0.402E-04 0.203E-04 -.575E-02
   0.115E+00 -.706E-01 -.885E-01   -.108E+00 0.653E-01 0.813E-01   0.492E-02 -.318E-02 -.123E-02   -.178E-04 0.335E-05 0.706E-02
   0.115E+00 -.645E-01 -.883E-01   -.108E+00 0.590E-01 0.812E-01   0.483E-02 -.306E-02 -.142E-02   -.133E-04 0.347E-05 0.706E-02
   0.110E+00 -.675E-01 -.884E-01   -.102E+00 0.621E-01 0.812E-01   0.477E-02 -.303E-02 -.132E-02   -.159E-04 0.215E-05 0.706E-02
   0.121E+00 -.675E-01 -.134E+00   -.114E+00 0.621E-01 0.127E+00   0.495E-02 -.309E-02 -.102E-02   -.164E-04 0.534E-05 0.706E-02
   0.115E+00 -.685E-01 -.746E-01   -.108E+00 0.653E-01 0.814E-01   0.472E-02 -.248E-02 -.138E-02   -.273E-04 0.136E-04 -.695E-02
   0.115E+00 -.623E-01 -.747E-01   -.108E+00 0.589E-01 0.814E-01   0.482E-02 -.236E-02 -.118E-02   -.335E-04 0.158E-04 -.695E-02
   0.110E+00 -.654E-01 -.746E-01   -.102E+00 0.622E-01 0.814E-01   0.467E-02 -.250E-02 -.128E-02   -.336E-04 0.148E-04 -.695E-02
   0.121E+00 -.655E-01 -.119E+00   -.114E+00 0.622E-01 0.126E+00   0.485E-02 -.244E-02 -.906E-03   -.294E-04 0.144E-04 -.695E-02
   0.367E-01 -.662E-01 0.324E+00   -.338E-01 0.623E-01 -.327E+00   0.433E-02 -.259E-02 0.103E-01   0.489E-04 -.893E-05 0.565E-02
   0.336E+00 -.579E-01 0.849E+00   -.331E+00 0.531E-01 -.887E+00   0.282E-01 -.237E-02 0.805E-01   0.614E-04 -.777E-05 0.565E-02
   -.210E+00 -.380E+00 0.845E+00   0.268E+00 0.406E+00 -.882E+00   0.199E-01 -.728E-02 0.802E-01   0.552E-04 -.130E-04 0.565E-02
   -.200E+00 0.244E+00 0.852E+00   0.256E+00 -.278E+00 -.891E+00   0.209E-01 0.167E-02 0.808E-01   0.582E-04 -.769E-05 0.565E-02
   0.116E+00 -.656E-01 -.862E-01   -.107E+00 0.620E-01 0.921E-01   0.518E-02 -.253E-02 -.262E-03   -.443E-04 -.248E-04 -.574E-02
   0.116E+00 -.656E-01 -.864E-01   -.107E+00 0.620E-01 0.923E-01   0.518E-02 -.253E-02 -.257E-03   -.442E-04 -.214E-04 -.574E-02
   0.116E+00 -.656E-01 -.864E-01   -.107E+00 0.620E-01 0.923E-01   0.518E-02 -.253E-02 -.257E-03   -.480E-04 -.194E-04 -.574E-02
   0.116E+00 -.656E-01 -.864E-01   -.107E+00 0.620E-01 0.923E-01   0.518E-02 -.253E-02 -.254E-03   -.412E-04 -.186E-04 -.574E-02
   -.989E-01 0.595E-01 -.986E-01   0.912E-01 -.543E-01 0.914E-01   -.479E-02 0.306E-02 0.608E-03   0.199E-04 -.504E-05 0.706E-02
   -.131E+00 0.561E-01 -.110E+00   0.124E+00 -.508E-01 0.103E+00   -.473E-02 0.297E-02 0.325E-03   0.164E-04 -.305E-05 0.706E-02
   -.112E+00 0.859E-01 -.104E+00   0.105E+00 -.809E-01 0.970E-01   -.469E-02 0.297E-02 0.471E-03   0.163E-04 -.366E-05 0.706E-02
   -.117E+00 0.671E-01 -.841E-01   0.110E+00 -.619E-01 0.770E-01   -.486E-02 0.300E-02 0.156E-03   0.192E-04 -.526E-05 0.706E-02
   -.130E+00 0.759E-01 -.958E-01   0.124E+00 -.731E-01 0.103E+00   -.446E-02 0.235E-02 0.388E-03   0.278E-04 -.112E-04 -.695E-02
   -.983E-01 0.725E-01 -.846E-01   0.914E-01 -.695E-01 0.913E-01   -.453E-02 0.227E-02 0.657E-03   0.322E-04 -.137E-04 -.695E-02
   -.111E+00 0.465E-01 -.900E-01   0.104E+00 -.434E-01 0.969E-01   -.442E-02 0.236E-02 0.517E-03   0.310E-04 -.170E-04 -.695E-02
   -.117E+00 0.650E-01 -.704E-01   0.110E+00 -.620E-01 0.772E-01   -.460E-02 0.233E-02 0.220E-03   0.269E-04 -.115E-04 -.694E-02
 -----------------------------------------------------------------------------------------------
   0.124E-04 0.138E-04 -.325E-02   0.115E-13 0.175E-13 0.171E-12   -.446E-04 -.215E-04 0.323E-02   0.813E-07 -.657E-06 0.153E-03
 
 
 POSITION                                       TOTAL-FORCE (eV/Angst)
 -----------------------------------------------------------------------------------
      2.46733      0.00044      1.76685        -0.213322      0.007821     -0.134610
      4.93046     -0.00052      1.75741         0.028204      0.006929     -0.005930
      1.22997      2.13595      1.75741        -0.006842     -0.013327     -0.005867
      3.69641      2.13499      1.75741        -0.006933      0.027278     -0.006091
      2.46402      0.00044      8.78707        -0.014719      0.006458      0.001406
      4.93046     -0.00052      8.78707        -0.014705      0.006460      0.001418
      1.22997      2.13595      8.78707        -0.014712      0.006458      0.001418
      3.69641      2.13499      8.78707        -0.014710      0.006464      0.001418
     -1.23163      2.13412      5.27224         0.012858     -0.008515     -0.001441
      1.23481      2.13316      5.27224         0.012751     -0.008586     -0.001475
     -2.46568      4.26964      5.27224         0.012865     -0.008457     -0.001457
      0.00076      4.26868      5.27224         0.012733     -0.008526     -0.001046
     -1.23163      2.13412     12.30190         0.012187     -0.005673     -0.001500
      1.23481      2.13316     12.30190         0.012278     -0.005737     -0.001467
     -2.46568      4.26964     12.30190         0.012286     -0.005789     -0.001483
      0.00076      4.26868     12.30190         0.012156     -0.005735     -0.001011
     -0.00332      1.42496      1.75741         0.007461     -0.006512      0.012151
      2.46311      1.42400      1.75741         0.033561     -0.007224      0.047837
     -1.23737      3.56047      1.75741         0.077512      0.018760      0.048231
      1.22906      3.55952      1.75741         0.077535     -0.031935      0.047394
     -0.00332      1.42496      8.78707         0.014111     -0.006191     -0.000133
      2.46311      1.42400      8.78707         0.014110     -0.006191     -0.000126
     -1.23737      3.56047      8.78707         0.014111     -0.006192     -0.000127
      1.22906      3.55952      8.78707         0.014110     -0.006194     -0.000123
      1.23571      0.70960      5.27224        -0.012533      0.008243      0.000442
      3.70215      0.70864      5.27224        -0.012263      0.008315      0.000453
      0.00166      2.84512      5.27224        -0.012460      0.008054      0.000451
      2.46810      2.84416      5.27224        -0.012341      0.008203     -0.000017
      1.23571      0.70960     12.30190        -0.011214      0.005236      0.000447
      3.70215      0.70864     12.30190        -0.011423      0.005312      0.000425
      0.00166      2.84512     12.30190        -0.011386      0.005457      0.000430
      2.46810      2.84416     12.30190        -0.011269      0.005337     -0.000017
 -----------------------------------------------------------------------------------
    total drift:                               -0.000032     -0.000008      0.000130


--------------------------------------------------------------------------------------------------------



  FREE ENERGIE OF THE ION-ELECTRON SYSTEM (eV)
  ---------------------------------------------------
  free  energy   TOTEN  =      -299.62661627 eV

  energy  without entropy=     -299.62661627  energy(sigma->0) =     -299.62661627
 


--------------------------------------------------------------------------------------------------------


    POTLOK:  cpu time    0.22: real time    0.22


--------------------------------------------------------------------------------------------------------


     LOOP+:  cpu time 3991.25: real time 3994.21
    4ORBIT:  cpu time    0.00: real time    0.00
 BZINTS: Fermi energy:  4.279816;128.000000 electrons
         Band energy:-618.641118;  BLOECHL correction: -0.000000

 total amount of memory used by VASP on root node   538597. kBytes
========================================================================

   base      :      30000. kBytes
   nonl-proj :     108542. kBytes
   fftplans  :       9104. kBytes
   grid      :      19307. kBytes
   one-center:         98. kBytes
   wavefun   :     371546. kBytes
 
  
  
 General timing and accounting informations for this job:
 ========================================================
  
                  Total CPU time used (sec):     4034.700
                            User time (sec):     3471.940
                          System time (sec):      562.759
                         Elapsed time (sec):     4038.763
  
                   Maximum memory used (kb):      647472.
                   Average memory used (kb):           0.
  
                          Minor page faults:     59262865
                          Major page faults:           54
                 Voluntary context switches:         1277
