  32  32   0   0
  0.9217531E+01  0.4934311E-09  0.4934311E-09  0.1398954E-08  0.5000000E-15
  1.000000000000000E-004
  CAR 
 graphite                                
     15.11750789    -17.27255113  301      4.31303203      1.00000000
    -17.273  0.0000E+00  0.0000E+00
    -17.165  0.0000E+00  0.0000E+00
    -17.057  0.0000E+00  0.0000E+00
    -16.949  0.0000E+00  0.0000E+00
    -16.841  0.0000E+00  0.0000E+00
    -16.733  0.0000E+00  0.0000E+00
    -16.625  0.0000E+00  0.0000E+00
    -16.517  0.0000E+00  0.0000E+00
    -16.409  0.0000E+00  0.0000E+00
    -16.301  0.0000E+00  0.0000E+00
    -16.193  0.0000E+00  0.0000E+00
    -16.085  0.0000E+00  0.0000E+00
    -15.977  0.0000E+00  0.0000E+00
    -15.869  0.0000E+00  0.0000E+00
    -15.761  0.0000E+00  0.0000E+00
    -15.653  0.0000E+00  0.0000E+00
    -15.545  0.0000E+00  0.0000E+00
    -15.437  0.0000E+00  0.0000E+00
    -15.329  0.0000E+00  0.0000E+00
    -15.221  0.1189E+01  0.2370E-01
    -15.113  0.2912E+01  0.2583E+00
    -15.005  0.5197E+01  0.7014E+00
    -14.897  0.4926E+01  0.1228E+01
    -14.789  0.4907E+01  0.1762E+01
    -14.681  0.4967E+01  0.2295E+01
    -14.573  0.4935E+01  0.2831E+01
    -14.465  0.4913E+01  0.3359E+01
    -14.357  0.5023E+01  0.3896E+01
    -14.249  0.4997E+01  0.4437E+01
    -14.142  0.4963E+01  0.4975E+01
    -14.034  0.5716E+01  0.5548E+01
    -13.926  0.6061E+01  0.6184E+01
    -13.818  0.6548E+01  0.6885E+01
    -13.710  0.5054E+01  0.7478E+01
    -13.602  0.1764E+01  0.7762E+01
    -13.494  0.3866E+01  0.8046E+01
    -13.386  0.4504E+01  0.8526E+01
    -13.278  0.4500E+01  0.9014E+01
    -13.170  0.6628E+01  0.9781E+01
    -13.062  0.5414E+01  0.1052E+02
    -12.954  0.4366E+01  0.1100E+02
    -12.846  0.4511E+01  0.1148E+02
    -12.738  0.4620E+01  0.1197E+02
    -12.630  0.4731E+01  0.1247E+02
    -12.522  0.5322E+01  0.1301E+02
    -12.414  0.6206E+01  0.1362E+02
    -12.306  0.5415E+01  0.1424E+02
    -12.198  0.5609E+01  0.1483E+02
    -12.090  0.5141E+01  0.1541E+02
    -11.982  0.4809E+01  0.1595E+02
    -11.874  0.4911E+01  0.1647E+02
    -11.766  0.4995E+01  0.1701E+02
    -11.658  0.5053E+01  0.1755E+02
    -11.550  0.5173E+01  0.1810E+02
    -11.442  0.5544E+01  0.1868E+02
    -11.334  0.5844E+01  0.1930E+02
    -11.226  0.5721E+01  0.1993E+02
    -11.118  0.5667E+01  0.2054E+02
    -11.010  0.5768E+01  0.2116E+02
    -10.903  0.5230E+01  0.2177E+02
    -10.795  0.4878E+01  0.2229E+02
    -10.687  0.5356E+01  0.2285E+02
    -10.579  0.5367E+01  0.2343E+02
    -10.471  0.5486E+01  0.2402E+02
    -10.363  0.5701E+01  0.2462E+02
    -10.255  0.5940E+01  0.2525E+02
    -10.147  0.7647E+01  0.2596E+02
    -10.039  0.9703E+01  0.2700E+02
     -9.931  0.6381E+01  0.2786E+02
     -9.823  0.7039E+01  0.2848E+02
     -9.715  0.7410E+01  0.2923E+02
     -9.607  0.3569E+01  0.2968E+02
     -9.499  0.3200E+01  0.3005E+02
     -9.391  0.2831E+01  0.3038E+02
     -9.283  0.2461E+01  0.3066E+02
     -9.175  0.2422E+01  0.3091E+02
     -9.067  0.3147E+01  0.3124E+02
     -8.959  0.1435E+01  0.3150E+02
     -8.851  0.1619E+01  0.3166E+02
     -8.743  0.2541E+01  0.3188E+02
     -8.635  0.6876E+01  0.3232E+02
     -8.527  0.4412E+01  0.3307E+02
     -8.419  0.3929E+01  0.3349E+02
     -8.311  0.4258E+01  0.3394E+02
     -8.203  0.7524E+01  0.3459E+02
     -8.095  0.6350E+01  0.3536E+02
     -7.987  0.7435E+01  0.3610E+02
     -7.879  0.8500E+01  0.3696E+02
     -7.771  0.8040E+01  0.3791E+02
     -7.664  0.6289E+01  0.3864E+02
     -7.556  0.6030E+01  0.3931E+02
     -7.448  0.5774E+01  0.3995E+02
     -7.340  0.5541E+01  0.4056E+02
     -7.232  0.5351E+01  0.4115E+02
     -7.124  0.5170E+01  0.4171E+02
     -7.016  0.4974E+01  0.4226E+02
     -6.908  0.4855E+01  0.4279E+02
     -6.800  0.4826E+01  0.4331E+02
     -6.692  0.4795E+01  0.4383E+02
     -6.584  0.4635E+01  0.4435E+02
     -6.476  0.4418E+01  0.4483E+02
     -6.368  0.4364E+01  0.4531E+02
     -6.260  0.4034E+01  0.4572E+02
     -6.152  0.4272E+01  0.4616E+02
     -6.044  0.4902E+01  0.4665E+02
     -5.936  0.5751E+01  0.4723E+02
     -5.828  0.6501E+01  0.4789E+02
     -5.720  0.1082E+02  0.4881E+02
     -5.612  0.8570E+01  0.4986E+02
     -5.504  0.6324E+01  0.5067E+02
     -5.396  0.4078E+01  0.5123E+02
     -5.288  0.2689E+01  0.5157E+02
     -5.180  0.3062E+01  0.5187E+02
     -5.072  0.4306E+01  0.5226E+02
     -4.964  0.5604E+01  0.5280E+02
     -4.856  0.7173E+01  0.5348E+02
     -4.748  0.8028E+01  0.5433E+02
     -4.640  0.6818E+01  0.5513E+02
     -4.532  0.5624E+01  0.5580E+02
     -4.424  0.7401E+01  0.5646E+02
     -4.317  0.7253E+01  0.5727E+02
     -4.209  0.6742E+01  0.5802E+02
     -4.101  0.6231E+01  0.5872E+02
     -3.993  0.5768E+01  0.5937E+02
     -3.885  0.6380E+01  0.6001E+02
     -3.777  0.1980E+02  0.6109E+02
     -3.669  0.9838E+01  0.6221E+02
     -3.561  0.7947E+01  0.6316E+02
     -3.453  0.6764E+01  0.6395E+02
     -3.345  0.6771E+01  0.6466E+02
     -3.237  0.7537E+01  0.6543E+02
     -3.129  0.8570E+01  0.6629E+02
     -3.021  0.1036E+02  0.6730E+02
     -2.913  0.1436E+02  0.6864E+02
     -2.805  0.1283E+02  0.7019E+02
     -2.697  0.1274E+02  0.7151E+02
     -2.589  0.1323E+02  0.7294E+02
     -2.481  0.1510E+02  0.7437E+02
     -2.373  0.1252E+02  0.7595E+02
     -2.265  0.1938E+02  0.7737E+02
     -2.157  0.1229E+02  0.7916E+02
     -2.049  0.1484E+02  0.8047E+02
     -1.941  0.1679E+02  0.8260E+02
     -1.833  0.1738E+02  0.8452E+02
     -1.725  0.1531E+02  0.8638E+02
     -1.617  0.1130E+02  0.8780E+02
     -1.509  0.9424E+01  0.8891E+02
     -1.401  0.1076E+02  0.8990E+02
     -1.293  0.8329E+01  0.9091E+02
     -1.185  0.1140E+02  0.9193E+02
     -1.078  0.1290E+02  0.9327E+02
     -0.970  0.1862E+02  0.9470E+02
     -0.862  0.9044E+01  0.9611E+02
     -0.754  0.1041E+02  0.9718E+02
     -0.646  0.1068E+02  0.9834E+02
     -0.538  0.1042E+02  0.9947E+02
     -0.430  0.1131E+02  0.1006E+03
     -0.322  0.9518E+01  0.1017E+03
     -0.214  0.1066E+02  0.1028E+03
     -0.106  0.9528E+01  0.1038E+03
      0.002  0.9422E+01  0.1049E+03
      0.110  0.9238E+01  0.1059E+03
      0.218  0.9112E+01  0.1069E+03
      0.326  0.9570E+01  0.1079E+03
      0.434  0.9399E+01  0.1089E+03
      0.542  0.9526E+01  0.1099E+03
      0.650  0.9175E+01  0.1109E+03
      0.758  0.9178E+01  0.1119E+03
      0.866  0.9429E+01  0.1129E+03
      0.974  0.9408E+01  0.1139E+03
      1.082  0.9831E+01  0.1150E+03
      1.190  0.1013E+02  0.1161E+03
      1.298  0.7336E+01  0.1170E+03
      1.406  0.6417E+01  0.1177E+03
      1.514  0.5829E+01  0.1184E+03
      1.622  0.4868E+01  0.1190E+03
      1.730  0.4078E+01  0.1195E+03
      1.838  0.3648E+01  0.1199E+03
      1.946  0.6401E+01  0.1204E+03
      2.054  0.1004E+02  0.1213E+03
      2.161  0.7329E+01  0.1222E+03
      2.269  0.8399E+01  0.1232E+03
      2.377  0.6000E+01  0.1239E+03
      2.485  0.4947E+01  0.1245E+03
      2.593  0.4243E+01  0.1250E+03
      2.701  0.3621E+01  0.1254E+03
      2.809  0.3232E+01  0.1258E+03
      2.917  0.3065E+01  0.1261E+03
      3.025  0.2850E+01  0.1265E+03
      3.133  0.2396E+01  0.1267E+03
      3.241  0.2068E+01  0.1270E+03
      3.349  0.1839E+01  0.1272E+03
      3.457  0.1601E+01  0.1274E+03
      3.565  0.1361E+01  0.1275E+03
      3.673  0.1123E+01  0.1277E+03
      3.781  0.8875E+00  0.1278E+03
      3.889  0.6620E+00  0.1279E+03
      3.997  0.4693E+00  0.1279E+03
      4.105  0.2944E+00  0.1280E+03
      4.213  0.1336E+00  0.1280E+03
      4.321  0.2792E-02  0.1280E+03
      4.429  0.1203E+00  0.1280E+03
      4.537  0.2517E+00  0.1280E+03
      4.645  0.4000E+00  0.1281E+03
      4.753  0.5691E+00  0.1281E+03
      4.861  0.7759E+00  0.1282E+03
      4.969  0.1030E+01  0.1283E+03
      5.077  0.1393E+01  0.1284E+03
      5.185  0.1781E+01  0.1286E+03
      5.293  0.2147E+01  0.1288E+03
      5.400  0.2573E+01  0.1290E+03
      5.508  0.2777E+01  0.1293E+03
      5.616  0.3344E+01  0.1297E+03
      5.724  0.4228E+01  0.1301E+03
      5.832  0.6790E+01  0.1307E+03
      5.940  0.7950E+01  0.1317E+03
      6.048  0.8606E+01  0.1326E+03
      6.156  0.8322E+01  0.1335E+03
      6.264  0.7000E+01  0.1344E+03
      6.372  0.6455E+01  0.1351E+03
      6.480  0.6233E+01  0.1358E+03
      6.588  0.5592E+01  0.1364E+03
      6.696  0.5122E+01  0.1370E+03
      6.804  0.4541E+01  0.1375E+03
      6.912  0.3817E+01  0.1380E+03
      7.020  0.3624E+01  0.1384E+03
      7.128  0.3894E+01  0.1388E+03
      7.236  0.4440E+01  0.1392E+03
      7.344  0.4797E+01  0.1397E+03
      7.452  0.4598E+01  0.1402E+03
      7.560  0.4450E+01  0.1407E+03
      7.668  0.4303E+01  0.1412E+03
      7.776  0.4151E+01  0.1417E+03
      7.884  0.4008E+01  0.1421E+03
      7.992  0.3848E+01  0.1425E+03
      8.100  0.3691E+01  0.1429E+03
      8.208  0.3579E+01  0.1433E+03
      8.316  0.3503E+01  0.1437E+03
      8.424  0.3726E+01  0.1441E+03
      8.532  0.3898E+01  0.1445E+03
      8.639  0.3981E+01  0.1449E+03
      8.747  0.4051E+01  0.1454E+03
      8.855  0.4207E+01  0.1458E+03
      8.963  0.4269E+01  0.1463E+03
      9.071  0.4312E+01  0.1467E+03
      9.179  0.4390E+01  0.1472E+03
      9.287  0.4150E+01  0.1477E+03
      9.395  0.4128E+01  0.1481E+03
      9.503  0.4105E+01  0.1486E+03
      9.611  0.4112E+01  0.1490E+03
      9.719  0.4182E+01  0.1494E+03
      9.827  0.4366E+01  0.1499E+03
      9.935  0.4480E+01  0.1504E+03
     10.043  0.4557E+01  0.1509E+03
     10.151  0.4803E+01  0.1514E+03
     10.259  0.5506E+01  0.1519E+03
     10.367  0.5053E+01  0.1525E+03
     10.475  0.5043E+01  0.1530E+03
     10.583  0.4874E+01  0.1536E+03
     10.691  0.5896E+01  0.1541E+03
     10.799  0.3821E+01  0.1546E+03
     10.907  0.4133E+01  0.1551E+03
     11.015  0.3580E+01  0.1555E+03
     11.123  0.3500E+01  0.1559E+03
     11.231  0.2949E+01  0.1562E+03
     11.339  0.3762E+01  0.1566E+03
     11.447  0.4279E+01  0.1570E+03
     11.555  0.4652E+01  0.1575E+03
     11.663  0.7245E+01  0.1582E+03
     11.771  0.1082E+02  0.1592E+03
     11.879  0.1194E+02  0.1604E+03
     11.986  0.1411E+02  0.1618E+03
     12.094  0.1346E+02  0.1633E+03
     12.202  0.1089E+02  0.1646E+03
     12.310  0.8427E+01  0.1657E+03
     12.418  0.5758E+01  0.1664E+03
     12.526  0.4730E+01  0.1670E+03
     12.634  0.3411E+01  0.1675E+03
     12.742  0.2011E+01  0.1677E+03
     12.850  0.1169E+01  0.1679E+03
     12.958  0.3181E+00  0.1680E+03
     13.066  0.1252E-01  0.1680E+03
     13.174  0.0000E+00  0.1680E+03
     13.282  0.0000E+00  0.1680E+03
     13.390  0.0000E+00  0.1680E+03
     13.498  0.0000E+00  0.1680E+03
     13.606  0.0000E+00  0.1680E+03
     13.714  0.0000E+00  0.1680E+03
     13.822  0.0000E+00  0.1680E+03
     13.930  0.0000E+00  0.1680E+03
     14.038  0.0000E+00  0.1680E+03
     14.146  0.0000E+00  0.1680E+03
     14.254  0.0000E+00  0.1680E+03
     14.362  0.0000E+00  0.1680E+03
     14.470  0.0000E+00  0.1680E+03
     14.578  0.0000E+00  0.1680E+03
     14.686  0.0000E+00  0.1680E+03
     14.794  0.0000E+00  0.1680E+03
     14.902  0.0000E+00  0.1680E+03
     15.010  0.0000E+00  0.1680E+03
     15.118  0.0000E+00  0.1680E+03
