   32   32    1    1
  0.9217531E+01  0.4934311E-09  0.4934311E-09  0.1398954E-08  0.5000000E-15
  1.000000000000000E-004
  CAR 
 graphite                                
    128    163     84
 
  0.0000000E+00  0.0000000E+00  0.0000000E+00  0.3086420E-02
    1      -15.272551
    2      -15.167543
    3      -15.166990
    4      -15.056518
    5       -9.973820
    6       -9.971322
    7       -9.969210
    8       -9.933561
    9       -9.929540
   10       -9.929479
   11       -9.928715
   12       -9.928707
   13       -9.925338
   14       -9.893879
   15       -9.892078
   16       -9.889787
   17       -8.907819
   18       -8.906332
   19       -8.905265
   20       -8.884523
   21       -8.881981
   22       -8.881266
   23       -8.880465
   24       -8.880460
   25       -8.878277
   26       -8.847301
   27       -8.846049
   28       -8.844196
   29       -4.015785
   30       -3.294989
   31       -3.293545
   32       -2.432316
   33       -2.081559
   34       -2.079162
   35       -2.078123
   36       -2.064512
   37       -2.061915
   38       -2.061911
   39       -2.060959
   40       -2.058762
   41       -2.058500
   42       -2.044298
   43       -2.041854
   44       -2.040683
   45        1.300867
   46        1.305890
   47        1.310754
   48        1.311579
   49        1.313893
   50        1.315553
   51        1.319809
   52        1.324430
   53        1.648861
   54        1.650832
   55        1.652581
   56        1.957847
   57        1.961447
   58        1.961738
   59        1.961787
   60        1.961908
   61        1.965031
   62        2.194881
   63        2.196425
   64        2.197953
   65        5.818840
   66        5.820212
   67        5.821469
   68        5.969196
   69        5.973310
   70        5.974669
   71        5.975279
   72        5.975650
   73        5.979586
   74        6.390543
   75        6.392427
   76        6.394433
   77        8.304688
   78       10.629613
   79       10.632455
   80       11.551881
   81       11.557276
   82       11.559255
   83       11.694452
   84       11.697588
 
  0.1111111E+00  0.1387779E-16  0.0000000E+00  0.6172840E-02
    1      -15.199199
    2      -15.094586
    3      -15.094030
    4      -14.984093
    5      -10.754893
    6      -10.681451
    7      -10.681083
    8      -10.605477
    9      -10.214452
   10      -10.211996
   11      -10.152714
   12      -10.149991
   13      -10.149259
   14      -10.148120
   15      -10.087607
   16      -10.085190
   17       -8.592247
   18       -8.590874
   19       -8.541660
   20       -8.541528
   21       -8.540045
   22       -8.538644
   23       -8.486169
   24       -8.484600
   25       -8.078277
   26       -8.022159
   27       -8.019888
   28       -7.961240
   29       -3.926778
   30       -3.208043
   31       -3.206605
   32       -2.348293
   33       -2.306861
   34       -2.304037
   35       -2.287373
   36       -2.285330
   37       -2.283464
   38       -2.282246
   39       -2.264990
   40       -2.262324
   41       -2.007033
   42       -1.989619
   43       -1.987659
   44       -1.969958
   45        1.002074
   46        1.011883
   47        1.016323
   48        1.023037
   49        1.082547
   50        1.149106
   51        1.155758
   52        1.158925
   53        1.168322
   54        1.535985
   55        1.537388
   56        1.541530
   57        1.543918
   58        1.906335
   59        1.910088
   60        1.910238
   61        1.910886
   62        1.992863
   63        2.225791
   64        2.227790
   65        5.912184
   66        5.913576
   67        6.103177
   68        6.104520
   69        6.105708
   70        6.109576
   71        6.233999
   72        6.510450
   73        6.515134
   74        6.524774
   75        6.527150
   76        6.977082
   77        8.394926
   78       10.711369
   79       10.714200
   80       11.594095
   81       11.733246
   82       11.733836
   83       11.881277
   84       11.887877
 
  0.2222222E+00 -0.2775558E-16  0.0000000E+00  0.6172840E-02
    1      -14.979258
    2      -14.876084
    3      -14.875521
    4      -14.767140
    5      -11.761675
    6      -11.679297
    7      -11.678722
    8      -11.593557
    9      -10.558474
   10      -10.556497
   11      -10.487480
   12      -10.485290
   13      -10.484733
   14      -10.483650
   15      -10.411845
   16      -10.409843
   17       -7.909855
   18       -7.908253
   19       -7.854715
   20       -7.854562
   21       -7.852914
   22       -7.851714
   23       -7.796622
   24       -7.794902
   25       -6.756197
   26       -6.703829
   27       -6.701640
   28       -6.648111
   29       -3.660564
   30       -2.948135
   31       -2.946715
   32       -2.911336
   33       -2.908746
   34       -2.886731
   35       -2.884686
   36       -2.883113
   37       -2.881798
   38       -2.858928
   39       -2.856438
   40       -2.097014
   41       -1.792548
   42       -1.775409
   43       -1.773373
   44       -1.756122
   45        0.080377
   46        0.180424
   47        0.193635
   48        0.198031
   49        0.210785
   50        0.647996
   51        0.649304
   52        0.731312
   53        0.740918
   54        0.744291
   55        0.755062
   56        1.285737
   57        1.334285
   58        1.336466
   59        1.785296
   60        1.789021
   61        1.789163
   62        1.789890
   63        2.242871
   64        2.245010
   65        6.186848
   66        6.188615
   67        6.435769
   68        6.436912
   69        6.438098
   70        6.441822
   71        6.834393
   72        6.836739
   73        7.393835
   74        7.731119
   75        7.734982
   76        8.188432
   77        8.666237
   78       10.956033
   79       10.958844
   80       11.706189
   81       11.841219
   82       11.841957
   83       11.955202
   84       12.717493
 
  0.3333333E+00 -0.2775558E-16  0.0000000E+00  0.6172840E-02
    1      -14.613922
    2      -14.513090
    3      -14.512513
    4      -14.406772
    5      -12.671513
    6      -12.583226
    7      -12.582622
    8      -12.490846
    9      -10.814103
   10      -10.812336
   11      -10.739485
   12      -10.737440
   13      -10.737099
   14      -10.735966
   15      -10.660333
   16      -10.658533
   17       -7.104313
   18       -7.102497
   19       -7.053882
   20       -7.053728
   21       -7.052049
   22       -7.050539
   23       -7.001415
   24       -6.999454
   25       -5.326887
   26       -5.281946
   27       -5.279524
   28       -5.233795
   29       -3.724566
   30       -3.722285
   31       -3.695263
   32       -3.692990
   33       -3.692047
   34       -3.690471
   35       -3.662247
   36       -3.660052
   37       -3.219855
   38       -2.518308
   39       -2.516917
   40       -1.682440
   41       -1.444392
   42       -1.427948
   43       -1.425758
   44       -1.409053
   45       -1.001260
   46       -0.980985
   47       -0.976695
   48       -0.956663
   49       -0.929525
   50       -0.304549
   51       -0.303345
   52        0.170413
   53        0.182426
   54        0.185605
   55        0.198346
   56        0.421925
   57        1.152193
   58        1.154261
   59        1.661300
   60        1.664981
   61        1.665125
   62        1.665932
   63        2.218001
   64        2.220217
   65        6.562089
   66        6.564224
   67        6.824784
   68        6.825626
   69        6.826649
   70        6.830303
   71        7.153881
   72        7.156339
   73        8.900065
   74        9.117984
   75        9.206734
   76        9.209902
   77        9.606429
   78       11.353994
   79       11.356903
   80       11.487021
   81       11.931169
   82       12.003088
   83       12.004072
   84       12.227340
 
  0.4444444E+00 -0.5551115E-16  0.0000000E+00  0.6172840E-02
    1      -14.105086
    2      -14.007550
    3      -14.006944
    4      -13.904863
    5      -13.455860
    6      -13.362496
    7      -13.361915
    8      -13.264462
    9      -10.946050
   10      -10.944371
   11      -10.870263
   12      -10.868201
   13      -10.868085
   14      -10.866863
   15      -10.789688
   16      -10.787972
   17       -6.361871
   18       -6.360067
   19       -6.326006
   20       -6.325707
   21       -6.324807
   22       -6.321987
   23       -6.289409
   24       -6.287144
   25       -4.475887
   26       -4.474070
   27       -4.451816
   28       -4.449132
   29       -4.448484
   30       -4.447046
   31       -4.421672
   32       -4.420139
   33       -3.850462
   34       -3.813935
   35       -3.811145
   36       -3.773915
   37       -2.610079
   38       -2.382867
   39       -2.354713
   40       -2.351366
   41       -2.322654
   42       -1.924491
   43       -1.923234
   44       -1.840542
   45       -1.179254
   46       -1.178018
   47       -1.112197
   48       -0.979017
   49       -0.963528
   50       -0.961124
   51       -0.945574
   52       -0.424992
   53       -0.411006
   54       -0.408129
   55       -0.400942
   56       -0.393622
   57        1.050532
   58        1.052546
   59        1.586678
   60        1.590327
   61        1.590476
   62        1.591332
   63        2.190431
   64        2.192675
   65        6.851800
   66        6.854174
   67        7.090135
   68        7.090824
   69        7.091294
   70        7.095127
   71        7.338958
   72        7.341435
   73        9.749924
   74       10.511585
   75       10.554279
   76       10.739091
   77       10.743211
   78       11.076473
   79       11.796148
   80       11.803871
   81       12.090498
   82       12.150618
   83       12.160300
   84       12.162487
 
  0.0000000E+00  0.1111111E+00  0.0000000E+00  0.6172840E-02
    1      -15.199197
    2      -15.094582
    3      -15.094030
    4      -14.984091
    5      -10.755000
    6      -10.681673
    7      -10.681096
    8      -10.605607
    9      -10.214365
   10      -10.211752
   11      -10.152483
   12      -10.149992
   13      -10.149261
   14      -10.147637
   15      -10.087499
   16      -10.084915
   17       -8.593403
   18       -8.591061
   19       -8.544047
   20       -8.541612
   21       -8.540039
   22       -8.538526
   23       -8.487163
   24       -8.484635
   25       -8.077298
   26       -8.020305
   27       -8.019876
   28       -7.960344
   29       -3.926783
   30       -3.208050
   31       -3.206609
   32       -2.348299
   33       -2.305391
   34       -2.304262
   35       -2.285444
   36       -2.285327
   37       -2.283138
   38       -2.282246
   39       -2.263612
   40       -2.262503
   41       -2.008023
   42       -1.990009
   43       -1.989614
   44       -1.971395
   45        1.007181
   46        1.015087
   47        1.016321
   48        1.024124
   49        1.081780
   50        1.147986
   51        1.155491
   52        1.155761
   53        1.163258
   54        1.535104
   55        1.536177
   56        1.542146
   57        1.544679
   58        1.907232
   59        1.910087
   60        1.910235
   61        1.912416
   62        1.991837
   63        2.226207
   64        2.228548
   65        5.911104
   66        5.912771
   67        6.100736
   68        6.103928
   69        6.105856
   70        6.108409
   71        6.235759
   72        6.513217
   73        6.515625
   74        6.523632
   75        6.526315
   76        6.978811
   77        8.394921
   78       10.711354
   79       10.714185
   80       11.593483
   81       11.732440
   82       11.733342
   83       11.877160
   84       11.888691
 
  0.1111111E+00  0.1111111E+00  0.0000000E+00  0.6172840E-02
    1      -15.052454
    2      -14.948852
    3      -14.948291
    4      -14.839381
    5      -11.217214
    6      -11.214326
    7      -11.140477
    8      -11.137148
    9      -11.137130
   10      -11.134676
   11      -11.057687
   12      -11.054748
   13       -9.784112
   14       -9.743741
   15       -9.741877
   16       -9.706304
   17       -8.722894
   18       -8.699781
   19       -8.697180
   20       -8.664784
   21       -7.397859
   22       -7.394645
   23       -7.344215
   24       -7.339861
   25       -7.339842
   26       -7.338003
   27       -7.284229
   28       -7.281170
   29       -3.749138
   30       -3.034586
   31       -3.033159
   32       -2.984256
   33       -2.959640
   34       -2.956958
   35       -2.931629
   36       -2.180467
   37       -2.161611
   38       -2.159366
   39       -2.142207
   40       -2.140320
   41       -2.140316
   42       -2.137167
   43       -2.120659
   44       -2.117623
   45        0.472145
   46        0.481661
   47        0.485992
   48        0.492723
   49        0.657594
   50        0.659396
   51        0.836449
   52        0.842039
   53        0.845093
   54        0.854267
   55        1.176682
   56        1.178535
   57        1.178668
   58        1.181377
   59        1.740475
   60        1.742744
   61        1.916191
   62        2.224648
   63        2.227542
   64        2.457369
   65        5.792746
   66        5.898354
   67        5.902512
   68        6.237857
   69        6.735272
   70        6.737732
   71        7.050626
   72        7.055517
   73        7.055723
   74        7.057131
   75        7.505262
   76        7.507969
   77        8.575849
   78       10.875216
   79       10.878032
   80       11.963538
   81       11.967483
   82       12.101858
   83       12.105718
   84       12.107330
 
  0.2222222E+00  0.1111111E+00  0.0000000E+00  0.6172840E-02
    1      -14.759844
    2      -14.658083
    3      -14.657509
    4      -14.550718
    5      -12.179164
    6      -12.094116
    7      -12.093520
    8      -12.005138
    9      -11.555996
   10      -11.475085
   11      -11.474625
   12      -11.390681
   13       -9.829451
   14       -9.769414
   15       -9.768189
   16       -9.707816
   17       -8.247210
   18       -8.200823
   19       -8.198775
   20       -8.148694
   21       -6.615372
   22       -6.564578
   23       -6.564320
   24       -6.512283
   25       -6.018921
   26       -5.970786
   27       -5.968594
   28       -5.919506
   29       -3.888284
   30       -3.857476
   31       -3.854850
   32       -3.823226
   33       -3.395605
   34       -2.689620
   35       -2.688247
   36       -2.685875
   37       -2.661537
   38       -2.660710
   39       -2.635804
   40       -1.873957
   41       -1.855183
   42       -1.853214
   43       -1.847465
   44       -1.834088
   45       -0.477164
   46       -0.463278
   47       -0.458255
   48       -0.445540
   49       -0.369928
   50        0.228596
   51        0.229730
   52        0.293173
   53        0.302222
   54        0.305721
   55        0.316067
   56        0.331496
   57        0.891257
   58        0.892451
   59        0.915636
   60        1.522327
   61        2.061081
   62        2.426677
   63        2.429493
   64        2.744747
   65        5.784385
   66        5.904677
   67        5.908439
   68        6.188931
   69        7.316775
   70        7.622980
   71        7.624823
   72        8.008944
   73        8.099835
   74        8.420437
   75        8.423849
   76        8.832848
   77        8.938699
   78       11.201400
   79       11.204226
   80       12.012658
   81       12.198174
   82       12.241209
   83       12.241870
   84       12.520748
 
  0.3333333E+00  0.1111111E+00  0.0000000E+00  0.6172840E-02
    1      -14.322730
    2      -14.223798
    3      -14.223204
    4      -14.119559
    5      -13.026859
    6      -12.936272
    7      -12.935686
    8      -12.841282
    9      -11.763282
   10      -11.680942
   11      -11.680489
   12      -11.594897
   13       -9.971691
   14       -9.904031
   15       -9.903259
   16       -9.833804
   17       -7.482886
   18       -7.436735
   19       -7.434851
   20       -7.387546
   21       -5.820227
   22       -5.778608
   23       -5.778097
   24       -5.735865
   25       -4.822616
   26       -4.790240
   27       -4.787442
   28       -4.753936
   29       -4.573649
   30       -4.533714
   31       -4.531294
   32       -4.490448
   33       -3.384270
   34       -3.357964
   35       -3.356355
   36       -3.328963
   37       -2.870075
   38       -2.177765
   39       -2.176367
   40       -1.717586
   41       -1.695176
   42       -1.690915
   43       -1.669148
   44       -1.458489
   45       -1.440737
   46       -1.438653
   47       -1.420651
   48       -1.354672
   49       -1.337476
   50       -0.694053
   51       -0.692850
   52       -0.329583
   53       -0.316586
   54       -0.313079
   55       -0.299218
   56        0.058834
   57        0.124725
   58        0.708225
   59        0.709548
   60        1.375837
   61        2.071430
   62        2.516569
   63        2.518981
   64        2.972609
   65        5.819037
   66        6.021458
   67        6.024297
   68        6.285295
   69        7.820929
   70        8.077274
   71        8.078649
   72        8.359632
   73        9.481370
   74        9.658356
   75        9.923839
   76        9.927070
   77       10.267716
   78       11.090273
   79       11.668023
   80       11.671589
   81       12.351509
   82       12.397297
   83       12.398271
   84       12.615338
 
  0.4444444E+00  0.1111111E+00  0.0000000E+00  0.6172840E-02
    1      -13.745143
    2      -13.742435
    3      -13.651236
    4      -13.648068
    5      -13.647932
    6      -13.645794
    7      -13.549794
    8      -13.547042
    9      -11.833036
   10      -11.750076
   11      -11.749631
   12      -11.663506
   13      -10.026998
   14       -9.958051
   15       -9.957451
   16       -9.886196
   17       -6.983786
   18       -6.955111
   19       -6.953414
   20       -6.925900
   21       -5.349696
   22       -5.344045
   23       -5.327422
   24       -5.326305
   25       -5.324400
   26       -5.323750
   27       -5.303593
   28       -5.301378
   29       -3.808698
   30       -3.793276
   31       -3.789907
   32       -3.772236
   33       -3.118573
   34       -3.115045
   35       -3.088222
   36       -3.082558
   37       -3.082427
   38       -3.082364
   39       -3.051743
   40       -3.049298
   41       -2.180849
   42       -2.178650
   43       -1.509005
   44       -1.506519
   45       -1.506309
   46       -1.503728
   47       -0.934647
   48       -0.931518
   49       -0.918533
   50       -0.916622
   51       -0.916581
   52       -0.910564
   53       -0.900396
   54       -0.892950
   55       -0.713710
   56       -0.711217
   57        0.054850
   58        0.645351
   59        0.646830
   60        1.324595
   61        2.064063
   62        2.539023
   63        2.540900
   64        3.051852
   65        5.848222
   66        6.087517
   67        6.089264
   68        6.340052
   69        8.037298
   70        8.255507
   71        8.256927
   72        8.475040
   73       10.201751
   74       10.202597
   75       11.236441
   76       11.239670
   77       11.398644
   78       11.406341
   79       11.406465
   80       11.411123
   81       11.697283
   82       11.700676
   83       12.296501
   84       12.300845
 
 -0.4444444E+00  0.1111111E+00  0.0000000E+00  0.6172840E-02
    1      -14.322816
    2      -14.223876
    3      -14.223299
    4      -14.119645
    5      -13.026721
    6      -12.936144
    7      -12.935538
    8      -12.841144
    9      -11.763491
   10      -11.681147
   11      -11.680700
   12      -11.595104
   13       -9.971333
   14       -9.903546
   15       -9.903013
   16       -9.833429
   17       -7.482115
   18       -7.435209
   19       -7.434964
   20       -7.386912
   21       -5.821377
   22       -5.780396
   23       -5.778437
   24       -5.736829
   25       -4.823702
   26       -4.790620
   27       -4.789443
   28       -4.755208
   29       -4.573976
   30       -4.534188
   31       -4.531429
   32       -4.490735
   33       -3.383019
   34       -3.357384
   35       -3.354051
   36       -3.327395
   37       -2.870172
   38       -2.177868
   39       -2.176456
   40       -1.717150
   41       -1.694385
   42       -1.691404
   43       -1.669158
   44       -1.458244
   45       -1.440644
   46       -1.438145
   47       -1.420245
   48       -1.354765
   49       -1.337331
   50       -0.693918
   51       -0.692703
   52       -0.329480
   53       -0.316085
   54       -0.313852
   55       -0.300048
   56        0.058987
   57        0.124459
   58        0.707815
   59        0.709443
   60        1.375564
   61        2.071830
   62        2.517567
   63        2.518893
   64        2.973173
   65        5.819042
   66        6.022284
   67        6.023578
   68        6.285307
   69        7.820455
   70        8.076499
   71        8.078681
   72        8.359436
   73        9.481243
   74        9.658218
   75        9.923535
   76        9.927127
   77       10.267628
   78       11.090468
   79       11.667914
   80       11.671481
   81       12.351189
   82       12.396725
   83       12.398472
   84       12.614939
 
 -0.3333333E+00  0.1111111E+00  0.0000000E+00  0.6172840E-02
    1      -14.759905
    2      -14.658137
    3      -14.657577
    4      -14.550779
    5      -12.178996
    6      -12.093951
    7      -12.093347
    8      -12.004967
    9      -11.556423
   10      -11.475517
   11      -11.475046
   12      -11.391107
   13       -9.828635
   14       -9.768214
   15       -9.767709
   16       -9.706950
   17       -8.246682
   18       -8.199498
   19       -8.199152
   20       -8.148275
   21       -6.616491
   22       -6.566263
   23       -6.564767
   24       -6.513291
   25       -6.019235
   26       -5.971184
   27       -5.968804
   28       -5.919802
   29       -3.889732
   30       -3.858008
   31       -3.857397
   32       -3.824835
   33       -3.395676
   34       -2.689697
   35       -2.688286
   36       -2.684262
   37       -2.660817
   38       -2.657817
   39       -2.633880
   40       -1.873759
   41       -1.855060
   42       -1.852897
   43       -1.847533
   44       -1.833829
   45       -0.476218
   46       -0.462470
   47       -0.459707
   48       -0.446252
   49       -0.369752
   50        0.228734
   51        0.229912
   52        0.294037
   53        0.303709
   54        0.305023
   55        0.314855
   56        0.330768
   57        0.890507
   58        0.892286
   59        0.915670
   60        1.521785
   61        2.061860
   62        2.428528
   63        2.429327
   64        2.745693
   65        5.784504
   66        5.905734
   67        5.907506
   68        6.188875
   69        7.316129
   70        7.621904
   71        7.624779
   72        8.008589
   73        8.099652
   74        8.420093
   75        8.423873
   76        8.832715
   77        8.938607
   78       11.201304
   79       11.204129
   80       12.012716
   81       12.198052
   82       12.240769
   83       12.241944
   84       12.520589
 
 -0.2222222E+00  0.1111111E+00  0.0000000E+00  0.6172840E-02
    1      -15.052490
    2      -14.948884
    3      -14.948332
    4      -14.839418
    5      -11.216346
    6      -11.215521
    7      -11.138280
    8      -11.137751
    9      -11.137415
   10      -11.136915
   11      -11.056933
   12      -11.056099
   13       -9.782663
   14       -9.741621
   15       -9.741135
   16       -9.704898
   17       -8.722688
   18       -8.698735
   19       -8.698283
   20       -8.664997
   21       -7.396872
   22       -7.396615
   23       -7.342306
   24       -7.341599
   25       -7.340275
   26       -7.340053
   27       -7.283483
   28       -7.283209
   29       -3.749181
   30       -3.034632
   31       -3.033198
   32       -2.985869
   33       -2.960267
   34       -2.959800
   35       -2.933451
   36       -2.180507
   37       -2.159690
   38       -2.159157
   39       -2.140229
   40       -2.140123
   41       -2.138237
   42       -2.137204
   43       -2.118441
   44       -2.117974
   45        0.473845
   46        0.482062
   47        0.482849
   48        0.490843
   49        0.657411
   50        0.659027
   51        0.838567
   52        0.844836
   53        0.845242
   54        0.852035
   55        1.176607
   56        1.178545
   57        1.178693
   58        1.180209
   59        1.740370
   60        1.742158
   61        1.917251
   62        2.226953
   63        2.227373
   64        2.458447
   65        5.793020
   66        5.899414
   67        5.901658
   68        6.237775
   69        6.735548
   70        6.736719
   71        7.051270
   72        7.053734
   73        7.055310
   74        7.057264
   75        7.505705
   76        7.506972
   77        8.575792
   78       10.875153
   79       10.877970
   80       11.965778
   81       11.969048
   82       12.105897
   83       12.107624
   84       12.110000
 
 -0.1111111E+00  0.1111111E+00  0.0000000E+00  0.6172840E-02
    1      -15.199209
    2      -15.094593
    3      -15.094043
    4      -14.984104
    5      -10.755879
    6      -10.682637
    7      -10.681900
    8      -10.606496
    9      -10.213473
   10      -10.211283
   11      -10.151447
   12      -10.149097
   13      -10.149088
   14      -10.147006
   15      -10.086640
   16      -10.084390
   17       -8.593078
   18       -8.591183
   19       -8.543623
   20       -8.540243
   21       -8.540217
   22       -8.539992
   23       -8.486798
   24       -8.485066
   25       -8.077959
   26       -8.021440
   27       -8.019988
   28       -7.960930
   29       -3.926797
   30       -3.208065
   31       -3.206622
   32       -2.348312
   33       -2.306734
   34       -2.304714
   35       -2.286907
   36       -2.285300
   37       -2.285296
   38       -2.282323
   39       -2.265278
   40       -2.262517
   41       -2.006320
   42       -1.989313
   43       -1.986465
   44       -1.969334
   45        1.005315
   46        1.012835
   47        1.015927
   48        1.025129
   49        1.080945
   50        1.146119
   51        1.155175
   52        1.159279
   53        1.165327
   54        1.533618
   55        1.536108
   56        1.542809
   57        1.544852
   58        1.908815
   59        1.910092
   60        1.910150
   61        1.913224
   62        1.990820
   63        2.226940
   64        2.228940
   65        5.910885
   66        5.913281
   67        6.100174
   68        6.105625
   69        6.106112
   70        6.107390
   71        6.235278
   72        6.512273
   73        6.515734
   74        6.523518
   75        6.526413
   76        6.978519
   77        8.394902
   78       10.711331
   79       10.714163
   80       11.597385
   81       11.735951
   82       11.737718
   83       11.879720
   84       11.889203
 
 -0.3388132E-20  0.2222222E+00  0.0000000E+00  0.6172840E-02
    1      -14.979251
    2      -14.876071
    3      -14.875520
    4      -14.767133
    5      -11.761658
    6      -11.679267
    7      -11.678720
    8      -11.593543
    9      -10.558822
   10      -10.556108
   11      -10.488113
   12      -10.485291
   13      -10.484734
   14      -10.482797
   15      -10.412127
   16      -10.409387
   17       -7.911102
   18       -7.908230
   19       -7.857293
   20       -7.854620
   21       -7.852908
   22       -7.851162
   23       -7.797684
   24       -7.794716
   25       -6.755290
   26       -6.702089
   27       -6.701631
   28       -6.647263
   29       -3.660583
   30       -2.948161
   31       -2.946727
   32       -2.910258
   33       -2.908621
   34       -2.885353
   35       -2.884687
   36       -2.882083
   37       -2.881795
   38       -2.857847
   39       -2.856206
   40       -2.097039
   41       -1.793590
   42       -1.775848
   43       -1.775404
   44       -1.757650
   45        0.079927
   46        0.183469
   47        0.197573
   48        0.198030
   49        0.212342
   50        0.647588
   51        0.648605
   52        0.729936
   53        0.740442
   54        0.740921
   55        0.751255
   56        1.285046
   57        1.334521
   58        1.337275
   59        1.785896
   60        1.789009
   61        1.789125
   62        1.791585
   63        2.243237
   64        2.245857
   65        6.185541
   66        6.187907
   67        6.432992
   68        6.436475
   69        6.438190
   70        6.440901
   71        6.832788
   72        6.836298
   73        7.395235
   74        7.733174
   75        7.735494
   76        8.189695
   77        8.666225
   78       10.955976
   79       10.958788
   80       11.705555
   81       11.840594
   82       11.841268
   83       11.954539
   84       12.692892
 
  0.1111111E+00  0.2222222E+00  0.0000000E+00  0.6172840E-02
    1      -14.759839
    2      -14.658073
    3      -14.657509
    4      -14.550713
    5      -12.179126
    6      -12.094044
    7      -12.093516
    8      -12.005100
    9      -11.556022
   10      -11.475133
   11      -11.474629
   12      -11.390706
   13       -9.829441
   14       -9.769392
   15       -9.768189
   16       -9.707805
   17       -8.247276
   18       -8.200823
   19       -8.198934
   20       -8.148790
   21       -6.616365
   22       -6.566486
   23       -6.564341
   24       -6.513224
   25       -6.017930
   26       -5.968880
   27       -5.968579
   28       -5.918570
   29       -3.888191
   30       -3.857324
   31       -3.854850
   32       -3.823162
   33       -3.395619
   34       -2.689633
   35       -2.688232
   36       -2.684756
   37       -2.660715
   38       -2.659010
   39       -2.634402
   40       -1.875101
   41       -1.855848
   42       -1.855179
   43       -1.847486
   44       -1.835649
   45       -0.475210
   46       -0.461606
   47       -0.458256
   48       -0.445014
   49       -0.370300