  32  32   0   0
  0.8817899E+01  0.4932875E-09  0.4932875E-09  0.1339614E-08  0.5000000E-15
  1.000000000000000E-004
  CAR 
 graphite                                
     15.69166570    -16.94041211  301      4.68827140      1.00000000
    -16.940  0.0000E+00  0.0000E+00
    -16.832  0.0000E+00  0.0000E+00
    -16.723  0.0000E+00  0.0000E+00
    -16.614  0.0000E+00  0.0000E+00
    -16.505  0.0000E+00  0.0000E+00
    -16.397  0.0000E+00  0.0000E+00
    -16.288  0.0000E+00  0.0000E+00
    -16.179  0.0000E+00  0.0000E+00
    -16.070  0.0000E+00  0.0000E+00
    -15.961  0.0000E+00  0.0000E+00
    -15.853  0.0000E+00  0.0000E+00
    -15.744  0.0000E+00  0.0000E+00
    -15.635  0.0000E+00  0.0000E+00
    -15.526  0.0000E+00  0.0000E+00
    -15.418  0.0000E+00  0.0000E+00
    -15.309  0.0000E+00  0.0000E+00
    -15.200  0.0000E+00  0.0000E+00
    -15.091  0.0000E+00  0.0000E+00
    -14.982  0.0000E+00  0.0000E+00
    -14.874  0.1476E+01  0.3810E-01
    -14.765  0.2509E+01  0.2501E+00
    -14.656  0.3863E+01  0.5971E+00
    -14.547  0.4765E+01  0.1103E+01
    -14.439  0.5055E+01  0.1639E+01
    -14.330  0.4882E+01  0.2176E+01
    -14.221  0.4947E+01  0.2710E+01
    -14.112  0.4920E+01  0.3249E+01
    -14.004  0.4960E+01  0.3787E+01
    -13.895  0.4974E+01  0.4327E+01
    -13.786  0.5021E+01  0.4871E+01
    -13.677  0.5640E+01  0.5452E+01
    -13.568  0.5874E+01  0.6082E+01
    -13.460  0.6829E+01  0.6812E+01
    -13.351  0.4518E+01  0.7378E+01
    -13.242  0.1846E+01  0.7731E+01
    -13.133  0.3636E+01  0.7994E+01
    -13.025  0.4214E+01  0.8434E+01
    -12.916  0.5240E+01  0.8925E+01
    -12.807  0.5751E+01  0.9688E+01
    -12.698  0.6534E+01  0.1037E+02
    -12.589  0.4375E+01  0.1093E+02
    -12.481  0.4568E+01  0.1141E+02
    -12.372  0.4713E+01  0.1192E+02
    -12.263  0.4833E+01  0.1244E+02
    -12.154  0.5146E+01  0.1298E+02
    -12.046  0.5450E+01  0.1356E+02
    -11.937  0.5674E+01  0.1419E+02
    -11.828  0.5371E+01  0.1479E+02
    -11.719  0.5095E+01  0.1535E+02
    -11.611  0.4952E+01  0.1590E+02
    -11.502  0.4962E+01  0.1643E+02
    -11.393  0.5056E+01  0.1698E+02
    -11.284  0.5113E+01  0.1753E+02
    -11.175  0.5309E+01  0.1809E+02
    -11.067  0.5536E+01  0.1868E+02
    -10.958  0.5907E+01  0.1930E+02
    -10.849  0.5804E+01  0.1994E+02
    -10.740  0.5784E+01  0.2057E+02
    -10.632  0.5864E+01  0.2120E+02
    -10.523  0.5040E+01  0.2181E+02
    -10.414  0.4528E+01  0.2231E+02
    -10.305  0.5145E+01  0.2284E+02
    -10.196  0.5327E+01  0.2341E+02
    -10.088  0.5465E+01  0.2400E+02
     -9.979  0.5676E+01  0.2460E+02
     -9.870  0.5932E+01  0.2523E+02
     -9.761  0.7483E+01  0.2597E+02
     -9.653  0.1006E+02  0.2696E+02
     -9.544  0.6713E+01  0.2787E+02
     -9.435  0.7196E+01  0.2856E+02
     -9.326  0.5936E+01  0.2922E+02
     -9.217  0.3551E+01  0.2971E+02
     -9.109  0.3178E+01  0.3007E+02
     -9.000  0.2805E+01  0.3040E+02
     -8.891  0.2432E+01  0.3068E+02
     -8.782  0.2685E+01  0.3094E+02
     -8.674  0.2701E+01  0.3127E+02
     -8.565  0.1592E+01  0.3152E+02
     -8.456  0.1811E+01  0.3168E+02
     -8.347  0.2761E+01  0.3193E+02
     -8.239  0.8962E+01  0.3250E+02
     -8.130  0.4292E+01  0.3313E+02
     -8.021  0.3987E+01  0.3357E+02
     -7.912  0.4341E+01  0.3402E+02
     -7.803  0.7240E+01  0.3472E+02
     -7.695  0.6494E+01  0.3548E+02
     -7.586  0.7566E+01  0.3625E+02
     -7.477  0.8728E+01  0.3713E+02
     -7.368  0.7650E+01  0.3806E+02
     -7.260  0.6225E+01  0.3878E+02
     -7.151  0.5959E+01  0.3944E+02
     -7.042  0.5703E+01  0.4008E+02
     -6.933  0.5486E+01  0.4068E+02
     -6.824  0.5299E+01  0.4127E+02
     -6.716  0.5117E+01  0.4184E+02
     -6.607  0.4920E+01  0.4238E+02
     -6.498  0.4840E+01  0.4291E+02
     -6.389  0.4813E+01  0.4344E+02
     -6.281  0.4780E+01  0.4396E+02
     -6.172  0.4574E+01  0.4447E+02
     -6.063  0.4416E+01  0.4496E+02
     -5.954  0.3563E+01  0.4541E+02
     -5.846  0.4066E+01  0.4583E+02
     -5.737  0.4527E+01  0.4629E+02
     -5.628  0.5228E+01  0.4681E+02
     -5.519  0.6053E+01  0.4743E+02
     -5.410  0.8059E+01  0.4815E+02
     -5.302  0.1019E+02  0.4919E+02
     -5.193  0.7853E+01  0.5017E+02
     -5.084  0.5511E+01  0.5089E+02
     -4.975  0.3169E+01  0.5137E+02
     -4.867  0.2595E+01  0.5166E+02
     -4.758  0.3432E+01  0.5198E+02
     -4.649  0.4782E+01  0.5243E+02
     -4.540  0.6181E+01  0.5302E+02
     -4.431  0.7913E+01  0.5379E+02
     -4.323  0.7620E+01  0.5466E+02
     -4.214  0.6361E+01  0.5542E+02
     -4.105  0.5656E+01  0.5606E+02
     -3.996  0.7631E+01  0.5678E+02
     -3.888  0.7103E+01  0.5758E+02
     -3.779  0.6671E+01  0.5832E+02
     -3.670  0.6697E+01  0.5906E+02
     -3.561  0.6491E+01  0.5977E+02
     -3.452  0.1197E+02  0.6069E+02
     -3.344  0.8473E+01  0.6187E+02
     -3.235  0.8387E+01  0.6280E+02
     -3.126  0.7905E+01  0.6368E+02
     -3.017  0.6770E+01  0.6448E+02
     -2.909  0.7214E+01  0.6523E+02
     -2.800  0.8186E+01  0.6606E+02
     -2.691  0.9369E+01  0.6702E+02
     -2.582  0.1279E+02  0.6822E+02
     -2.474  0.1511E+02  0.6973E+02
     -2.365  0.1120E+02  0.7107E+02
     -2.256  0.1213E+02  0.7233E+02
     -2.147  0.1175E+02  0.7367E+02
     -2.038  0.1506E+02  0.7522E+02
     -1.930  0.1399E+02  0.7668E+02
     -1.821  0.1644E+02  0.7847E+02
     -1.712  0.1060E+02  0.7981E+02
     -1.603  0.2071E+02  0.8158E+02
     -1.495  0.1845E+02  0.8357E+02
     -1.386  0.1573E+02  0.8555E+02
     -1.277  0.1334E+02  0.8712E+02
     -1.168  0.1148E+02  0.8846E+02
     -1.059  0.1002E+02  0.8967E+02
     -0.951  0.8227E+01  0.9060E+02
     -0.842  0.9158E+01  0.9148E+02
     -0.733  0.1366E+02  0.9270E+02
     -0.624  0.1381E+02  0.9421E+02
     -0.516  0.9761E+01  0.9584E+02
     -0.407  0.8820E+01  0.9680E+02
     -0.298  0.9840E+01  0.9786E+02
     -0.189  0.1041E+02  0.9900E+02
     -0.081  0.1104E+02  0.1002E+03
      0.028  0.9875E+01  0.1013E+03
      0.137  0.9349E+01  0.1024E+03
      0.246  0.9920E+01  0.1034E+03
      0.355  0.9516E+01  0.1045E+03
      0.463  0.9634E+01  0.1055E+03
      0.572  0.9238E+01  0.1066E+03
      0.681  0.9361E+01  0.1076E+03
      0.790  0.9316E+01  0.1086E+03
      0.898  0.9304E+01  0.1096E+03
      1.007  0.9207E+01  0.1106E+03
      1.116  0.9298E+01  0.1116E+03
      1.225  0.9511E+01  0.1126E+03
      1.334  0.9423E+01  0.1137E+03
      1.442  0.9765E+01  0.1147E+03
      1.551  0.1006E+02  0.1158E+03
      1.660  0.8025E+01  0.1168E+03
      1.769  0.6406E+01  0.1175E+03
      1.877  0.6523E+01  0.1182E+03
      1.986  0.4947E+01  0.1188E+03
      2.095  0.3925E+01  0.1193E+03
      2.204  0.4316E+01  0.1198E+03
      2.313  0.7251E+01  0.1203E+03
      2.421  0.8173E+01  0.1212E+03
      2.530  0.6423E+01  0.1221E+03
      2.639  0.7675E+01  0.1227E+03
      2.748  0.7939E+01  0.1236E+03
      2.856  0.5673E+01  0.1243E+03
      2.965  0.4609E+01  0.1249E+03
      3.074  0.3892E+01  0.1253E+03
      3.183  0.3390E+01  0.1257E+03
      3.291  0.3200E+01  0.1261E+03
      3.400  0.2867E+01  0.1264E+03
      3.509  0.2498E+01  0.1267E+03
      3.618  0.2104E+01  0.1269E+03
      3.727  0.1849E+01  0.1272E+03
      3.835  0.1610E+01  0.1273E+03
      3.944  0.1367E+01  0.1275E+03
      4.053  0.1132E+01  0.1276E+03
      4.162  0.9351E+00  0.1278E+03
      4.270  0.7447E+00  0.1279E+03
      4.379  0.5331E+00  0.1279E+03
      4.488  0.3337E+00  0.1280E+03
      4.597  0.1442E+00  0.1280E+03
      4.706  0.7305E-02  0.1280E+03
      4.814  0.1340E+00  0.1280E+03
      4.923  0.2718E+00  0.1280E+03
      5.032  0.4218E+00  0.1281E+03
      5.141  0.5878E+00  0.1281E+03
      5.249  0.7724E+00  0.1282E+03
      5.358  0.9884E+00  0.1283E+03
      5.467  0.1343E+01  0.1284E+03
      5.576  0.1721E+01  0.1286E+03
      5.684  0.2055E+01  0.1288E+03
      5.793  0.2421E+01  0.1290E+03
      5.902  0.3264E+01  0.1293E+03
      6.011  0.3487E+01  0.1297E+03
      6.120  0.4508E+01  0.1301E+03
      6.228  0.8182E+01  0.1308E+03
      6.337  0.8286E+01  0.1319E+03
      6.446  0.8098E+01  0.1328E+03
      6.555  0.7870E+01  0.1336E+03
      6.663  0.8028E+01  0.1345E+03
      6.772  0.6251E+01  0.1352E+03
      6.881  0.5931E+01  0.1359E+03
      6.990  0.5666E+01  0.1365E+03
      7.099  0.4781E+01  0.1371E+03
      7.207  0.4062E+01  0.1376E+03
      7.316  0.3561E+01  0.1380E+03
      7.425  0.3567E+01  0.1384E+03
      7.534  0.3969E+01  0.1388E+03
      7.642  0.4379E+01  0.1393E+03
      7.751  0.4671E+01  0.1397E+03
      7.860  0.4738E+01  0.1403E+03
      7.969  0.4560E+01  0.1408E+03
      8.078  0.4395E+01  0.1413E+03
      8.186  0.4223E+01  0.1417E+03
      8.295  0.4031E+01  0.1422E+03
      8.404  0.3854E+01  0.1426E+03
      8.513  0.3706E+01  0.1430E+03
      8.621  0.3598E+01  0.1434E+03
      8.730  0.3521E+01  0.1438E+03
      8.839  0.3426E+01  0.1442E+03
      8.948  0.3308E+01  0.1445E+03
      9.056  0.3272E+01  0.1449E+03
      9.165  0.3533E+01  0.1453E+03
      9.274  0.3798E+01  0.1457E+03
      9.383  0.3999E+01  0.1461E+03
      9.492  0.4079E+01  0.1465E+03
      9.600  0.3904E+01  0.1470E+03
      9.709  0.3894E+01  0.1474E+03
      9.818  0.3902E+01  0.1478E+03
      9.927  0.3905E+01  0.1482E+03
     10.035  0.3927E+01  0.1487E+03
     10.144  0.3915E+01  0.1491E+03
     10.253  0.3939E+01  0.1495E+03
     10.362  0.3970E+01  0.1500E+03
     10.471  0.4043E+01  0.1504E+03
     10.579  0.4308E+01  0.1508E+03
     10.688  0.5121E+01  0.1514E+03
     10.797  0.5224E+01  0.1520E+03
     10.906  0.5154E+01  0.1525E+03
     11.014  0.4621E+01  0.1530E+03
     11.123  0.4610E+01  0.1536E+03
     11.232  0.3638E+01  0.1540E+03
     11.341  0.3500E+01  0.1544E+03
     11.449  0.3471E+01  0.1548E+03
     11.558  0.3918E+01  0.1552E+03
     11.667  0.4197E+01  0.1556E+03
     11.776  0.1924E+01  0.1559E+03
     11.885  0.3966E+01  0.1562E+03
     11.993  0.6483E+01  0.1568E+03
     12.102  0.7380E+01  0.1576E+03
     12.211  0.1166E+02  0.1586E+03
     12.320  0.1315E+02  0.1599E+03
     12.428  0.1429E+02  0.1614E+03
     12.537  0.1333E+02  0.1630E+03
     12.646  0.1041E+02  0.1643E+03
     12.755  0.7148E+01  0.1652E+03
     12.864  0.6033E+01  0.1659E+03
     12.972  0.5429E+01  0.1665E+03
     13.081  0.5284E+01  0.1671E+03
     13.190  0.3200E+01  0.1676E+03
     13.299  0.1760E+01  0.1679E+03
     13.407  0.5341E+00  0.1680E+03
     13.516  0.1347E-01  0.1680E+03
     13.625  0.1299E-02  0.1680E+03
     13.734  0.0000E+00  0.1680E+03
     13.843  0.0000E+00  0.1680E+03
     13.951  0.0000E+00  0.1680E+03
     14.060  0.0000E+00  0.1680E+03
     14.169  0.0000E+00  0.1680E+03
     14.278  0.0000E+00  0.1680E+03
     14.386  0.0000E+00  0.1680E+03
     14.495  0.0000E+00  0.1680E+03
     14.604  0.0000E+00  0.1680E+03
     14.713  0.0000E+00  0.1680E+03
     14.821  0.0000E+00  0.1680E+03
     14.930  0.0000E+00  0.1680E+03
     15.039  0.0000E+00  0.1680E+03
     15.148  0.0000E+00  0.1680E+03
     15.257  0.0000E+00  0.1680E+03
     15.365  0.0000E+00  0.1680E+03
     15.474  0.0000E+00  0.1680E+03
     15.583  0.0000E+00  0.1680E+03
     15.692  0.0000E+00  0.1680E+03
