   32   32    1    1
  0.8817899E+01  0.4932875E-09  0.4932875E-09  0.1339614E-08  0.5000000E-15
  1.000000000000000E-004
  CAR 
 graphite                                
    128    163     82
 
  0.0000000E+00  0.0000000E+00  0.0000000E+00  0.3086420E-02
    1      -14.940464
    2      -14.793732
    3      -14.793304
    4      -14.636260
    5       -9.615410
    6       -9.607289
    7       -9.604126
    8       -9.554499
    9       -9.553660
   10       -9.545822
   11       -9.542760
   12       -9.542752
   13       -9.540158
   14       -9.503210
   15       -9.492144
   16       -9.489727
   17       -8.538683
   18       -8.535386
   19       -8.533784
   20       -8.508043
   21       -8.504743
   22       -8.502279
   23       -8.502151
   24       -8.502145
   25       -8.498077
   26       -8.454142
   27       -8.449399
   28       -8.446804
   29       -3.814985
   30       -2.921521
   31       -2.919843
   32       -1.831877
   33       -1.711449
   34       -1.708738
   35       -1.689603
   36       -1.684512
   37       -1.681072
   38       -1.681068
   39       -1.679710
   40       -1.662388
   41       -1.659761
   42       -1.654116
   43       -1.651689
   44       -1.632348
   45        1.680143
   46        1.691512
   47        1.695963
   48        1.703723
   49        1.704672
   50        1.712072
   51        1.716571
   52        1.727428
   53        1.927132
   54        1.928795
   55        1.930579
   56        2.335130
   57        2.337221
   58        2.339609
   59        2.342818
   60        2.342823
   61        2.344513
   62        2.610697
   63        2.625552
   64        2.627317
   65        6.208064
   66        6.210125
   67        6.211345
   68        6.341195
   69        6.346947
   70        6.351380
   71        6.352406
   72        6.352775
   73        6.358726
   74        6.875692
   75        6.889198
   76        6.892365
   77        9.012048
   78       11.661544
   79       11.665526
   80       11.893252
   81       12.072477
   82       12.089145
 
  0.1111111E+00 -0.1387779E-16  0.0000000E+00  0.6172840E-02
    1      -14.866795
    2      -14.720615
    3      -14.720188
    4      -14.563885
    5      -10.404111
    6      -10.299323
    7      -10.299000
    8      -10.190054
    9       -9.864918
   10       -9.856662
   11       -9.774706
   12       -9.774356
   13       -9.765892
   14       -9.765115
   15       -9.683486
   16       -9.674153
   17       -8.237549
   18       -8.231145
   19       -8.166906
   20       -8.164401
   21       -8.158983
   22       -8.158549
   23       -8.085347
   24       -8.078306
   25       -7.718785
   26       -7.637495
   27       -7.635345
   28       -7.549660
   29       -3.725514
   30       -2.834446
   31       -2.832773
   32       -1.936244
   33       -1.916804
   34       -1.904864
   35       -1.904714
   36       -1.886524
   37       -1.883822
   38       -1.872903
   39       -1.853270
   40       -1.748271
   41       -1.638149
   42       -1.611044
   43       -1.608736
   44       -1.581624
   45        1.334194
   46        1.398187
   47        1.409688
   48        1.414197
   49        1.426800
   50        1.527754
   51        1.539631
   52        1.543745
   53        1.554358
   54        1.810552
   55        1.812860
   56        1.913992
   57        1.915907
   58        2.283501
   59        2.285451
   60        2.290453
   61        2.291545
   62        2.484727
   63        2.666771
   64        2.680218
   65        6.281983
   66        6.283579
   67        6.472861
   68        6.478365
   69        6.483041
   70        6.485329
   71        6.571382
   72        6.892944
   73        6.897427
   74        7.011739
   75        7.023650
   76        7.490962
   77        9.100737
   78       11.737352
   79       11.740995
   80       11.930286
   81       12.138437
   82       12.240876
 
  0.2222222E+00 -0.2775558E-16  0.0000000E+00  0.6172840E-02
    1      -14.646007
    2      -14.501708
    3      -14.501283
    4      -14.347119
    5      -11.416030
    6      -11.299303
    7      -11.298928
    8      -11.176316
    9      -10.212567
   10      -10.206835
   11      -10.109985
   12      -10.109604
   13      -10.103993
   14      -10.103204
   15      -10.002628
   16       -9.996517
   17       -7.557512
   18       -7.548263
   19       -7.478855
   20       -7.476747
   21       -7.468571
   22       -7.468230
   23       -7.393752
   24       -7.384409
   25       -6.392834
   26       -6.316786
   27       -6.314769
   28       -6.235767
   29       -3.457972
   30       -2.574316
   31       -2.572654
   32       -2.543488
   33       -2.525188
   34       -2.505137
   35       -2.504880
   36       -2.487916
   37       -2.485168
   38       -2.465326
   39       -2.446854
   40       -1.498664
   41       -1.423014
   42       -1.396618
   43       -1.394167
   44       -1.367654
   45        0.312736
   46        0.571169
   47        0.591170
   48        0.595656
   49        0.616265
   50        1.024812
   51        1.026300
   52        1.107548
   53        1.123291
   54        1.127532
   55        1.142654
   56        1.587270
   57        1.590223
   58        1.832829
   59        2.162437
   60        2.163790
   61        2.167806
   62        2.169472
   63        2.729656
   64        2.738869
   65        6.521674
   66        6.525228
   67        6.807871
   68        6.812930
   69        6.817542
   70        6.819525
   71        7.320411
   72        7.328580
   73        7.696046
   74        8.115669
   75        8.119342
   76        8.702356
   77        9.367529
   78       11.964572
   79       11.968207
   80       12.047176
   81       12.232938
   82       12.358547
 
  0.3333333E+00  0.2775558E-16  0.0000000E+00  0.6172840E-02
    1      -14.279264
    2      -14.138077
    3      -14.137655
    4      -13.987052
    5      -12.329508
    6      -12.204855
    7      -12.204440
    8      -12.072404
    9      -10.469157
   10      -10.465523
   11      -10.362048
   12      -10.361350
   13      -10.358134
   14      -10.357175
   15      -10.249169
   16      -10.245392
   17       -6.749157
   18       -6.738436
   19       -6.676790
   20       -6.674565
   21       -6.665064
   22       -6.664849
   23       -6.599437
   24       -6.588917
   25       -4.958258
   26       -4.892494
   27       -4.890270
   28       -4.822347
   29       -3.359361
   30       -3.343463
   31       -3.314428
   32       -3.313797
   33       -3.299407
   34       -3.296541
   35       -3.267056
   36       -3.250869
   37       -3.014921
   38       -2.144286
   39       -2.142641
   40       -1.087123
   41       -1.073978
   42       -1.048798
   43       -1.046123
   44       -1.020408
   45       -0.709827
   46       -0.615270
   47       -0.584330
   48       -0.580352
   49       -0.549141
   50        0.071282
   51        0.072740
   52        0.544757
   53        0.563976
   54        0.567769
   55        0.586972
   56        0.992957
   57        1.394373
   58        1.397006
   59        2.038667
   60        2.039383
   61        2.042106
   62        2.044446
   63        2.740049
   64        2.745628
   65        6.874415
   66        6.879580
   67        7.200200
   68        7.204716
   69        7.208340
   70        7.209734
   71        7.627169
   72        7.631735
   73        9.201844
   74        9.593711
   75        9.596879
   76        9.812650
   77       10.108483
   78       12.069203
   79       12.315429
   80       12.320487
   81       12.377213
   82       12.400340
 
  0.4444444E+00 -0.5551115E-16  0.0000000E+00  0.6172840E-02
    1      -13.768533
    2      -13.631668
    3      -13.631254
    4      -13.485578
    5      -13.116879
    6      -12.985520
    7      -12.985088
    8      -12.845632
    9      -10.601196
   10      -10.599165
   11      -10.492676
   12      -10.491449
   13      -10.490397
   14      -10.488971
   15      -10.377348
   16      -10.375268
   17       -5.997718
   18       -5.989708
   19       -5.945678
   20       -5.942745
   21       -5.936988
   22       -5.935981
   23       -5.890951
   24       -5.883975
   25       -4.106169
   26       -4.097505
   27       -4.069947
   28       -4.068150
   29       -4.061391
   30       -4.058079
   31       -4.027213
   32       -4.017489
   33       -3.476322
   34       -3.422189
   35       -3.419547
   36       -3.363705
   37       -2.401502
   38       -2.002860
   39       -1.960864
   40       -1.957714
   41       -1.913692
   42       -1.627179
   43       -1.549682
   44       -1.548217
   45       -0.804267
   46       -0.802761
   47       -0.607826
   48       -0.583794
   49       -0.580780
   50       -0.556583
   51       -0.521539
   52       -0.052349
   53       -0.030209
   54       -0.026949
   55       -0.004699
   56        0.182358
   57        1.287842
   58        1.289902
   59        1.964272
   60        1.965031
   61        1.966075
   62        1.969237
   63        2.729820
   64        2.732672
   65        7.158454
   66        7.162112
   67        7.468481
   68        7.472849
   69        7.474283
   70        7.474788
   71        7.796701
   72        7.799388
   73       10.432883
   74       10.826982
   75       11.132544
   76       11.136064
   77       11.220215
   78       11.562210
   79       12.425304
   80       12.477526
   81       12.513650
   82       12.596721
 
 -0.6776264E-20  0.1111111E+00  0.0000000E+00  0.6172840E-02
    1      -14.866796
    2      -14.720617
    3      -14.720190
    4      -14.563887
    5      -10.404032
    6      -10.299228
    7      -10.298920
    8      -10.189957
    9       -9.864905
   10       -9.856960
   11       -9.774708
   12       -9.774347
   13       -9.765958
   14       -9.765680
   15       -9.683455
   16       -9.674537
   17       -8.237668
   18       -8.229900
   19       -8.167201
   20       -8.164402
   21       -8.158964
   22       -8.155893
   23       -8.085448
   24       -8.076943
   25       -7.719726
   26       -7.637541
   27       -7.637214
   28       -7.550636
   29       -3.725510
   30       -2.834441
   31       -2.832767
   32       -1.937533
   33       -1.916734
   34       -1.907128
   35       -1.904843
   36       -1.886524
   37       -1.883921
   38       -1.874180
   39       -1.853428
   40       -1.748264
   41       -1.636709
   42       -1.608745
   43       -1.608439
   44       -1.580435
   45        1.334971
   46        1.396122
   47        1.408929
   48        1.409689
   49        1.422427
   50        1.532215
   51        1.543744
   52        1.544970
   53        1.556493
   54        1.810256
   55        1.811922
   56        1.915521
   57        1.916340
   58        2.283490
   59        2.285445
   60        2.288931
   61        2.290570
   62        2.485825
   63        2.666790
   64        2.679046
   65        6.283024
   66        6.284354
   67        6.473308
   68        6.478301
   69        6.483624
   70        6.488569
   71        6.569603
   72        6.892032
   73        6.894783
   74        7.011877
   75        7.025777
   76        7.489161
   77        9.100743
   78       11.737414
   79       11.741032
   80       11.930821
   81       12.132658
   82       12.248312
 
  0.1111111E+00  0.1111111E+00  0.0000000E+00  0.6172840E-02
    1      -14.719460
    2      -14.574515
    3      -14.574089
    4      -14.419201
    5      -10.869868
    6      -10.866860
    7      -10.760053
    8      -10.757134
    9      -10.757115
   10      -10.754004
   11      -10.641804
   12      -10.638752
   13       -9.425984
   14       -9.366487
   15       -9.364855
   16       -9.315960
   17       -8.354160
   18       -8.324823
   19       -8.321869
   20       -8.273390
   21       -7.036414
   22       -7.033269
   23       -6.957309
   24       -6.955092
   25       -6.955071
   26       -6.950800
   27       -6.872378
   28       -6.868987
   29       -3.546902
   30       -2.660770
   31       -2.659105
   32       -2.600749
   33       -2.562850
   34       -2.560359
   35       -2.521704
   36       -1.793001
   37       -1.790080
   38       -1.763581
   39       -1.759990
   40       -1.759985
   41       -1.758302
   42       -1.730334
   43       -1.727864
   44       -1.581601
   45        0.868977
   46        0.880732
   47        0.883947
   48        0.893674
   49        0.898536
   50        0.905774
   51        1.213144
   52        1.223836
   53        1.227828
   54        1.237526
   55        1.553879
   56        1.556856
   57        1.557032
   58        1.558901
   59        2.196110
   60        2.266274
   61        2.268625
   62        2.601188
   63        2.603950
   64        2.871757
   65        6.194383
   66        6.269670
   67        6.274498
   68        6.700426
   69        7.048181
   70        7.050573
   71        7.434264
   72        7.436021
   73        7.436376
   74        7.441098
   75        8.015432
   76        8.018155
   77        9.278810
   78       11.890639
   79       11.894301
   80       12.305114
   81       12.452320
   82       12.507919
 
  0.2222222E+00  0.1111111E+00  0.0000000E+00  0.6172840E-02
    1      -14.425594
    2      -14.283135
    3      -14.282710
    4      -14.130695
    5      -11.835783
    6      -11.715478
    7      -11.715095
    8      -11.588175
    9      -11.210966
   10      -11.096296
   11      -11.095951
   12      -10.975188
   13       -9.478705
   14       -9.392190
   15       -9.391234
   16       -9.304333
   17       -7.890355
   18       -7.824490
   19       -7.822052
   20       -7.748657
   21       -6.250902
   22       -6.177393
   23       -6.177120
   24       -6.100865
   25       -5.651709
   26       -5.581456
   27       -5.579407
   28       -5.506717
   29       -3.509624
   30       -3.463401
   31       -3.460962
   32       -3.413276
   33       -3.191473
   34       -2.318213
   35       -2.315425
   36       -2.313803
   37       -2.281177
   38       -2.280554
   39       -2.242763
   40       -1.505885
   41       -1.476986
   42       -1.474606
   43       -1.445407
   44       -1.250793
   45       -0.145149
   46       -0.086070
   47       -0.065525
   48       -0.060404
   49       -0.039925
   50        0.563245
   51        0.604469
   52        0.605890
   53        0.668768
   54        0.683757
   55        0.688310
   56        0.703060
   57        1.268565
   58        1.269819
   59        1.476042
   60        2.069184
   61        2.330431
   62        2.803458
   63        2.806089
   64        3.185679
   65        6.164978
   66        6.278696
   67        6.283124
   68        6.645159
   69        7.620983
   70        8.005138
   71        8.007429
   72        8.400912
   73        8.501204
   74        8.806702
   75        8.809837
   76        9.336877
   77        9.635858
   78       12.193707
   79       12.197482
   80       12.429946
   81       12.636103
   82       12.669341
 
  0.3333333E+00  0.1111111E+00  0.0000000E+00  0.6172840E-02
    1      -13.986737
    2      -13.848014
    3      -13.847592
    4      -13.699823
    5      -12.686876
    6      -12.559092
    7      -12.558681
    8      -12.423378
    9      -11.420061
   10      -11.303259
   11      -11.302918
   12      -11.180074
   13       -9.623355
   14       -9.526418
   15       -9.525899
   16       -9.425251
   17       -7.124592
   18       -7.058091
   19       -7.055811
   20       -6.986475
   21       -5.450628
   22       -5.390239
   23       -5.389346
   24       -5.327515
   25       -4.448066
   26       -4.400126
   27       -4.397549
   28       -4.346681
   29       -4.201026
   30       -4.141949
   31       -4.139678
   32       -4.079071
   33       -3.016829
   34       -2.977568
   35       -2.976130
   36       -2.934466
   37       -2.662878
   38       -1.803481
   39       -1.801800
   40       -1.334283
   41       -1.299979
   42       -1.295957
   43       -1.262408
   44       -1.120851
   45       -1.089412
   46       -1.062076
   47       -1.059530
   48       -1.032010
   49       -0.761639
   50       -0.319050
   51       -0.317594
   52        0.044252
   53        0.064744
   54        0.068876
   55        0.089524
   56        0.353151
   57        0.635870
   58        1.084448
   59        1.085846
   60        1.932919
   61        2.326537
   62        2.893629
   63        2.895839
   64        3.463192
   65        6.147748
   66        6.398983
   67        6.402474
   68        6.746517
   69        8.129156
   70        8.460032
   71        8.462042
   72        8.826060
   73        9.967072
   74       10.170178
   75       10.313210
   76       10.316365
   77       10.756073
   78       11.743581
   79       12.591651
   80       12.595667
   81       12.713394
   82       12.813436
 
  0.4444444E+00  0.1111111E+00  0.0000000E+00  0.6172840E-02
    1      -13.407420
    2      -13.404461
    3      -13.274665
    4      -13.272445
    5      -13.271495
    6      -13.268936
    7      -13.130951
    8      -13.127933
    9      -11.490643
   10      -11.373378
   11      -11.373039
   12      -11.249474
   13       -9.678380
   14       -9.579356
   15       -9.578976
   16       -9.475790
   17       -6.613237
   18       -6.570582
   19       -6.568456
   20       -6.528002
   21       -4.977171
   22       -4.968968
   23       -4.944333
   24       -4.942888
   25       -4.940694
   26       -4.939157
   27       -4.909523
   28       -4.905687
   29       -3.429833
   30       -3.407238
   31       -3.403976
   32       -3.376212
   33       -2.740775
   34       -2.737619
   35       -2.693567
   36       -2.692838
   37       -2.691587
   38       -2.686580
   39       -2.643613
   40       -2.639683
   41       -1.969767
   42       -1.967322
   43       -1.134525
   44       -1.131794
   45       -1.130947
   46       -1.128760
   47       -0.564955
   48       -0.558259
   49       -0.540443
   50       -0.534341
   51       -0.532139
   52       -0.531587
   53       -0.509940
   54       -0.505870
   55       -0.126988
   56       -0.124279
   57        0.281254
   58        1.020774
   59        1.022293
   60        1.884100
   61        2.314136
   62        2.916813
   63        2.918489
   64        3.567210
   65        6.153732
   66        6.467599
   67        6.469950
   68        6.802092
   69        8.348093
   70        8.636876
   71        8.639083
   72        8.926665
   73       10.877087
   74       10.878753
   75       11.561749
   76       11.565078
   77       11.804363
   78       11.807879
   79       11.808568
   80       11.814977
   81       12.168283
   82       12.171506
 
 -0.4444444E+00  0.1111111E+00  0.0000000E+00  0.6172840E-02
    1      -13.987502
    2      -13.848774
    3      -13.848360
    4      -13.700585
    5      -12.685664
    6      -12.557897
    7      -12.557467
    8      -12.422161
    9      -11.421840
   10      -11.305079
   11      -11.304742
   12      -11.181877
   13       -9.620682
   14       -9.523449
   15       -9.523119
   16       -9.422227
   17       -7.116222
   18       -7.048909
   19       -7.048327
   20       -6.978306
   21       -5.462031
   22       -5.402088
   23       -5.399733
   24       -5.338311
   25       -4.460207
   26       -4.411703
   27       -4.410790
   28       -4.359301
   29       -4.203229
   30       -4.144335
   31       -4.141708
   32       -4.081278
   33       -3.002442
   34       -2.963789
   35       -2.960597
   36       -2.919550
   37       -2.663620
   38       -1.804202
   39       -1.802524
   40       -1.334201
   41       -1.299346
   42       -1.296757
   43       -1.262753
   44       -1.119774
   45       -1.087275
   46       -1.060178
   47       -1.057245
   48       -1.029904
   49       -0.762338
   50       -0.318025
   51       -0.316536
   52        0.044547
   53        0.065192
   54        0.067870
   55        0.088961
   56        0.351769
   57        0.636834
   58        1.082653
   59        1.084303
   60        1.930718
   61        2.327156
   62        2.896600
   63        2.897732
   64        3.469466
   65        6.148746
   66        6.402756
   67        6.404583
   68        6.748087
   69        8.123630
   70        8.454879
   71        8.457833
   72        8.823797
   73        9.967540
   74       10.169156
   75       10.312613
   76       10.316106
   77       10.754911
   78       11.745019
   79       12.588811
   80       12.598967
   81       12.704121
   82       12.809861
 
 -0.3333333E+00  0.1111111E+00  0.0000000E+00  0.6172840E-02
    1      -14.426131
    2      -14.283677
    3      -14.283258
    4      -14.131233
    5      -11.834361
    6      -11.714067
    7      -11.713658
    8      -11.586753
    9      -11.214553
   10      -11.099921
   11      -11.099584
   12      -10.978835
   13       -9.472944
   14       -9.385556
   15       -9.385268
   16       -9.297352
   17       -7.883628
   18       -7.816205
   19       -7.816000
   20       -7.741183
   21       -6.262491
   22       -6.189677
   23       -6.187816
   24       -6.112236
   25       -5.654032
   26       -5.583853
   27       -5.581662
   28       -5.509058
   29       -3.525476
   30       -3.478306
   31       -3.477916
   32       -3.429280
   33       -3.192013
   34       -2.315996
   35       -2.314346
   36       -2.299870
   37       -2.263983
   38       -2.261120
   39       -2.224284
   40       -1.504176
   41       -1.475379
   42       -1.472763
   43       -1.443684
   44       -1.251305
   45       -0.144054
   46       -0.089835
   47       -0.068436
   48       -0.065968
   49       -0.045139
   50        0.560724
   51        0.605471
   52        0.607036
   53        0.674400
   54        0.689033
   55        0.690943
   56        0.706359
   57        1.265053
   58        1.266872
   59        1.476993
   60        2.064681
   61        2.330658
   62        2.809033
   63        2.809646
   64        3.197927
   65        6.163803
   66        6.284796
   67        6.286989
   68        6.651215
   69        7.613949
   70        7.996904
   71        8.000545
   72        8.400814
   73        8.495426
   74        8.805764
   75        8.809195
   76        9.335497
   77        9.635108
   78       12.193090
   79       12.196829
   80       12.427698
   81       12.632707
   82       12.639206
 
 -0.2222222E+00  0.1111111E+00  0.0000000E+00  0.6172840E-02
    1      -14.719761
    2      -14.574847
    3      -14.574424
    4      -14.419536
    5      -10.873732
    6      -10.866721
    7      -10.762737
    8      -10.762388
    9      -10.755650
   10      -10.755313
   11      -10.645890
   12      -10.638752
   13       -9.416554
   14       -9.355140
   15       -9.354928
   16       -9.303960
   17       -8.351304
   18       -8.319775
   19       -8.319582
   20       -8.268936
   21       -7.045157
   22       -7.036475
   23       -6.965731
   24       -6.964033
   25       -6.957256
   26       -6.955206
   27       -6.881074
   28       -6.872479
   29       -3.547229
   30       -2.661093
   31       -2.659428
   32       -2.618538
   33       -2.579568
   34       -2.579335
   35       -2.539621
   36       -1.791018
   37       -1.771137
   38       -1.761175
   39       -1.758790
   40       -1.741536
   41       -1.738758
   42       -1.728694
   43       -1.708826
   44       -1.581876
   45        0.856707
   46        0.869569
   47        0.870809
   48        0.882822
   49        0.897334
   50        0.901623
   51        1.227873
   52        1.237641
   53        1.238203
   54        1.248989
   55        1.551322
   56        1.553364
   57        1.556516
   58        1.558215
   59        2.195751
   60        2.260890
   61        2.267684
   62        2.608389
   63        2.608669
   64        2.887565
   65        6.191169
   66        6.277038
   67        6.279666
   68        6.711047
   69        7.042655
   70        7.050037
   71        7.425418
   72        7.429545
   73        7.434962
   74        7.439034
   75        8.007565
   76        8.016169
   77        9.278344
   78       11.890173
   79       11.893853
   80       12.322997
   81       12.427640
   82       12.500508
 
 -0.1111111E+00  0.1111111E+00  0.0000000E+00  0.6172840E-02
    1      -14.866906
    2      -14.720725
    3      -14.720300
    4      -14.563994
    5      -10.411396
    6      -10.306797
    7      -10.306363
    8      -10.197657
    9       -9.856675
   10       -9.854363
   11       -9.766962
   12       -9.764471
   13       -9.764454
   14       -9.762373
   15       -9.674302
   16       -9.672051
   17       -8.233128
   18       -8.231320
   19       -8.161143
   20       -8.160591
   21       -8.160569
   22       -8.157300
   23       -8.080453
   24       -8.078460
   25       -7.727377
   26       -7.645904
   27       -7.644149
   28       -7.558390
   29       -3.725619
   30       -2.834549
   31       -2.832875
   32       -1.937857
   33       -1.935231
   34       -1.907862
   35       -1.904447
   36       -1.904443
   37       -1.903117
   38       -1.874313
   39       -1.872108
   40       -1.748369
   41       -1.617015
   42       -1.590152
   43       -1.587398
   44       -1.560503
   45        1.331199
   46        1.380363
   47        1.393277
   48        1.397587
   49        1.409345
   50        1.545587
   51        1.555876
   52        1.560493
   53        1.572509
   54        1.811278
   55        1.813830
   56        1.909001
   57        1.911324
   58        2.287541
   59        2.291033
   60        2.291124
   61        2.292347
   62        2.475856
   63        2.678662
   64        2.680628
   65        6.282463
   66        6.284620
   67        6.481445
   68        6.483299
   69        6.483655
   70        6.489233
   71        6.566460
   72        6.882894
   73        6.887403
   74        7.022221
   75        7.025317
   76        7.479226
   77        9.100584
   78       11.737238
   79       11.740886
   80       11.965371
   81       12.216363
   82       12.263310
 
 -0.1355253E-19  0.2222222E+00  0.0000000E+00  0.6172840E-02
    1      -14.646014
    2      -14.501712
    3      -14.501291
    4      -14.347125
    5      -11.416066
    6      -11.299326
    7      -11.298976
    8      -11.176350
    9      -10.212719
   10      -10.206788
   11      -10.110425
   12      -10.109638
   13      -10.103982
   14      -10.102887
   15      -10.002724
   16       -9.996469
   17       -7.557669
   18       -7.547164
   19       -7.479252
   20       -7.476749
   21       -7.468534
   22       -7.465748
   23       -7.393821
   24       -7.383155
   25       -6.393711
   26       -6.316833
   27       -6.316533
   28       -6.236704
   29       -3.457952
   30       -2.574293
   31       -2.572632
   32       -2.544777
   33       -2.525251
   34       -2.507287
   35       -2.505120
   36       -2.487916
   37       -2.485384
   38       -2.466508
   39       -2.446996
   40       -1.498635
   41       -1.421505
   42       -1.394176
   43       -1.393922
   44       -1.366434
   45        0.313209
   46        0.569327
   47        0.591130
   48        0.591189
   49        0.613238
   50        1.025516
   51        1.026718
   52        1.110994
   53        1.127529
   54        1.127903
   55        1.144474
   56        1.586787
   57        1.589661
   58        1.833541
   59        2.162247
   60        2.163070
   61        2.167591
   62        2.168301
   63        2.729542
   64        2.737739
   65        6.521948
   66        6.526984
   67        6.808392
   68        6.812879
   69        6.818170
   70        6.822616
   71        7.320621
   72        7.330513
   73        7.694580
   74        8.114875
   75        8.117469
   76        8.701047
   77        9.367546
   78       11.964394
   79       11.970348
   80       12.047394
   81       12.233233
   82       12.361432
 
  0.1111111E+00  0.2222222E+00  0.0000000E+00  0.6172840E-02
    1      -14.425599
    2      -14.283138
    3      -14.282716
    4      -14.130700
    5      -11.835835
    6      -11.715514
    7      -11.715163
    8      -11.588228
    9      -11.210929
   10      -11.096274
   11      -11.095902
   12      -10.975154
   13       -9.478695
   14       -9.392190
   15       -9.391218
   16       -9.304326
   17       -7.890295
   18       -7.824371
   19       -7.822052
   20       -7.748596
   21       -6.249916
   22       -6.177181
   23       -6.175303
   24       -6.099820
   25       -5.652674
   26       -5.581542
   27       -5.581326
   28       -5.507759
   29       -3.509701
   30       -3.463401
   31       -3.461125
   32       -3.413363
   33       -3.191458
   34       -2.319633
   35       -2.315422
   36       -2.313786
   37       -2.283268
   38       -2.281169
   39       -2.244048
   40       -1.504327
   41       -1.474613
   42       -1.474145
   43       -1.444098
   44       -1.250769
   45       -0.144787
   46       -0.086830
   47       -0.065525
   48       -0.062453
   49       -0.041651
   50        0.562729
   51        0.604997
   52        0.606283
   53        0.670875
   54        0.685814
   55        0.688309
   56        0.703798
   57        1.267894
   58        1.269266
   59        1.476620
   60        2.068420
   61        2.330259
   62        2.803457
   63        2.805784
   64        3.185594
   65        6.165050
   66        6.279163
   67        6.283156
   68        6.645542
   69        7.622577
   70        8.006284
   71        8.009188
   72        8.399522
   73        8.502576
   74        8.805746
   75        8.808273
   76        9.335652
   77        9.635864
   78       12.193799
   79       12.197422