   32   32    1    1
  0.8817899E+01  0.4932875E-09  0.4932875E-09  0.1339614E-08  0.5000000E-15
  1.000000000000000E-004
  CAR 
 graphite                                
    128    163     84
 
  0.0000000E+00  0.0000000E+00  0.0000000E+00  0.3086420E-02
    1      -14.940412
    2      -14.793714
    3      -14.793219
    4      -14.636207
    5       -9.615354
    6       -9.607243
    7       -9.604067
    8       -9.554255
    9       -9.553790
   10       -9.545960
   11       -9.542512
   12       -9.542505
   13       -9.540294
   14       -9.503156
   15       -9.492084
   16       -9.489678
   17       -8.538640
   18       -8.535330
   19       -8.533715
   20       -8.508174
   21       -8.504498
   22       -8.502412
   23       -8.501900
   24       -8.501897
   25       -8.498209
   26       -8.454079
   27       -8.449342
   28       -8.446757
   29       -3.814959
   30       -2.921503
   31       -2.919806
   32       -1.831848
   33       -1.711407
   34       -1.708669
   35       -1.689535
   36       -1.684640
   37       -1.680805
   38       -1.680799
   39       -1.679844
   40       -1.662118
   41       -1.659885
   42       -1.654040
   43       -1.651638
   44       -1.632300
   45        1.680059
   46        1.691492
   47        1.696237
   48        1.703819
   49        1.704773
   50        1.712350
   51        1.716549
   52        1.727343
   53        1.927157
   54        1.928822
   55        1.930606
   56        2.335322
   57        2.337088
   58        2.339474
   59        2.343006
   60        2.343015
   61        2.344383
   62        2.610727
   63        2.625584
   64        2.627348
   65        6.208094
   66        6.210159
   67        6.211375
   68        6.341105
   69        6.347099
   70        6.351401
   71        6.352530
   72        6.352823
   73        6.358656
   74        6.875724
   75        6.889229
   76        6.892396
   77        9.012082
   78       11.661273
   79       11.664919
   80       11.887823
   81       11.891659
   82       11.925324
   83       12.085002
   84       12.088532
 
  0.1111111E+00 -0.1387779E-16  0.0000000E+00  0.6172840E-02
    1      -14.866743
    2      -14.720596
    3      -14.720104
    4      -14.563832
    5      -10.404057
    6      -10.299400
    7      -10.298815
    8      -10.189999
    9       -9.864862
   10       -9.856607
   11       -9.774620
   12       -9.774331
   13       -9.765666
   14       -9.765230
   15       -9.683430
   16       -9.674098
   17       -8.237499
   18       -8.231088
   19       -8.167040
   20       -8.164154
   21       -8.158806
   22       -8.158612
   23       -8.085287
   24       -8.078249
   25       -7.718724
   26       -7.637244
   27       -7.635480
   28       -7.549605
   29       -3.725488
   30       -2.834430
   31       -2.832734
   32       -1.936181
   33       -1.916732
   34       -1.904877
   35       -1.904568
   36       -1.886255
   37       -1.883953
   38       -1.872843
   39       -1.853220
   40       -1.748242
   41       -1.638099
   42       -1.611181
   43       -1.608467
   44       -1.581549
   45        1.334219
   46        1.398284
   47        1.409964
   48        1.414114
   49        1.426783
   50        1.527728
   51        1.539553
   52        1.544020
   53        1.554452
   54        1.810579
   55        1.812887
   56        1.913870
   57        1.916085
   58        2.283692
   59        2.285320
   60        2.290610
   61        2.291445
   62        2.484758
   63        2.666802
   64        2.680249
   65        6.282013
   66        6.283609
   67        6.472765
   68        6.478520
   69        6.483073
   70        6.485361
   71        6.571414
   72        6.893097
   73        6.897337
   74        7.011771
   75        7.023682
   76        7.490995
   77        9.100772
   78       11.737370
   79       11.740979
   80       11.930288
   81       12.121947
   82       12.123653
   83       12.224339
   84       12.259476
 
  0.2222222E+00 -0.2775558E-16  0.0000000E+00  0.6172840E-02
    1      -14.645956
    2      -14.501684
    3      -14.501201
    4      -14.347065
    5      -11.415976
    6      -11.299261
    7      -11.298862
    8      -11.176261
    9      -10.212513
   10      -10.206780
   11      -10.110091
   12      -10.109387
   13      -10.103773
   14      -10.103315
   15      -10.002572
   16       -9.996462
   17       -7.557460
   18       -7.548206
   19       -7.478990
   20       -7.476498
   21       -7.468473
   22       -7.468213
   23       -7.393691
   24       -7.384351
   25       -6.392773
   26       -6.316533
   27       -6.314904
   28       -6.235711
   29       -3.457946
   30       -2.574303
   31       -2.572612
   32       -2.543424
   33       -2.525117
   34       -2.505052
   35       -2.504837
   36       -2.487649
   37       -2.485303
   38       -2.465264
   39       -2.446801
   40       -1.498634
   41       -1.422965
   42       -1.396754
   43       -1.393898
   44       -1.367578
   45        0.312762
   46        0.571256
   47        0.591443
   48        0.595534
   49        0.616291
   50        1.024733
   51        1.026436
   52        1.107556
   53        1.123184
   54        1.127806
   55        1.142743
   56        1.587297
   57        1.590250
   58        1.832860
   59        2.162619
   60        2.163667
   61        2.167954
   62        2.169381
   63        2.729687
   64        2.738900
   65        6.521702
   66        6.525259
   67        6.807768
   68        6.813091
   69        6.817557
   70        6.819575
   71        7.320444
   72        7.328612
   73        7.696078
   74        8.115810
   75        8.119265
   76        8.702389
   77        9.367564
   78       11.964199
   79       11.967800
   80       12.046843
   81       12.231677
   82       12.233367
   83       12.401963
   84       13.073193
 
  0.3333333E+00  0.2775558E-16  0.0000000E+00  0.6172840E-02
    1      -14.279212
    2      -14.138048
    3      -14.137579
    4      -13.986999
    5      -12.329455
    6      -12.204792
    7      -12.204396
    8      -12.072350
    9      -10.469103
   10      -10.465468
   11      -10.362175
   12      -10.361113
   13      -10.357903
   14      -10.357297
   15      -10.249112
   16      -10.245337
   17       -6.749104
   18       -6.738379
   19       -6.676927
   20       -6.674314
   21       -6.665145
   22       -6.664652
   23       -6.599376
   24       -6.588859
   25       -4.958194
   26       -4.892237
   27       -4.890407
   28       -4.822290
   29       -3.359298
   30       -3.343393
   31       -3.314180
   32       -3.313920
   33       -3.299144
   34       -3.296677
   35       -3.266995
   36       -3.250815
   37       -3.014895
   38       -2.144278
   39       -2.142594
   40       -1.087094
   41       -1.073931
   42       -1.048934
   43       -1.045853
   44       -1.020331
   45       -0.709801
   46       -0.615192
   47       -0.584060
   48       -0.580485
   49       -0.549096
   50        0.071242
   51        0.072835
   52        0.544785
   53        0.563853
   54        0.568042
   55        0.587057
   56        0.992987
   57        1.394400
   58        1.397033
   59        2.038788
   60        2.039319
   61        2.042258
   62        2.044352
   63        2.740081
   64        2.745659
   65        6.874443
   66        6.879611
   67        7.200084
   68        7.204890
   69        7.208316
   70        7.209824
   71        7.627202
   72        7.631768
   73        9.201877
   74        9.593823
   75        9.596834
   76        9.812684
   77       10.108517
   78       12.069236
   79       12.315223
   80       12.316822
   81       12.320551
   82       12.399585
   83       12.401460
   84       12.706303
 
  0.4444444E+00 -0.5551115E-16  0.0000000E+00  0.6172840E-02
    1      -13.768481
    2      -13.631637
    3      -13.631180
    4      -13.485524
    5      -13.116827
    6      -12.985456
    7      -12.985045
    8      -12.845578
    9      -10.601143
   10      -10.599109
   11      -10.492810
   12      -10.491205
   13      -10.490155
   14      -10.489103
   15      -10.377290
   16      -10.375215
   17       -5.997669
   18       -5.989654
   19       -5.945815
   20       -5.942491
   21       -5.937127
   22       -5.935726
   23       -5.890887
   24       -5.883915
   25       -4.106102
   26       -4.097434
   27       -4.069689
   28       -4.068284
   29       -4.061131
   30       -4.058212
   31       -4.027157
   32       -4.017439
   33       -3.476255
   34       -3.421928
   35       -3.419684
   36       -3.363650
   37       -2.401476
   38       -2.002789
   39       -1.960600
   40       -1.957850
   41       -1.913639
   42       -1.627153
   43       -1.549682
   44       -1.548162
   45       -0.804283
   46       -0.802689
   47       -0.607782
   48       -0.583928
   49       -0.580510
   50       -0.556504
   51       -0.521509
   52       -0.052310
   53       -0.030340
   54       -0.026678
   55       -0.004618
   56        0.182388
   57        1.287870
   58        1.289929
   59        1.964212
   60        1.965149
   61        1.966231
   62        1.969139
   63        2.729851
   64        2.732703
   65        7.158482
   66        7.162142
   67        7.468348
   68        7.473041
   69        7.474213
   70        7.474926
   71        7.796736
   72        7.799421
   73       10.432916
   74       10.827016
   75       11.132598
   76       11.136082
   77       11.220246
   78       11.562246
   79       12.422644
   80       12.472960
   81       12.480940
   82       12.505374
   83       12.595304
   84       12.617149
 
 -0.6776264E-20  0.1111111E+00  0.0000000E+00  0.6172840E-02
    1      -14.866745
    2      -14.720598
    3      -14.720104
    4      -14.563834
    5      -10.403978
    6      -10.299242
    7      -10.298797
    8      -10.189901
    9       -9.864850
   10       -9.856906
   11       -9.774618
   12       -9.774325
   13       -9.765959
   14       -9.765571
   15       -9.683399
   16       -9.674482
   17       -8.237618
   18       -8.229838
   19       -8.167335
   20       -8.164155
   21       -8.158713
   22       -8.156027
   23       -8.085387
   24       -8.076889
   25       -7.719669
   26       -7.637469
   27       -7.637171
   28       -7.550579
   29       -3.725484
   30       -2.834423
   31       -2.832730
   32       -1.937481
   33       -1.916660
   34       -1.907264
   35       -1.904576
   36       -1.886255
   37       -1.884057
   38       -1.874108
   39       -1.853375
   40       -1.748235
   41       -1.636644
   42       -1.608605
   43       -1.608450
   44       -1.580371
   45        1.334996
   46        1.396179
   47        1.408789
   48        1.409965
   49        1.422503
   50        1.532293
   51        1.544019
   52        1.544833
   53        1.556547
   54        1.810283
   55        1.811949
   56        1.915562
   57        1.916357
   58        2.283679
   59        2.285315
   60        2.288800
   61        2.290758
   62        2.485855
   63        2.666821
   64        2.679077
   65        6.283053
   66        6.284387
   67        6.473211
   68        6.478459
   69        6.483779
   70        6.488477
   71        6.569634
   72        6.892051
   73        6.894826
   74        7.011909
   75        7.025808
   76        7.489193
   77        9.100777
   78       11.737429
   79       11.741040
   80       11.930779
   81       12.123625
   82       12.124328
   83       12.225017
   84       12.283679
 
  0.1111111E+00  0.1111111E+00  0.0000000E+00  0.6172840E-02
    1      -14.719408
    2      -14.574493
    3      -14.574007
    4      -14.419147
    5      -10.869817
    6      -10.866802
    7      -10.760188
    8      -10.756890
    9      -10.756870
   10      -10.754140
   11      -10.641746
   12      -10.638700
   13       -9.425925
   14       -9.366236
   15       -9.364993
   16       -9.315907
   17       -8.354117
   18       -8.324954
   19       -8.321624
   20       -8.273326
   21       -7.036360
   22       -7.033205
   23       -6.957445
   24       -6.954839
   25       -6.954818
   26       -6.950936
   27       -6.872316
   28       -6.868936
   29       -3.546876
   30       -2.660755
   31       -2.659065
   32       -2.600678
   33       -2.562584
   34       -2.560496
   35       -2.521649
   36       -1.792957
   37       -1.790011
   38       -1.763714
   39       -1.759723
   40       -1.759717
   41       -1.758440
   42       -1.730256
   43       -1.727808
   44       -1.581572
   45        0.869071
   46        0.881007
   47        0.883845
   48        0.893723
   49        0.898562
   50        0.905752
   51        1.213094
   52        1.223781
   53        1.228100
   54        1.237622
   55        1.553772
   56        1.557037
   57        1.557175
   58        1.558798
   59        2.196138
   60        2.266305
   61        2.268655
   62        2.601381
   63        2.603816
   64        2.871788
   65        6.194412
   66        6.269565
   67        6.274663
   68        6.700458
   69        7.048212
   70        7.050605
   71        7.434236
   72        7.436070
   73        7.436548
   74        7.441031
   75        8.015465
   76        8.018188
   77        9.278844
   78       11.890578
   79       11.894178
   80       12.303363
   81       12.307043
   82       12.492714
   83       12.497029
   84       12.499295
 
  0.2222222E+00  0.1111111E+00  0.0000000E+00  0.6172840E-02
    1      -14.425542
    2      -14.283106
    3      -14.282634
    4      -14.130642
    5      -11.835729
    6      -11.715437
    7      -11.715028
    8      -11.588121
    9      -11.210912
   10      -11.096288
   11      -11.095850
   12      -10.975133
   13       -9.478648
   14       -9.391951
   15       -9.391361
   16       -9.304277
   17       -7.890304
   18       -7.824625
   19       -7.821804
   20       -7.748596
   21       -6.250845
   22       -6.177499
   23       -6.176898
   24       -6.100806
   25       -5.651646
   26       -5.581201
   27       -5.579543
   28       -5.506661
   29       -3.509556
   30       -3.463139
   31       -3.461098
   32       -3.413220
   33       -3.191447
   34       -2.318150
   35       -2.315412
   36       -2.313759
   37       -2.280924
   38       -2.280681
   39       -2.242701
   40       -1.505834
   41       -1.477123
   42       -1.474338
   43       -1.445333
   44       -1.250763
   45       -0.145123
   46       -0.085982
   47       -0.065253
   48       -0.060520
   49       -0.039906
   50        0.563271
   51        0.604412
   52        0.606004
   53        0.668763
   54        0.683660
   55        0.688581
   56        0.703150
   57        1.268636
   58        1.269805
   59        1.476073
   60        2.069214
   61        2.330459
   62        2.803649
   63        2.805958
   64        3.185710
   65        6.165006
   66        6.278583
   67        6.283298
   68        6.645192
   69        7.621014
   70        8.005092
   71        8.007537
   72        8.400944
   73        8.501237
   74        8.806830
   75        8.809775
   76        9.336911
   77        9.635892
   78       12.193676
   79       12.197374
   80       12.429857
   81       12.635004
   82       12.636679
   83       12.679709
   84       13.059168
 
  0.3333333E+00  0.1111111E+00  0.0000000E+00  0.6172840E-02
    1      -13.986685
    2      -13.847978
    3      -13.847523
    4      -13.699770
    5      -12.686823
    6      -12.559040
    7      -12.558626
    8      -12.423324
    9      -11.420008
   10      -11.303267
   11      -11.302801
   12      -11.180019
   13       -9.623299
   14       -9.526246
   15       -9.525959
   16       -9.425195
   17       -7.124541
   18       -7.058229
   19       -7.055561
   20       -6.986414
   21       -5.450572
   22       -5.390376
   23       -5.389092
   24       -5.327454
   25       -4.447999
   26       -4.399866
   27       -4.397685
   28       -4.346626
   29       -4.200961
   30       -4.141691
   31       -4.139815
   32       -4.079015
   33       -3.016762
   34       -2.977307
   35       -2.976266
   36       -2.934407
   37       -2.662852
   38       -1.803479
   39       -1.801746
   40       -1.334206
   41       -1.299711
   42       -1.296091
   43       -1.262363
   44       -1.120825
   45       -1.089363
   46       -1.062212
   47       -1.059261
   48       -1.031935
   49       -0.761610
   50       -0.319071
   51       -0.317518
   52        0.044278
   53        0.064622
   54        0.069146
   55        0.089608
   56        0.353177
   57        0.635900
   58        1.084534
   59        1.085816
   60        1.932949
   61        2.326565
   62        2.893812
   63        2.895715
   64        3.463224
   65        6.147777
   66        6.398857
   67        6.402660
   68        6.746550
   69        8.129186
   70        8.459928
   71        8.462211
   72        8.826094
   73        9.967105
   74       10.170211
   75       10.313327
   76       10.316316
   77       10.756108
   78       11.743613
   79       12.588484
   80       12.594652
   81       12.705438
   82       12.812477
   83       12.814185
   84       13.064707
 
  0.4444444E+00  0.1111111E+00  0.0000000E+00  0.6172840E-02
    1      -13.407370
    2      -13.404406
    3      -13.274797
    4      -13.272205
    5      -13.271256
    6      -13.269069
    7      -13.130895
    8      -13.127882
    9      -11.490589
   10      -11.373394
   11      -11.372914
   12      -11.249419
   13       -9.678325
   14       -9.579271
   15       -9.578950
   16       -9.475734
   17       -6.613188
   18       -6.570721
   19       -6.568202
   20       -6.527939
   21       -4.977125
   22       -4.968898
   23       -4.944076
   24       -4.943022
   25       -4.940829
   26       -4.938900
   27       -4.909471
   28       -4.905621
   29       -3.429758
   30       -3.406977
   31       -3.404106
   32       -3.376167
   33       -2.740713
   34       -2.737546
   35       -2.693304
   36       -2.692975
   37       -2.691324
   38       -2.686713
   39       -2.643551
   40       -2.639639
   41       -1.969741
   42       -1.967295
   43       -1.134604
   44       -1.131659
   45       -1.130824
   46       -1.128827
   47       -0.564952
   48       -0.558189
   49       -0.540544
   50       -0.534072
   51       -0.531873
   52       -0.531723
   53       -0.509854
   54       -0.505812
   55       -0.126957
   56       -0.124250
   57        0.281281
   58        1.020877
   59        1.022247
   60        1.884131
   61        2.314164
   62        2.916982
   63        2.918378
   64        3.567242
   65        6.153761
   66        6.467462
   67        6.470147
   68        6.802125
   69        8.348122
   70        8.636739
   71        8.639285
   72        8.926700
   73       10.877120
   74       10.878786
   75       11.561782
   76       11.565115
   77       11.804371
   78       11.807870
   79       11.808745
   80       11.814944
   81       12.168041
   82       12.171522
   83       12.935279
   84       12.938479
 
 -0.4444444E+00  0.1111111E+00  0.0000000E+00  0.6172840E-02
    1      -13.987450
    2      -13.848749
    3      -13.848280
    4      -13.700532
    5      -12.685611
    6      -12.557827
    7      -12.557429
    8      -12.422107
    9      -11.421787
   10      -11.305096
   11      -11.304616
   12      -11.181822
   13       -9.620627
   14       -9.523405
   15       -9.523051
   16       -9.422171
   17       -7.116166
   18       -7.049042
   19       -7.048080
   20       -6.978247
   21       -5.461979
   22       -5.402226
   23       -5.399478
   24       -5.338248
   25       -4.460144
   26       -4.411450
   27       -4.410920
   28       -4.359242
   29       -4.203164
   30       -4.144075
   31       -4.141845
   32       -4.081223
   33       -3.002370
   34       -2.963526
   35       -2.960732
   36       -2.919498
   37       -2.663594
   38       -1.804193
   39       -1.802477
   40       -1.334129
   41       -1.299079
   42       -1.296895
   43       -1.262700
   44       -1.119747
   45       -1.087229
   46       -1.060313
   47       -1.056977
   48       -1.029827
   49       -0.762308
   50       -0.318057
   51       -0.316449
   52        0.044590
   53        0.065059
   54        0.068142
   55        0.089040
   56        0.351796
   57        0.636864
   58        1.082776
   59        1.084237
   60        1.930749
   61        2.327183
   62        2.896747
   63        2.897644
   64        3.469498
   65        6.148775
   66        6.402657
   67        6.404744
   68        6.748120
   69        8.123660
   70        8.454757
   71        8.458018
   72        8.823831
   73        9.967573
   74       10.169190
   75       10.312750
   76       10.316038
   77       10.754946
   78       11.745052
   79       12.588610
   80       12.594704
   81       12.702159
   82       12.809023
   83       12.811619
   84       13.061873
 
 -0.3333333E+00  0.1111111E+00  0.0000000E+00  0.6172840E-02
    1      -14.426080
    2      -14.283656
    3      -14.283174
    4      -14.131179
    5      -11.834307
    6      -11.714001
    7      -11.713617
    8      -11.586698
    9      -11.214499
   10      -11.099927
   11      -11.099468
   12      -10.978780
   13       -9.472889
   14       -9.385530
   15       -9.385183
   16       -9.297296
   17       -7.883572
   18       -7.816264
   19       -7.815827
   20       -7.741125
   21       -6.262437
   22       -6.189814
   23       -6.187564
   24       -6.112175
   25       -5.653969
   26       -5.583597
   27       -5.581798
   28       -5.509002
   29       -3.525414
   30       -3.478128
   31       -3.477970
   32       -3.429219
   33       -3.191987
   34       -2.315983
   35       -2.314304
   36       -2.299797
   37       -2.263716
   38       -2.261257
   39       -2.224231
   40       -1.504127
   41       -1.475515
   42       -1.472495
   43       -1.443609
   44       -1.251276
   45       -0.144029
   46       -0.089757
   47       -0.068166
   48       -0.066102
   49       -0.045091
   50        0.560751
   51        0.605400
   52        0.607162
   53        0.674444
   54        0.688900
   55        0.691217
   56        0.706439
   57        1.265198
   58        1.266785
   59        1.477024
   60        2.064712
   61        2.330685
   62        2.809137
   63        2.809601
   64        3.197958
   65        6.163834
   66        6.284776
   67        6.287070
   68        6.651247
   69        7.613979
   70        7.996798
   71        8.000713
   72        8.400847
   73        8.495460
   74        8.805906
   75        8.809118
   76        9.335531
   77        9.635141
   78       12.193137
   79       12.196814
   80       12.427714
   81       12.632474
   82       12.634569
   83       12.679195
   84       13.058609
 
 -0.2222222E+00  0.1111111E+00  0.0000000E+00  0.6172840E-02
    1      -14.719710
    2      -14.574829
    3      -14.574337
    4      -14.419482
    5      -10.873678
    6      -10.866667
    7      -10.762709
    8      -10.762306
    9      -10.755641
   10      -10.755214
   11      -10.645835
   12      -10.638696
   13       -9.416499
   14       -9.355126
   15       -9.354833
   16       -9.303905
   17       -8.351246
   18       -8.319754
   19       -8.319488
   20       -8.268879
   21       -7.045103
   22       -7.036414
   23       -6.965867
   24       -6.963783
   25       -6.957004
   26       -6.955341
   27       -6.881014
   28       -6.872424
   29       -3.547203
   30       -2.661076
   31       -2.659390
   32       -2.618474
   33       -2.579510
   34       -2.579266
   35       -2.539558
   36       -1.790967
   37       -1.771062
   38       -1.761312
   39       -1.758523
   40       -1.741267
   41       -1.738894
   42       -1.728620
   43       -1.708774
   44       -1.581846
   45        0.856759
   46        0.869439
   47        0.871082
   48        0.882903
   49        0.897357
   50        0.901641
   51        1.227945
   52        1.237914
   53        1.238063
   54        1.249050
   55        1.551482
   56        1.553261
   57        1.556413
   58        1.558375
   59        2.195778
   60        2.260920
   61        2.267715
   62        2.608397
   63        2.608718
   64        2.887596
   65        6.191201
   66        6.277056
   67        6.279709
   68        6.711078
   69        7.042684
   70        7.050069
   71        7.425323
   72        7.429701
   73        7.435112
   74        7.438948
   75        8.007599
   76        8.016202
   77        9.278378
   78       11.890160
   79       11.893761
   80       12.303004
   81       12.338763
   82       12.494395
   83       12.500345
   84       12.533020
 
 -0.1111111E+00  0.1111111E+00  0.0000000E+00  0.6172840E-02
    1      -14.866854
    2      -14.720708
    3      -14.720212
    4      -14.563941
    5      -10.411342
    6      -10.306681
    7      -10.306368
    8      -10.197602
    9       -9.856625
   10       -9.854306
   11       -9.767099
   12       -9.764225
   13       -9.764208
   14       -9.762510
   15       -9.674243
   16       -9.671999
   17       -8.233072
   18       -8.231256
   19       -8.161272
   20       -8.160341
   21       -8.160325
   22       -8.157434
   23       -8.080395
   24       -8.078406
   25       -7.727324
   26       -7.646039
   27       -7.643901
   28       -7.558331
   29       -3.725593
   30       -2.834531
   31       -2.832839
   32       -1.937812
   33       -1.935162
   34       -1.907995
   35       -1.904181
   36       -1.904174
   37       -1.903256
   38       -1.874236
   39       -1.872049
   40       -1.748340
   41       -1.616939
   42       -1.589882
   43       -1.587534
   44       -1.560453
   45        1.331224
   46        1.380347
   47        1.393194
   48        1.397860
   49        1.409438
   50        1.545686
   51        1.556154
   52        1.560426
   53        1.572471
   54        1.811303
   55        1.813857
   56        1.909181
   57        1.911203
   58        2.287412
   59        2.291210
   60        2.291310
   61        2.292228
   62        2.475887
   63        2.678694
   64        2.680658
   65        6.282493
   66        6.284654
   67        6.481467
   68        6.483430
   69        6.483701
   70        6.489158
   71        6.566489
   72        6.882797
   73        6.887561
   74        7.022252
   75        7.025348
   76        7.479258
   77        9.100618
   78       11.737247
   79       11.740852
   80       11.965279
   81       12.157455
   82       12.158277
   83       12.222186
   84       12.225648
 
 -0.1355253E-19  0.2222222E+00  0.0000000E+00  0.6172840E-02
    1      -14.645962
    2      -14.501694
    3      -14.501204
    4      -14.347072
    5      -11.416012
    6      -11.299317
    7      -11.298876
    8      -11.176295
    9      -10.212666
   10      -10.206732
   11      -10.110554
   12      -10.109398
   13      -10.103745
   14      -10.103015
   15      -10.002668
   16       -9.996415
   17       -7.557617
   18       -7.547102
   19       -7.479387
   20       -7.476499
   21       -7.468282
   22       -7.465883
   23       -7.393760
   24       -7.383101
   25       -6.393653
   26       -6.316778
   27       -6.316472
   28       -6.236645
   29       -3.457926
   30       -2.574276
   31       -2.572594
   32       -2.544724
   33       -2.525181
   34       -2.507423
   35       -2.504855
   36       -2.487650
   37       -2.485520
   38       -2.466439
   39       -2.446942
   40       -1.498606
   41       -1.421440
   42       -1.394083
   43       -1.393886
   44       -1.366370
   45        0.313236
   46        0.569392
   47        0.591003
   48        0.591447
   49        0.613305
   50        1.025552
   51        1.026740
   52        1.111063
   53        1.127746
   54        1.127820
   55        1.144539
   56        1.586814
   57        1.589688
   58        1.833571
   59        2.162322
   60        2.163053
   61        2.167563
   62        2.168386
   63        2.729573
   64        2.737770
   65        6.521977
   66        6.527016
   67        6.808289
   68        6.813043
   69        6.818332
   70        6.822518
   71        7.320654
   72        7.330545
   73        7.694611
   74        8.114891
   75        8.117518
   76        8.701081
   77        9.367580
   78       11.964325
   79       11.967915
   80       12.047428
   81       12.232811
   82       12.233415
   83       12.402553
   84       13.073267
 
  0.1111111E+00  0.2222222E+00  0.0000000E+00  0.6172840E-02
    1      -14.425547
    2      -14.283113
    3      -14.282636
    4      -14.130646
    5      -11.835782
    6      -11.715521
    7      -11.715049
    8      -11.588173
    9      -11.210875
   10      -11.096231
   11      -11.095836
   12      -10.975099
   13       -9.478639
   14       -9.391950
   15       -9.391346
   16       -9.304271
   17       -7.890244
   18       -7.824506
   19       -7.821804
   20       -7.748535
   21       -6.249855
   22       -6.176927
   23       -6.175438
   24       -6.099764
   25       -5.652616
   26       -5.581587
   27       -5.581164
   28       -5.507699
   29       -3.509634
   30       -3.463139
   31       -3.461261
   32       -3.413307
   33       -3.191432
   34       -2.319581
   35       -2.315406
   36       -2.313745
   37       -2.283406
   38       -2.280904
   39       -2.243978
   40       -1.504261
   41       -1.474372
   42       -1.474256
   43       -1.444034
   44       -1.250740
   45       -0.144762
   46       -0.086750
   47       -0.065252
   48       -0.062585
   49       -0.041609