 vasp.5.3.5 31Mar14 (build Nov 02 2014 15:17:37) complex                        
  
 executed on        ion-Intel-MKL date 2016.10.19  07:53:30
 running on    6 total cores
 distrk:  each k-point on    6 cores,    1 groups
 distr:  one band on NCORES_PER_BAND=   1 cores,    6 groups


--------------------------------------------------------------------------------------------------------


 INCAR:
 POTCAR:   PAW_PBE C 08Apr2002                    

 ----------------------------------------------------------------------------- 
|                                                                             |
|           W    W    AA    RRRRR   N    N  II  N    N   GGGG   !!!           |
|           W    W   A  A   R    R  NN   N  II  NN   N  G    G  !!!           |
|           W    W  A    A  R    R  N N  N  II  N N  N  G       !!!           |
|           W WW W  AAAAAA  RRRRR   N  N N  II  N  N N  G  GGG   !            |
|           WW  WW  A    A  R   R   N   NN  II  N   NN  G    G                |
|           W    W  A    A  R    R  N    N  II  N    N   GGGG   !!!           |
|                                                                             |
|      For optimal performance we recommend to set                            |
|        NCORE= 4 - approx SQRT( number of cores)                             |
|      NCORE specifies how many cores store one orbital (NPAR=cpu/NCORE).     |
|      This setting can  greatly improve the performance of VASP for DFT.     |
|      The default, NPAR=number of cores might be grossly inefficient         |
|      on modern multi-core architectures or massively parallel machines.     |
|      Do your own testing !!!!                                               |
|      Unfortunately you need to use the default for GW and RPA calculations. |
|      (for HF NCORE is supported but not extensively tested yet)             |
|                                                                             |
 ----------------------------------------------------------------------------- 

 POTCAR:   PAW_PBE C 08Apr2002                    
   VRHFIN =C: s2p2                                                              
   LEXCH  = PE                                                                  
   EATOM  =   147.1560 eV,   10.8157 Ry                                         
                                                                                
   TITEL  = PAW_PBE C 08Apr2002                                                 
   LULTRA =        F    use ultrasoft PP ?                                      
   IUNSCR =        0    unscreen: 0-lin 1-nonlin 2-no                           
   RPACOR =     .000    partial core radius                                     
   POMASS =   12.011; ZVAL   =    4.000    mass and valenz                      
   RCORE  =    1.500    outmost cutoff radius                                   
   RWIGS  =    1.630; RWIGS  =     .863    wigner-seitz radius (au A)           
   ENMAX  =  400.000; ENMIN  =  300.000 eV                                      
   ICORE  =        2    local potential                                         
   LCOR   =        T    correct aug charges                                     
   LPAW   =        T    paw PP                                                  
   EAUG   =  644.873                                                            
   DEXC   =     .000                                                            
   RMAX   =    2.266    core radius for proj-oper                               
   RAUG   =    1.300    factor for augmentation sphere                          
   RDEP   =    1.501    radius for radial grids                                 
   RDEPT  =    1.300    core radius for aug-charge                              
   QCUT   =   -5.516; QGAM   =   11.032    optimization parameters              
                                                                                
   Description                                                                  
     l     E      TYP  RCUT    TYP  RCUT                                        
     0   .000     23  1.200                                                     
     0   .000     23  1.200                                                     
     1   .000     23  1.500                                                     
     1  2.500     23  1.500                                                     
     2   .000      7  1.500                                                     
  local pseudopotential read in
  atomic valenz-charges read in
  non local Contribution for L=           0  read in
    real space projection operators read in
  non local Contribution for L=           0  read in
    real space projection operators read in
  non local Contribution for L=           1  read in
    real space projection operators read in
  non local Contribution for L=           1  read in
    real space projection operators read in
    PAW grid and wavefunctions read in
 
   number of l-projection  operators is LMAX  =           4
   number of lm-projection operators is LMMAX =           8
 

 ----------------------------------------------------------------------------- 
|                                                                             |
|  ADVICE TO THIS USER RUNNING 'VASP/VAMP'   (HEAR YOUR MASTER'S VOICE ...):  |
|                                                                             |
|      You have a (more or less) 'large supercell' and for larger cells       |
|      it might be more efficient to use real space projection operators      |
|      So try LREAL= Auto  in the INCAR   file.                               |
|      Mind: If you want to do a very accurate calculations keep the          |
|      reciprocal projection scheme          (i.e. LREAL=.FALSE.)             |
|                                                                             |
 ----------------------------------------------------------------------------- 

 PAW_PBE C 08Apr2002                    :
 energy of atom  1       EATOM= -147.1560
 kinetic energy error for atom=    0.0016 (will be added to EATOM!!)
 
 
 POSCAR: C                                       
  positions in direct lattice
  No initial velocities read in
 exchange correlation table for  LEXCH =        8
   RHO(1)=    0.500       N(1)  =     2000
   RHO(2)=  100.500       N(2)  =     4000
 


--------------------------------------------------------------------------------------------------------


 ion  position               nearest neighbor table
   1  0.500  0.000  0.126-  20 1.42  18 1.42  19 1.43
   2  1.000  0.000  0.125-  17 1.42  20 1.42  19 1.42
   3  0.500  0.500  0.125-  20 1.42  17 1.42  18 1.42
   4  1.000  0.500  0.125-  19 1.42  18 1.42  17 1.42
   5  0.500  0.000  0.625-  22 1.42  23 1.42  24 1.42
   6  1.000  0.000  0.625-  21 1.42  24 1.42  23 1.42
   7  0.500  0.500  0.625-  24 1.42  21 1.42  22 1.42
   8  1.000  0.500  0.625-  23 1.42  22 1.42  21 1.42
   9  0.000  0.500  0.375-  27 1.42  26 1.42  28 1.42
  10  0.500  0.500  0.375-  28 1.42  25 1.42  27 1.42
  11  0.000  1.000  0.375-  25 1.42  28 1.42  26 1.42
  12  0.500  1.000  0.375-  26 1.42  27 1.42  25 1.42
  13  0.000  0.500  0.875-  31 1.42  30 1.42  32 1.42
  14  0.500  0.500  0.875-  32 1.42  29 1.42  31 1.42
  15  0.000  1.000  0.875-  29 1.42  32 1.42  30 1.42
  16  0.500  1.000  0.875-  30 1.42  31 1.42  29 1.42
  17  0.166  0.334  0.125-   2 1.42   3 1.42   4 1.42
  18  0.666  0.334  0.125-   4 1.42   1 1.42   3 1.42
  19  0.166  0.834  0.125-   4 1.42   2 1.42   1 1.43
  20  0.666  0.834  0.125-   1 1.42   3 1.42   2 1.42
  21  0.166  0.334  0.625-   6 1.42   7 1.42   8 1.42
  22  0.666  0.334  0.625-   5 1.42   8 1.42   7 1.42
  23  0.166  0.834  0.625-   8 1.42   5 1.42   6 1.42
  24  0.666  0.834  0.625-   7 1.42   6 1.42   5 1.42
  25  0.334  0.166  0.375-  11 1.42  10 1.42  12 1.42
  26  0.834  0.166  0.375-  12 1.42   9 1.42  11 1.42
  27  0.334  0.666  0.375-   9 1.42  12 1.42  10 1.42
  28  0.834  0.666  0.375-  10 1.42  11 1.42   9 1.42
  29  0.334  0.166  0.875-  15 1.42  14 1.42  16 1.42
  30  0.834  0.166  0.875-  16 1.42  13 1.42  15 1.42
  31  0.334  0.666  0.875-  13 1.42  16 1.42  14 1.42
  32  0.834  0.666  0.875-  14 1.42  15 1.42  13 1.42
 
  LATTYP: Found a base centered orthorhombic cell.
 ALAT       =     4.9295501972
 B/A-ratio  =     1.7336081796
 C/A-ratio  =     2.5022681302
  
  Lattice vectors:
  
 A1 = (   4.9328744980,  -0.0019192860,   0.0000000000)
 A2 = (  -2.4680993993,   4.2710349859,   0.0000000000)
 A3 = (   0.0000000000,   0.0000000000,  12.3350563544)


Analysis of symmetry for initial positions (statically):
=====================================================================
 Subroutine PRICEL returns:
 Original cell was already a primitive cell.
 

 Routine SETGRP: Setting up the symmetry group for a 
 base centered orthorhombic supercell.


 Subroutine GETGRP returns: Found  1 space group operations
 (whereof  1 operations were pure point group operations)
 out of a pool of  8 trial point group operations.


The static configuration has the point symmetry C_1 .


Analysis of symmetry for dynamics (positions and initial velocities):
=====================================================================
 Subroutine PRICEL returns:
 Original cell was already a primitive cell.
 

 Routine SETGRP: Setting up the symmetry group for a 
 base centered orthorhombic supercell.


 Subroutine GETGRP returns: Found  1 space group operations
 (whereof  1 operations were pure point group operations)
 out of a pool of  8 trial point group operations.


The dynamic configuration has the point symmetry C_1 .
 
 
 KPOINTS: B4C B11C-CBC                            

Automatic generation of k-mesh.
Space group operators:
 irot       det(A)        alpha          n_x          n_y          n_z        tau_x        tau_y        tau_z
    1     1.000000     0.000000     1.000000     0.000000     0.000000     0.000000     0.000000     0.000000
 
 Subroutine IBZKPT returns following result:
 ===========================================
 
 Found     76 irreducible k-points:
 
 Following reciprocal coordinates:
            Coordinates               Weight
  0.000000  0.000000  0.000000      1.000000
  0.166667 -0.000000  0.000000      2.000000
  0.333333 -0.000000  0.000000      2.000000
  0.500000  0.000000  0.000000      1.000000
 -0.000000  0.166667  0.000000      2.000000
  0.166667  0.166667  0.000000      2.000000
  0.333333  0.166667  0.000000      2.000000
  0.500000  0.166667  0.000000      2.000000
 -0.333333  0.166667  0.000000      2.000000
 -0.166667  0.166667  0.000000      2.000000
 -0.000000  0.333333  0.000000      2.000000
  0.166667  0.333333  0.000000      2.000000
  0.333333  0.333333  0.000000      2.000000
  0.500000  0.333333  0.000000      2.000000
 -0.333333  0.333333  0.000000      2.000000
 -0.166667  0.333333  0.000000      2.000000
 -0.000000  0.500000  0.000000      1.000000
  0.166667  0.500000  0.000000      2.000000
  0.333333  0.500000  0.000000      2.000000
  0.500000  0.500000  0.000000      1.000000
  0.000000  0.000000  0.250000      2.000000
  0.166667 -0.000000  0.250000      2.000000
  0.333333 -0.000000  0.250000      2.000000
  0.500000  0.000000  0.250000      2.000000
 -0.333333  0.000000  0.250000      2.000000
 -0.166667  0.000000  0.250000      2.000000
 -0.000000  0.166667  0.250000      2.000000
  0.166667  0.166667  0.250000      2.000000
  0.333333  0.166667  0.250000      2.000000
  0.500000  0.166667  0.250000      2.000000
 -0.333333  0.166667  0.250000      2.000000
 -0.166667  0.166667  0.250000      2.000000
 -0.000000  0.333333  0.250000      2.000000
  0.166667  0.333333  0.250000      2.000000
  0.333333  0.333333  0.250000      2.000000
  0.500000  0.333333  0.250000      2.000000
 -0.333333  0.333333  0.250000      2.000000
 -0.166667  0.333333  0.250000      2.000000
 -0.000000  0.500000  0.250000      2.000000
  0.166667  0.500000  0.250000      2.000000
  0.333333  0.500000  0.250000      2.000000
  0.500000  0.500000  0.250000      2.000000
 -0.333333  0.500000  0.250000      2.000000
 -0.166667  0.500000  0.250000      2.000000
  0.000000 -0.333333  0.250000      2.000000
  0.166667 -0.333333  0.250000      2.000000
  0.333333 -0.333333  0.250000      2.000000
  0.500000 -0.333333  0.250000      2.000000
 -0.333333 -0.333333  0.250000      2.000000
 -0.166667 -0.333333  0.250000      2.000000
  0.000000 -0.166667  0.250000      2.000000
  0.166667 -0.166667  0.250000      2.000000
  0.333333 -0.166667  0.250000      2.000000
  0.500000 -0.166667  0.250000      2.000000
 -0.333333 -0.166667  0.250000      2.000000
 -0.166667 -0.166667  0.250000      2.000000
  0.000000  0.000000  0.500000      1.000000
  0.166667 -0.000000  0.500000      2.000000
  0.333333 -0.000000  0.500000      2.000000
  0.500000  0.000000  0.500000      1.000000
 -0.000000  0.166667  0.500000      2.000000
  0.166667  0.166667  0.500000      2.000000
  0.333333  0.166667  0.500000      2.000000
  0.500000  0.166667  0.500000      2.000000
 -0.333333  0.166667  0.500000      2.000000
 -0.166667  0.166667  0.500000      2.000000
 -0.000000  0.333333  0.500000      2.000000
  0.166667  0.333333  0.500000      2.000000
  0.333333  0.333333  0.500000      2.000000
  0.500000  0.333333  0.500000      2.000000
 -0.333333  0.333333  0.500000      2.000000
 -0.166667  0.333333  0.500000      2.000000
 -0.000000  0.500000  0.500000      1.000000
  0.166667  0.500000  0.500000      2.000000
  0.333333  0.500000  0.500000      2.000000
  0.500000  0.500000  0.500000      1.000000
 
 Following cartesian coordinates:
            Coordinates               Weight
  0.000000  0.000000  0.000000      1.000000
  0.033795  0.019529  0.000000      2.000000
  0.067589  0.039058  0.000000      2.000000
  0.101384  0.058586  0.000000      1.000000
  0.000015  0.039031  0.000000      2.000000
  0.033810  0.058560  0.000000      2.000000
  0.067604  0.078089  0.000000      2.000000
  0.101399  0.097618  0.000000      2.000000
 -0.067574 -0.000026  0.000000      2.000000
 -0.033779  0.019503  0.000000      2.000000
  0.000030  0.078063  0.000000      2.000000
  0.033825  0.097591  0.000000      2.000000
  0.067619  0.117120  0.000000      2.000000
  0.101414  0.136649  0.000000      2.000000
 -0.067559  0.039005  0.000000      2.000000
 -0.033764  0.058534  0.000000      2.000000
  0.000046  0.117094  0.000000      1.000000
  0.033840  0.136623  0.000000      2.000000
  0.067635  0.156152  0.000000      2.000000
  0.101429  0.175680  0.000000      1.000000
  0.000000  0.000000  0.020267      2.000000
  0.033795  0.019529  0.020267      2.000000
  0.067589  0.039058  0.020267      2.000000
  0.101384  0.058586  0.020267      2.000000
 -0.067589 -0.039058  0.020267      2.000000
 -0.033795 -0.019529  0.020267      2.000000
  0.000015  0.039031  0.020267      2.000000
  0.033810  0.058560  0.020267      2.000000
  0.067604  0.078089  0.020267      2.000000
  0.101399  0.097618  0.020267      2.000000
 -0.067574 -0.000026  0.020267      2.000000
 -0.033779  0.019503  0.020267      2.000000
  0.000030  0.078063  0.020267      2.000000
  0.033825  0.097591  0.020267      2.000000
  0.067619  0.117120  0.020267      2.000000
  0.101414  0.136649  0.020267      2.000000
 -0.067559  0.039005  0.020267      2.000000
 -0.033764  0.058534  0.020267      2.000000
  0.000046  0.117094  0.020267      2.000000
  0.033840  0.136623  0.020267      2.000000
  0.067635  0.156152  0.020267      2.000000
  0.101429  0.175680  0.020267      2.000000
 -0.067543  0.078036  0.020267      2.000000
 -0.033749  0.097565  0.020267      2.000000
 -0.000030 -0.078063  0.020267      2.000000
  0.033764 -0.058534  0.020267      2.000000
  0.067559 -0.039005  0.020267      2.000000
  0.101353 -0.019476  0.020267      2.000000
 -0.067619 -0.117120  0.020267      2.000000
 -0.033825 -0.097591  0.020267      2.000000
 -0.000015 -0.039031  0.020267      2.000000
  0.033779 -0.019503  0.020267      2.000000
  0.067574  0.000026  0.020267      2.000000
  0.101368  0.019555  0.020267      2.000000
 -0.067604 -0.078089  0.020267      2.000000
 -0.033810 -0.058560  0.020267      2.000000
  0.000000  0.000000  0.040535      1.000000
  0.033795  0.019529  0.040535      2.000000
  0.067589  0.039058  0.040535      2.000000
  0.101384  0.058586  0.040535      1.000000
  0.000015  0.039031  0.040535      2.000000
  0.033810  0.058560  0.040535      2.000000
  0.067604  0.078089  0.040535      2.000000
  0.101399  0.097618  0.040535      2.000000
 -0.067574 -0.000026  0.040535      2.000000
 -0.033779  0.019503  0.040535      2.000000
  0.000030  0.078063  0.040535      2.000000
  0.033825  0.097591  0.040535      2.000000
  0.067619  0.117120  0.040535      2.000000
  0.101414  0.136649  0.040535      2.000000
 -0.067559  0.039005  0.040535      2.000000
 -0.033764  0.058534  0.040535      2.000000
  0.000046  0.117094  0.040535      1.000000
  0.033840  0.136623  0.040535      2.000000
  0.067635  0.156152  0.040535      2.000000
  0.101429  0.175680  0.040535      1.000000
 
 TETIRR: Found    432 inequivalent tetrahedra from      864


--------------------------------------------------------------------------------------------------------




 Dimension of arrays:
   k-points           NKPTS =     76   k-points in BZ     NKDIM =     76   number of bands    NBANDS=     84
   number of dos      NEDOS =    301   number of ions     NIONS =     32
   non local maximal  LDIM  =      4   non local SUM 2l+1 LMDIM =      8
   total plane-waves  NPLWV = 276480
   max r-space proj   IRMAX =      1   max aug-charges    IRDMAX=  12755
   dimension x,y,z NGX =    48 NGY =   48 NGZ =  120
   dimension x,y,z NGXF=    96 NGYF=   96 NGZF=  240
   support grid    NGXF=    96 NGYF=   96 NGZF=  240
   ions per type =              32
 NGX,Y,Z   is equivalent  to a cutoff of  16.18, 16.18, 16.17 a.u.
 NGXF,Y,Z  is equivalent  to a cutoff of  32.35, 32.35, 32.35 a.u.


 I would recommend the setting:
   dimension x,y,z NGX =    46 NGY =   46 NGZ =  114
 SYSTEM =  graphite                                
 POSCAR =  C                                       

 Startparameter for this run:
   NWRITE =      2    write-flag & timer
   PREC   = accura    normal or accurate (medium, high low for compatibility)
   ISTART =      0    job   : 0-new  1-cont  2-samecut
   ICHARG =      2    charge: 1-file 2-atom 10-const
   ISPIN  =      1    spin polarized calculation?
   LNONCOLLINEAR =      F non collinear calculations
   LSORBIT =      F    spin-orbit coupling
   INIWAV =      1    electr: 0-lowe 1-rand  2-diag
   LASPH  =      F    aspherical Exc in radial PAW
   METAGGA=      F    non-selfconsistent MetaGGA calc.

 Electronic Relaxation 1
   ENCUT  =  800.0 eV  58.80 Ry    7.67 a.u.  11.38 11.38 28.45*2*pi/ulx,y,z
   ENINI  =  800.0     initial cutoff
   ENAUG  =  644.9 eV  augmentation charge cutoff
   NELM   =    200;   NELMIN=  2; NELMDL=  0     # of ELM steps 
   EDIFF  = 0.1E-07   stopping-criterion for ELM
   LREAL  =      F    real-space projection
   NLSPLINE    = F    spline interpolate recip. space projectors
   LCOMPAT=      F    compatible to vasp.4.4
   GGA_COMPAT  = T    GGA compatible to vasp.4.4-vasp.4.6
   LMAXPAW     = -100 max onsite density
   LMAXMIX     =    2 max onsite mixed and CHGCAR
   VOSKOWN=      0    Vosko Wilk Nusair interpolation
   ROPT   =    0.00000
 Ionic relaxation
   EDIFFG = 0.1E-02   stopping-criterion for IOM
   NSW    =      0    number of steps for IOM
   NBLOCK =      1;   KBLOCK =      1    inner block; outer block 
   IBRION =     -1    ionic relax: 0-MD 1-quasi-New 2-CG
   NFREE  =      0    steps in history (QN), initial steepest desc. (CG)
   ISIF   =      2    stress and relaxation
   IWAVPR =     10    prediction:  0-non 1-charg 2-wave 3-comb
   ISYM   =      2    0-nonsym 1-usesym 2-fastsym
   LCORR  =      T    Harris-Foulkes like correction to forces

   POTIM  = 0.5000    time-step for ionic-motion
   TEIN   =    0.0    initial temperature
   TEBEG  =    0.0;   TEEND  =   0.0 temperature during run
   SMASS  =  -3.00    Nose mass-parameter (am)
   estimated Nose-frequenzy (Omega)   =  0.10E-29 period in steps =****** mass=  -0.556E-27a.u.
   SCALEE = 1.0000    scale energy and forces
   NPACO  =    256;   APACO  = 16.0  distance and # of slots for P.C.
   PSTRESS=    0.0 pullay stress

  Mass of Ions in am
   POMASS =  12.01
  Ionic Valenz
   ZVAL   =   4.00
  Atomic Wigner-Seitz radii
   RWIGS  =  -1.00
  virtual crystal weights 
   VCA    =   1.00
   NELECT =     128.0000    total number of electrons
   NUPDOWN=      -1.0000    fix difference up-down

 DOS related values:
   EMIN   =  10.00;   EMAX   =-10.00  energy-range for DOS
   EFERMI =   0.00
   ISMEAR =    -5;   SIGMA  =   0.20  broadening in eV -4-tet -1-fermi 0-gaus

 Electronic relaxation 2 (details)
   IALGO  =     38    algorithm
   LDIAG  =      T    sub-space diagonalisation (order eigenvalues)
   LSUBROT=      F    optimize rotation matrix (better conditioning)
   TURBO    =      0    0=normal 1=particle mesh
   IRESTART =      0    0=no restart 2=restart with 2 vectors
   NREBOOT  =      0    no. of reboots
   NMIN     =      0    reboot dimension
   EREF     =   0.00    reference energy to select bands
   IMIX   =      4    mixing-type and parameters
     AMIX     =   0.40;   BMIX     =  1.00
     AMIX_MAG =   1.60;   BMIX_MAG =  1.00
     AMIN     =   0.10
     WC   =   100.;   INIMIX=   1;  MIXPRE=   1;  MAXMIX= -45

 Intra band minimization:
   WEIMIN = 0.0000     energy-eigenvalue tresh-hold
   EBREAK =  0.30E-10  absolut break condition
   DEPER  =   0.30     relativ break condition  

   TIME   =   0.40     timestep for ELM

  volume/ion in A,a.u.               =       8.12        54.79
  Fermi-wavevector in a.u.,A,eV,Ry     =   1.292962  2.443345 22.745567  1.671752
  Thomas-Fermi vector in A             =   2.424638
 
 Write flags
   LWAVE  =      F    write WAVECAR
   LCHARG =      F    write CHGCAR
   LVTOT  =      F    write LOCPOT, total local potential
   LVHAR  =      F    write LOCPOT, Hartree potential only
   LELF   =      F    write electronic localiz. function (ELF)
   LORBIT =      0    0 simple, 1 ext, 2 COOP (PROOUT)


 Dipole corrections
   LMONO  =      F    monopole corrections only (constant potential shift)
   LDIPOL =      F    correct potential (dipole corrections)
   IDIPOL =      0    1-x, 2-y, 3-z, 4-all directions 
   EPSILON=  1.0000000 bulk dielectric constant

 Exchange correlation treatment:
   GGA     =    PE    GGA type
   LEXCH   =     8    internal setting for exchange type
   VOSKOWN=      0    Vosko Wilk Nusair interpolation
   LHFCALC =     F    Hartree Fock is set to
   LHFONE  =     F    Hartree Fock one center treatment
   AEXX    =    0.0000 exact exchange contribution

 Linear response parameters
   LEPSILON=     F    determine dielectric tensor
   LRPA    =     F    only Hartree local field effects (RPA)
   LNABLA  =     F    use nabla operator in PAW spheres
   LVEL    =     F    velocity operator in full k-point grid
   LINTERFAST=   F  fast interpolation
   KINTER  =     0    interpolate to denser k-point grid
   CSHIFT  =0.1000    complex shift for real part using Kramers Kronig
   OMEGAMAX=  -1.0    maximum frequency
   DEG_THRESHOLD= 0.2000000E-02 threshold for treating states as degnerate
   RTIME   =    0.100 relaxation time in fs

 Orbital magnetization related:
   ORBITALMAG=     F  switch on orbital magnetization
   LCHIMAG   =     F  perturbation theory with respect to B field
   DQ        =  0.001000  dq finite difference perturbation B field



--------------------------------------------------------------------------------------------------------


 Static calculation
 charge density and potential will be updated during run
 non-spin polarized calculation
 Variant of blocked Davidson
 Davidson routine will perform the subspace rotation
 perform sub-space diagonalisation
    after iterative eigenvector-optimisation
 modified Broyden-mixing scheme, WC =      100.0
 initial mixing is a Kerker type mixing with AMIX =  0.4000 and BMIX =      1.0000
 Hartree-type preconditioning will be used
 using additional bands           20
 reciprocal scheme for non local part
 calculate Harris-corrections to forces 
   (improved forces if not selfconsistent)
 use gradient corrections 
 use of overlap-Matrix (Vanderbilt PP)
 Fermi weights with tetrahedron method with Bloechl corrections


--------------------------------------------------------------------------------------------------------


  energy-cutoff  :      800.00
  volume of cell :      259.82
      direct lattice vectors                 reciprocal lattice vectors
     4.932874498 -0.001919286  0.000000000     0.202767147  0.117172881  0.000000000
    -2.468099399  4.271034986  0.000000000     0.000091118  0.234187941  0.000000000
     0.000000000  0.000000000 12.335056354     0.000000000  0.000000000  0.081069755

  length of vectors
     4.932874871  4.932874871 12.335056354     0.234187958  0.234187958  0.081069755


 
 k-points in units of 2pi/SCALE and weight: B4C B11C-CBC                            
   0.00000000  0.00000000  0.00000000       0.007
   0.03379452  0.01952881  0.00000000       0.014
   0.06758905  0.03905763  0.00000000       0.014
   0.10138357  0.05858644  0.00000000       0.007
   0.00001519  0.03903132  0.00000000       0.014
   0.03380971  0.05856014  0.00000000       0.014
   0.06760424  0.07808895  0.00000000       0.014
   0.10139876  0.09761776  0.00000000       0.014
  -0.06757386 -0.00002630  0.00000000       0.014
  -0.03377934  0.01950251  0.00000000       0.014
   0.00003037  0.07806265  0.00000000       0.014
   0.03382490  0.09759146  0.00000000       0.014
   0.06761942  0.11712027  0.00000000       0.014
   0.10141395  0.13664909  0.00000000       0.014
  -0.06755868  0.03900502  0.00000000       0.014
  -0.03376415  0.05853383  0.00000000       0.014
   0.00004556  0.11709397  0.00000000       0.007
   0.03384008  0.13662278  0.00000000       0.014
   0.06763461  0.15615160  0.00000000       0.014
   0.10142913  0.17568041  0.00000000       0.007
   0.00000000  0.00000000  0.02026744       0.014
   0.03379452  0.01952881  0.02026744       0.014
   0.06758905  0.03905763  0.02026744       0.014
   0.10138357  0.05858644  0.02026744       0.014
  -0.06758905 -0.03905763  0.02026744       0.014
  -0.03379452 -0.01952881  0.02026744       0.014
   0.00001519  0.03903132  0.02026744       0.014
   0.03380971  0.05856014  0.02026744       0.014
   0.06760424  0.07808895  0.02026744       0.014
   0.10139876  0.09761776  0.02026744       0.014
  -0.06757386 -0.00002630  0.02026744       0.014
  -0.03377934  0.01950251  0.02026744       0.014
   0.00003037  0.07806265  0.02026744       0.014
   0.03382490  0.09759146  0.02026744       0.014
   0.06761942  0.11712027  0.02026744       0.014
   0.10141395  0.13664909  0.02026744       0.014
  -0.06755868  0.03900502  0.02026744       0.014
  -0.03376415  0.05853383  0.02026744       0.014
   0.00004556  0.11709397  0.02026744       0.014
   0.03384008  0.13662278  0.02026744       0.014
   0.06763461  0.15615160  0.02026744       0.014
   0.10142913  0.17568041  0.02026744       0.014
  -0.06754349  0.07803634  0.02026744       0.014
  -0.03374897  0.09756516  0.02026744       0.014
  -0.00003037 -0.07806265  0.02026744       0.014
   0.03376415 -0.05853383  0.02026744       0.014
   0.06755868 -0.03900502  0.02026744       0.014
   0.10135320 -0.01947621  0.02026744       0.014
  -0.06761942 -0.11712027  0.02026744       0.014
  -0.03382490 -0.09759146  0.02026744       0.014
  -0.00001519 -0.03903132  0.02026744       0.014
   0.03377934 -0.01950251  0.02026744       0.014
   0.06757386  0.00002630  0.02026744       0.014
   0.10136839  0.01955512  0.02026744       0.014
  -0.06760424 -0.07808895  0.02026744       0.014
  -0.03380971 -0.05856014  0.02026744       0.014
   0.00000000  0.00000000  0.04053488       0.007
   0.03379452  0.01952881  0.04053488       0.014
   0.06758905  0.03905763  0.04053488       0.014
   0.10138357  0.05858644  0.04053488       0.007
   0.00001519  0.03903132  0.04053488       0.014
   0.03380971  0.05856014  0.04053488       0.014
   0.06760424  0.07808895  0.04053488       0.014
   0.10139876  0.09761776  0.04053488       0.014
  -0.06757386 -0.00002630  0.04053488       0.014
  -0.03377934  0.01950251  0.04053488       0.014
   0.00003037  0.07806265  0.04053488       0.014
   0.03382490  0.09759146  0.04053488       0.014
   0.06761942  0.11712027  0.04053488       0.014
   0.10141395  0.13664909  0.04053488       0.014
  -0.06755868  0.03900502  0.04053488       0.014
  -0.03376415  0.05853383  0.04053488       0.014
   0.00004556  0.11709397  0.04053488       0.007
   0.03384008  0.13662278  0.04053488       0.014
   0.06763461  0.15615160  0.04053488       0.014
   0.10142913  0.17568041  0.04053488       0.007
 
 k-points in reciprocal lattice and weights: B4C B11C-CBC                            
   0.00000000  0.00000000  0.00000000       0.007
   0.16666667 -0.00000000  0.00000000       0.014
   0.33333333 -0.00000000  0.00000000       0.014
   0.50000000  0.00000000  0.00000000       0.007
  -0.00000000  0.16666667  0.00000000       0.014
   0.16666667  0.16666667  0.00000000       0.014
   0.33333333  0.16666667  0.00000000       0.014
   0.50000000  0.16666667  0.00000000       0.014
  -0.33333333  0.16666667  0.00000000       0.014
  -0.16666667  0.16666667  0.00000000       0.014
  -0.00000000  0.33333333  0.00000000       0.014
   0.16666667  0.33333333  0.00000000       0.014
   0.33333333  0.33333333  0.00000000       0.014
   0.50000000  0.33333333  0.00000000       0.014
  -0.33333333  0.33333333  0.00000000       0.014
  -0.16666667  0.33333333  0.00000000       0.014
  -0.00000000  0.50000000  0.00000000       0.007
   0.16666667  0.50000000  0.00000000       0.014
   0.33333333  0.50000000  0.00000000       0.014
   0.50000000  0.50000000  0.00000000       0.007
   0.00000000  0.00000000  0.25000000       0.014
   0.16666667 -0.00000000  0.25000000       0.014
   0.33333333 -0.00000000  0.25000000       0.014
   0.50000000  0.00000000  0.25000000       0.014
  -0.33333333  0.00000000  0.25000000       0.014
  -0.16666667  0.00000000  0.25000000       0.014
  -0.00000000  0.16666667  0.25000000       0.014
   0.16666667  0.16666667  0.25000000       0.014
   0.33333333  0.16666667  0.25000000       0.014
   0.50000000  0.16666667  0.25000000       0.014
  -0.33333333  0.16666667  0.25000000       0.014
  -0.16666667  0.16666667  0.25000000       0.014
  -0.00000000  0.33333333  0.25000000       0.014
   0.16666667  0.33333333  0.25000000       0.014
   0.33333333  0.33333333  0.25000000       0.014
   0.50000000  0.33333333  0.25000000       0.014
  -0.33333333  0.33333333  0.25000000       0.014
  -0.16666667  0.33333333  0.25000000       0.014
  -0.00000000  0.50000000  0.25000000       0.014
   0.16666667  0.50000000  0.25000000       0.014
   0.33333333  0.50000000  0.25000000       0.014
   0.50000000  0.50000000  0.25000000       0.014
  -0.33333333  0.50000000  0.25000000       0.014
  -0.16666667  0.50000000  0.25000000       0.014
   0.00000000 -0.33333333  0.25000000       0.014
   0.16666667 -0.33333333  0.25000000       0.014
   0.33333333 -0.33333333  0.25000000       0.014
   0.50000000 -0.33333333  0.25000000       0.014
  -0.33333333 -0.33333333  0.25000000       0.014
  -0.16666667 -0.33333333  0.25000000       0.014
   0.00000000 -0.16666667  0.25000000       0.014
   0.16666667 -0.16666667  0.25000000       0.014
   0.33333333 -0.16666667  0.25000000       0.014
   0.50000000 -0.16666667  0.25000000       0.014
  -0.33333333 -0.16666667  0.25000000       0.014
  -0.16666667 -0.16666667  0.25000000       0.014
   0.00000000  0.00000000  0.50000000       0.007
   0.16666667 -0.00000000  0.50000000       0.014
   0.33333333 -0.00000000  0.50000000       0.014
   0.50000000  0.00000000  0.50000000       0.007
  -0.00000000  0.16666667  0.50000000       0.014
   0.16666667  0.16666667  0.50000000       0.014
   0.33333333  0.16666667  0.50000000       0.014
   0.50000000  0.16666667  0.50000000       0.014
  -0.33333333  0.16666667  0.50000000       0.014
  -0.16666667  0.16666667  0.50000000       0.014
  -0.00000000  0.33333333  0.50000000       0.014
   0.16666667  0.33333333  0.50000000       0.014
   0.33333333  0.33333333  0.50000000       0.014
   0.50000000  0.33333333  0.50000000       0.014
  -0.33333333  0.33333333  0.50000000       0.014
  -0.16666667  0.33333333  0.50000000       0.014
  -0.00000000  0.50000000  0.50000000       0.007
   0.16666667  0.50000000  0.50000000       0.014
   0.33333333  0.50000000  0.50000000       0.014
   0.50000000  0.50000000  0.50000000       0.007
 
 position of ions in fractional coordinates (direct lattice) 
   0.50042604  0.00032672  0.12575274
   0.99967330  0.00032672  0.12500000
   0.49967330  0.50032672  0.12500000
   0.99967330  0.50032672  0.12500000
   0.49967330  0.00032672  0.62500000
   0.99967330  0.00032672  0.62500000
   0.49967330  0.50032672  0.62500000
   0.99967330  0.50032672  0.62500000
   0.00032672  0.49967330  0.37500000
   0.50032672  0.49967330  0.37500000
   0.00032672  0.99967330  0.37500000
   0.50032672  0.99967330  0.37500000
   0.00032672  0.49967330  0.87500000
   0.50032672  0.49967330  0.87500000
   0.00032672  0.99967330  0.87500000
   0.50032672  0.99967330  0.87500000
   0.16629246  0.33370753  0.12500000
   0.66629246  0.33370753  0.12500000
   0.16629246  0.83370753  0.12500000
   0.66629246  0.83370753  0.12500000
   0.16629246  0.33370753  0.62500000
   0.66629246  0.33370753  0.62500000
   0.16629246  0.83370753  0.62500000
   0.66629246  0.83370753  0.62500000
   0.33370753  0.16629246  0.37500000
   0.83370753  0.16629246  0.37500000
   0.33370753  0.66629246  0.37500000
   0.83370753  0.66629246  0.37500000
   0.33370753  0.16629246  0.87500000
   0.83370753  0.16629246  0.87500000
   0.33370753  0.66629246  0.87500000
   0.83370753  0.66629246  0.87500000
 
 position of ions in cartesian coordinates  (Angst):
   2.46773249  0.00043497  1.55116711
   4.93045658 -0.00052323  1.54188204
   1.22996963  2.13595390  1.54188204
   3.69640688  2.13499426  1.54188204
   2.46401933  0.00043641  7.70941022
   4.93045658 -0.00052323  7.70941022
   1.22996963  2.13595390  7.70941022
   3.69640688  2.13499426  7.70941022
  -1.23163172  2.13412154  4.62564613
   1.23480553  2.13316189  4.62564613
  -2.46568142  4.26963903  4.62564613
   0.00075583  4.26867939  4.62564613
  -1.23163172  2.13412154 10.79317431
   1.23480553  2.13316189 10.79317431
  -2.46568142  4.26963903 10.79317431
   0.00075583  4.26867939 10.79317431
  -0.00332350  1.42495737  1.54188204
   2.46311374  1.42399773  1.54188204
  -1.23737320  3.56047486  1.54188204
   1.22906405  3.55951522  1.54188204
  -0.00332350  1.42495737  7.70941022
   2.46311374  1.42399773  7.70941022
  -1.23737320  3.56047486  7.70941022
   1.22906405  3.55951522  7.70941022
   1.23571103  0.70960044  4.62564613
   3.70214828  0.70864080  4.62564613
   0.00166133  2.84511794  4.62564613
   2.46809858  2.84415829  4.62564613
   1.23571103  0.70960044 10.79317431
   3.70214828  0.70864080 10.79317431
   0.00166133  2.84511794 10.79317431
   2.46809858  2.84415829 10.79317431
 


--------------------------------------------------------------------------------------------------------


 k-point  1 :   0.0000 0.0000 0.0000  plane waves:   13417
 k-point  2 :   0.1667-0.0000 0.0000  plane waves:   13394
 k-point  3 :   0.3333-0.0000 0.0000  plane waves:   13358
 k-point  4 :   0.5000 0.0000 0.0000  plane waves:   13352
 k-point  5 :  -0.0000 0.1667 0.0000  plane waves:   13394
 k-point  6 :   0.1667 0.1667 0.0000  plane waves:   13341
 k-point  7 :   0.3333 0.1667 0.0000  plane waves:   13325
 k-point  8 :   0.5000 0.1667 0.0000  plane waves:   13329
 k-point  9 :  -0.3333 0.1667 0.0000  plane waves:   13335
 k-point 10 :  -0.1667 0.1667 0.0000  plane waves:   13380
 k-point 11 :  -0.0000 0.3333 0.0000  plane waves:   13358
 k-point 12 :   0.1667 0.3333 0.0000  plane waves:   13325
 k-point 13 :   0.3333 0.3333 0.0000  plane waves:   13330
 k-point 14 :   0.5000 0.3333 0.0000  plane waves:   13327
 k-point 15 :  -0.3333 0.3333 0.0000  plane waves:   13360
 k-point 16 :  -0.1667 0.3333 0.0000  plane waves:   13335
 k-point 17 :  -0.0000 0.5000 0.0000  plane waves:   13352
 k-point 18 :   0.1667 0.5000 0.0000  plane waves:   13329
 k-point 19 :   0.3333 0.5000 0.0000  plane waves:   13327
 k-point 20 :   0.5000 0.5000 0.0000  plane waves:   13348
 k-point 21 :   0.0000 0.0000 0.2500  plane waves:   13367
 k-point 22 :   0.1667-0.0000 0.2500  plane waves:   13388
 k-point 23 :   0.3333-0.0000 0.2500  plane waves:   13336
 k-point 24 :   0.5000 0.0000 0.2500  plane waves:   13354
 k-point 25 :  -0.3333 0.0000 0.2500  plane waves:   13336
 k-point 26 :  -0.1667 0.0000 0.2500  plane waves:   13388
 k-point 27 :  -0.0000 0.1667 0.2500  plane waves:   13388
 k-point 28 :   0.1667 0.1667 0.2500  plane waves:   13357
 k-point 29 :   0.3333 0.1667 0.2500  plane waves:   13335
 k-point 30 :   0.5000 0.1667 0.2500  plane waves:   13332
 k-point 31 :  -0.3333 0.1667 0.2500  plane waves:   13361
 k-point 32 :  -0.1667 0.1667 0.2500  plane waves:   13395
 k-point 33 :  -0.0000 0.3333 0.2500  plane waves:   13336
 k-point 34 :   0.1667 0.3333 0.2500  plane waves:   13335
 k-point 35 :   0.3333 0.3333 0.2500  plane waves:   13351
 k-point 36 :   0.5000 0.3333 0.2500  plane waves:   13334
 k-point 37 :  -0.3333 0.3333 0.2500  plane waves:   13339
 k-point 38 :  -0.1667 0.3333 0.2500  plane waves:   13361
 k-point 39 :  -0.0000 0.5000 0.2500  plane waves:   13354
 k-point 40 :   0.1667 0.5000 0.2500  plane waves:   13332
 k-point 41 :   0.3333 0.5000 0.2500  plane waves:   13334
 k-point 42 :   0.5000 0.5000 0.2500  plane waves:   13352
 k-point 43 :  -0.3333 0.5000 0.2500  plane waves:   13334
 k-point 44 :  -0.1667 0.5000 0.2500  plane waves:   13332
 k-point 45 :   0.0000-0.3333 0.2500  plane waves:   13336
 k-point 46 :   0.1667-0.3333 0.2500  plane waves:   13361
 k-point 47 :   0.3333-0.3333 0.2500  plane waves:   13339
 k-point 48 :   0.5000-0.3333 0.2500  plane waves:   13334
 k-point 49 :  -0.3333-0.3333 0.2500  plane waves:   13351
 k-point 50 :  -0.1667-0.3333 0.2500  plane waves:   13335
 k-point 51 :   0.0000-0.1667 0.2500  plane waves:   13388
 k-point 52 :   0.1667-0.1667 0.2500  plane waves:   13395
 k-point 53 :   0.3333-0.1667 0.2500  plane waves:   13361
 k-point 54 :   0.5000-0.1667 0.2500  plane waves:   13332
 k-point 55 :  -0.3333-0.1667 0.2500  plane waves:   13335
 k-point 56 :  -0.1667-0.1667 0.2500  plane waves:   13357
 k-point 57 :   0.0000 0.0000 0.5000  plane waves:   13300
 k-point 58 :   0.1667-0.0000 0.5000  plane waves:   13364
 k-point 59 :   0.3333-0.0000 0.5000  plane waves:   13356
 k-point 60 :   0.5000 0.0000 0.5000  plane waves:   13332
 k-point 61 :  -0.0000 0.1667 0.5000  plane waves:   13364
 k-point 62 :   0.1667 0.1667 0.5000  plane waves:   13378
 k-point 63 :   0.3333 0.1667 0.5000  plane waves:   13336
 k-point 64 :   0.5000 0.1667 0.5000  plane waves:   13332
 k-point 65 :  -0.3333 0.1667 0.5000  plane waves:   13374
 k-point 66 :  -0.1667 0.1667 0.5000  plane waves:   13364
 k-point 67 :  -0.0000 0.3333 0.5000  plane waves:   13356
 k-point 68 :   0.1667 0.3333 0.5000  plane waves:   13336
 k-point 69 :   0.3333 0.3333 0.5000  plane waves:   13314
 k-point 70 :   0.5000 0.3333 0.5000  plane waves:   13334
 k-point 71 :  -0.3333 0.3333 0.5000  plane waves:   13352
 k-point 72 :  -0.1667 0.3333 0.5000  plane waves:   13374
 k-point 73 :  -0.0000 0.5000 0.5000  plane waves:   13332
 k-point 74 :   0.1667 0.5000 0.5000  plane waves:   13332
 k-point 75 :   0.3333 0.5000 0.5000  plane waves:   13334
 k-point 76 :   0.5000 0.5000 0.5000  plane waves:   13344

 maximum and minimum number of plane-waves per node :     13417    13300

 maximum number of plane-waves:     13417
 maximum index in each direction: 
   IXMAX=   11   IYMAX=   11   IZMAX=   28
   IXMIN=  -11   IYMIN=  -11   IZMIN=  -28

 NGX is ok and might be reduce to  46
 NGY is ok and might be reduce to  46
 NGZ is ok and might be reduce to 114

 serial   3D FFT for wavefunctions
 parallel 3D FFT for charge:
    minimum data exchange during FFTs selected (reduces bandwidth)


 total amount of memory used by VASP on root node   377612. kBytes
========================================================================

   base      :      30000. kBytes
   nonl-proj :      72156. kBytes
   fftplans  :      13581. kBytes
   grid      :      28889. kBytes
   one-center:         98. kBytes
   wavefun   :     232888. kBytes
 
     INWAV:  cpu time    0.00: real time    0.00
 Broyden mixing: mesh for mixing (old mesh)
   NGX = 23   NGY = 23   NGZ = 57
  (NGX  = 96   NGY  = 96   NGZ  =240)
  gives a total of  30153 points

 initial charge density was supplied:
 charge density of overlapping atoms calculated
 number of electron     128.0000000 magnetization 
 keeping initial charge density in first step


--------------------------------------------------------------------------------------------------------


 Maximum index for augmentation-charges         2059 (set IRDMAX)


--------------------------------------------------------------------------------------------------------


 First call to EWALD:  gamma=   0.278
 Maximum number of real-space cells 4x 4x 2
 Maximum number of reciprocal cells 2x 2x 5

 FEWALD executed in parallel
    FEWALD:  cpu time    0.00: real time    0.01


----------------------------------------- Iteration    1(   1)  ---------------------------------------


    POTLOK:  cpu time    0.83: real time    1.65
    SETDIJ:  cpu time    0.07: real time    0.14
     EDDAV:  cpu time  205.68: real time  411.70
 BZINTS: Fermi energy: 18.153815;128.000000 electrons
         Band energy: 257.677214;  BLOECHL correction: -0.109105
       DOS:  cpu time    0.09: real time    0.19
    --------------------------------------------
      LOOP:  cpu time  206.67: real time  413.69

 eigenvalue-minimisations  : 12768
 total energy-change (2. order) : 0.6702244E+03  (-0.8547567E+04)
 number of electron     128.0000000 magnetization 
 augmentation part      128.0000000 magnetization 

 Free energy of the ion-electron system (eV)
  ---------------------------------------------------
  alpha Z        PSCENC =       321.12578185
  Ewald energy   TEWEN  =     -4083.58624716
  -Hartree energ DENC   =      -941.65707730
  -exchange      EXHF   =         0.00000000
  -V(xc)+E(xc)   XCENC  =       444.53848322
  PAW double counting   =      1210.60617908    -1247.42152856
  entropy T*S    EENTRO =         0.00000000
  eigenvalues    EBANDS =       257.67721432
  atomic energy  EATOM  =      4708.94155045
  ---------------------------------------------------
  free energy    TOTEN  =       670.22435589 eV

  energy without entropy =      670.22435589  energy(sigma->0) =      670.22435589


--------------------------------------------------------------------------------------------------------




----------------------------------------- Iteration    1(   2)  ---------------------------------------


     EDDAV:  cpu time  235.55: real time  471.33
 BZINTS: Fermi energy:  4.668471;128.000000 electrons
         Band energy:-670.960718;  BLOECHL correction:  0.000000
       DOS:  cpu time    0.02: real time    0.05
    --------------------------------------------
      LOOP:  cpu time  235.58: real time  471.40

 eigenvalue-minimisations  : 15804
 total energy-change (2. order) :-0.9286379E+03  (-0.8933171E+03)
 number of electron     128.0000000 magnetization 
 augmentation part      128.0000000 magnetization 

 Free energy of the ion-electron system (eV)
  ---------------------------------------------------
  alpha Z        PSCENC =       321.12578185
  Ewald energy   TEWEN  =     -4083.58624716
  -Hartree energ DENC   =      -941.65707730
  -exchange      EXHF   =         0.00000000
  -V(xc)+E(xc)   XCENC  =       444.53848322
  PAW double counting   =      1210.60617908    -1247.42152856
  entropy T*S    EENTRO =         0.00000000
  eigenvalues    EBANDS =      -670.96071803
  atomic energy  EATOM  =      4708.94155045
  ---------------------------------------------------
  free energy    TOTEN  =      -258.41357646 eV

  energy without entropy =     -258.41357646  energy(sigma->0) =     -258.41357646


--------------------------------------------------------------------------------------------------------




----------------------------------------- Iteration    1(   3)  ---------------------------------------


     EDDAV:  cpu time  230.21: real time  460.64
 BZINTS: Fermi energy:  4.127361;128.000000 electrons
         Band energy:-723.856449;  BLOECHL correction: -0.000003
       DOS:  cpu time    0.06: real time    0.11
    --------------------------------------------
      LOOP:  cpu time  230.27: real time  460.77

 eigenvalue-minimisations  : 15480
 total energy-change (2. order) :-0.5289573E+02  (-0.5232241E+02)
 number of electron     128.0000000 magnetization 
 augmentation part      128.0000000 magnetization 

 Free energy of the ion-electron system (eV)
  ---------------------------------------------------
  alpha Z        PSCENC =       321.12578185
  Ewald energy   TEWEN  =     -4083.58624716
  -Hartree energ DENC   =      -941.65707730
  -exchange      EXHF   =         0.00000000
  -V(xc)+E(xc)   XCENC  =       444.53848322
  PAW double counting   =      1210.60617908    -1247.42152856
  entropy T*S    EENTRO =         0.00000000
  eigenvalues    EBANDS =      -723.85644876
  atomic energy  EATOM  =      4708.94155045
  ---------------------------------------------------
  free energy    TOTEN  =      -311.30930719 eV

  energy without entropy =     -311.30930719  energy(sigma->0) =     -311.30930719


--------------------------------------------------------------------------------------------------------




----------------------------------------- Iteration    1(   4)  ---------------------------------------


     EDDAV:  cpu time  244.93: real time  489.98
 BZINTS: Fermi energy:  4.122613;128.000000 electrons
         Band energy:-724.847468;  BLOECHL correction: -0.000007
       DOS:  cpu time    0.05: real time    0.10
    --------------------------------------------
      LOOP:  cpu time  244.98: real time  490.11

 eigenvalue-minimisations  : 15792
 total energy-change (2. order) :-0.9910197E+00  (-0.9888413E+00)
 number of electron     128.0000000 magnetization 
 augmentation part      128.0000000 magnetization 

 Free energy of the ion-electron system (eV)
  ---------------------------------------------------
  alpha Z        PSCENC =       321.12578185
  Ewald energy   TEWEN  =     -4083.58624716
  -Hartree energ DENC   =      -941.65707730
  -exchange      EXHF   =         0.00000000
  -V(xc)+E(xc)   XCENC  =       444.53848322
  PAW double counting   =      1210.60617908    -1247.42152856
  entropy T*S    EENTRO =         0.00000000
  eigenvalues    EBANDS =      -724.84746845
  atomic energy  EATOM  =      4708.94155045
  ---------------------------------------------------
  free energy    TOTEN  =      -312.30032687 eV

  energy without entropy =     -312.30032687  energy(sigma->0) =     -312.30032687


--------------------------------------------------------------------------------------------------------




----------------------------------------- Iteration    1(   5)  ---------------------------------------


     EDDAV:  cpu time  242.36: real time  484.95
 BZINTS: Fermi energy:  4.122575;128.000000 electrons
         Band energy:-724.875459;  BLOECHL correction: -0.000007
       DOS:  cpu time    0.05: real time    0.11
    CHARGE:  cpu time    5.54: real time   11.08
    MIXING:  cpu time    0.03: real time    0.05
    --------------------------------------------
      LOOP:  cpu time  247.99: real time  496.21

 eigenvalue-minimisations  : 15972
 total energy-change (2. order) :-0.2799060E-01  (-0.2797842E-01)
 number of electron     127.9999986 magnetization 
 augmentation part        3.3849175 magnetization 

 Broyden mixing:
  rms(total) = 0.22064E+01    rms(broyden)= 0.22064E+01
  rms(prec ) = 0.26617E+01
  weight for this iteration     100.00

 Free energy of the ion-electron system (eV)
  ---------------------------------------------------
  alpha Z        PSCENC =       321.12578185
  Ewald energy   TEWEN  =     -4083.58624716
  -Hartree energ DENC   =      -941.65707730
  -exchange      EXHF   =         0.00000000
  -V(xc)+E(xc)   XCENC  =       444.53848322
  PAW double counting   =      1210.60617908    -1247.42152856
  entropy T*S    EENTRO =         0.00000000
  eigenvalues    EBANDS =      -724.87545905
  atomic energy  EATOM  =      4708.94155045
  ---------------------------------------------------
  free energy    TOTEN  =      -312.32831747 eV

  energy without entropy =     -312.32831747  energy(sigma->0) =     -312.32831747


--------------------------------------------------------------------------------------------------------




----------------------------------------- Iteration    1(   6)  ---------------------------------------


    POTLOK:  cpu time    0.83: real time    1.66
    SETDIJ:  cpu time    0.02: real time    0.05
     EDDAV:  cpu time  233.92: real time  468.08
 BZINTS: Fermi energy:  4.792313;128.000000 electrons
         Band energy:-595.800831;  BLOECHL correction:  0.000000
       DOS:  cpu time    0.03: real time    0.06
    CHARGE:  cpu time    5.81: real time   11.61
    MIXING:  cpu time    0.04: real time    0.08
    --------------------------------------------
      LOOP:  cpu time  240.66: real time  481.56

 eigenvalue-minimisations  : 14592
 total energy-change (2. order) : 0.1399491E+02  (-0.1440241E+01)
 number of electron     127.9999987 magnetization 
 augmentation part        3.2323269 magnetization 

 Broyden mixing:
  rms(total) = 0.11568E+01    rms(broyden)= 0.11568E+01
  rms(prec ) = 0.13829E+01
  weight for this iteration     100.00

 eigenvalues of (default mixing * dielectric matrix)
  average eigenvalue GAMMA=   2.0369
  2.0369

 Free energy of the ion-electron system (eV)
  ---------------------------------------------------
  alpha Z        PSCENC =       321.12578185
  Ewald energy   TEWEN  =     -4083.58624716
  -Hartree energ DENC   =     -1062.05158936
  -exchange      EXHF   =         0.00000000
  -V(xc)+E(xc)   XCENC  =       452.71891870
  PAW double counting   =      1640.62791951    -1680.30891507
  entropy T*S    EENTRO =         0.00000000
  eigenvalues    EBANDS =      -595.80083131
  atomic energy  EATOM  =      4708.94155045
  ---------------------------------------------------
  free energy    TOTEN  =      -298.33341239 eV

  energy without entropy =     -298.33341239  energy(sigma->0) =     -298.33341239


--------------------------------------------------------------------------------------------------------




----------------------------------------- Iteration    1(   7)  ---------------------------------------


    POTLOK:  cpu time    0.96: real time    1.92
    SETDIJ:  cpu time    0.04: real time    0.09
     EDDAV:  cpu time  236.34: real time  472.91
 BZINTS: Fermi energy:  5.435140;128.000000 electrons
         Band energy:-465.473610;  BLOECHL correction:  0.000000
       DOS:  cpu time    0.03: real time    0.05
    CHARGE:  cpu time    5.62: real time   11.24
    MIXING:  cpu time    0.02: real time    0.04
    --------------------------------------------
      LOOP:  cpu time  243.01: real time  486.27

 eigenvalue-minimisations  : 14592
 total energy-change (2. order) : 0.4366836E+01  (-0.1471140E+01)
 number of electron     127.9999988 magnetization 
 augmentation part        3.0710913 magnetization 

 Broyden mixing:
  rms(total) = 0.18739E+00    rms(broyden)= 0.18738E+00
  rms(prec ) = 0.20278E+00
  weight for this iteration     100.00

 eigenvalues of (default mixing * dielectric matrix)
  average eigenvalue GAMMA=   2.1538
  2.0692  2.2385

 Free energy of the ion-electron system (eV)
  ---------------------------------------------------
  alpha Z        PSCENC =       321.12578185
  Ewald energy   TEWEN  =     -4083.58624716
  -Hartree energ DENC   =     -1194.92947688
  -exchange      EXHF   =         0.00000000
  -V(xc)+E(xc)   XCENC  =       461.96750294
  PAW double counting   =      2178.37871485    -2220.39079232
  entropy T*S    EENTRO =         0.00000000
  eigenvalues    EBANDS =      -465.47360989
  atomic energy  EATOM  =      4708.94155045
  ---------------------------------------------------
  free energy    TOTEN  =      -293.96657616 eV

  energy without entropy =     -293.96657616  energy(sigma->0) =     -293.96657616


--------------------------------------------------------------------------------------------------------




----------------------------------------- Iteration    1(   8)  ---------------------------------------


    POTLOK:  cpu time    0.96: real time    1.91
    SETDIJ:  cpu time    0.03: real time    0.07
     EDDAV:  cpu time  231.21: real time  462.66
 BZINTS: Fermi energy:  5.408902;128.000000 electrons
         Band energy:-468.769396;  BLOECHL correction:  0.000000
       DOS:  cpu time    0.03: real time    0.06
    CHARGE:  cpu time    5.59: real time   11.18
    MIXING:  cpu time    0.07: real time    0.15
    --------------------------------------------
      LOOP:  cpu time  237.90: real time  476.04

 eigenvalue-minimisations  : 14400
 total energy-change (2. order) :-0.4899017E-01  (-0.3753591E-01)
 number of electron     127.9999988 magnetization 
 augmentation part        3.0662410 magnetization 

 Broyden mixing:
  rms(total) = 0.33823E-01    rms(broyden)= 0.33822E-01
  rms(prec ) = 0.49937E-01
  weight for this iteration     100.00

 eigenvalues of (default mixing * dielectric matrix)
  average eigenvalue GAMMA=   1.7015
  2.4176  1.9908  0.6963

 Free energy of the ion-electron system (eV)
  ---------------------------------------------------
  alpha Z        PSCENC =       321.12578185
  Ewald energy   TEWEN  =     -4083.58624716
  -Hartree energ DENC   =     -1192.28022285
  -exchange      EXHF   =         0.00000000
  -V(xc)+E(xc)   XCENC  =       461.83242325
  PAW double counting   =      2214.49709424    -2255.77655005
  entropy T*S    EENTRO =         0.00000000
  eigenvalues    EBANDS =      -468.76939606
  atomic energy  EATOM  =      4708.94155045
  ---------------------------------------------------
  free energy    TOTEN  =      -294.01556633 eV

  energy without entropy =     -294.01556633  energy(sigma->0) =     -294.01556633


--------------------------------------------------------------------------------------------------------




----------------------------------------- Iteration    1(   9)  ---------------------------------------


    POTLOK:  cpu time    0.97: real time    1.94
    SETDIJ:  cpu time    0.02: real time    0.06
     EDDAV:  cpu time  239.93: real time  480.10
 BZINTS: Fermi energy:  5.411348;128.000000 electrons
         Band energy:-467.622506;  BLOECHL correction:  0.000000
       DOS:  cpu time    0.03: real time    0.06
    CHARGE:  cpu time    5.79: real time   11.58
    MIXING:  cpu time    0.04: real time    0.08
    --------------------------------------------
      LOOP:  cpu time  246.80: real time  493.85

 eigenvalue-minimisations  : 15492
 total energy-change (2. order) : 0.1125331E-03  (-0.2283053E-02)
 number of electron     127.9999988 magnetization 
 augmentation part        3.0636722 magnetization 

 Broyden mixing:
  rms(total) = 0.16602E-01    rms(broyden)= 0.16601E-01
  rms(prec ) = 0.24644E-01
  weight for this iteration     100.00

 eigenvalues of (default mixing * dielectric matrix)
  average eigenvalue GAMMA=   1.4829
  2.4531  1.9811  0.7486  0.7486

 Free energy of the ion-electron system (eV)
  ---------------------------------------------------
  alpha Z        PSCENC =       321.12578185
  Ewald energy   TEWEN  =     -4083.58624716
  -Hartree energ DENC   =     -1193.56102463
  -exchange      EXHF   =         0.00000000
  -V(xc)+E(xc)   XCENC  =       461.93180409
  PAW double counting   =      2222.24770355    -2263.49251583
  entropy T*S    EENTRO =         0.00000000
  eigenvalues    EBANDS =      -467.62250612
  atomic energy  EATOM  =      4708.94155045
  ---------------------------------------------------
  free energy    TOTEN  =      -294.01545380 eV

  energy without entropy =     -294.01545380  energy(sigma->0) =     -294.01545380


--------------------------------------------------------------------------------------------------------




----------------------------------------- Iteration    1(  10)  ---------------------------------------


    POTLOK:  cpu time    0.86: real time    1.72
    SETDIJ:  cpu time    0.03: real time    0.05
     EDDAV:  cpu time  240.22: real time  480.67
 BZINTS: Fermi energy:  5.423031;128.000000 electrons
         Band energy:-467.220068;  BLOECHL correction: -0.000000
       DOS:  cpu time    0.03: real time    0.08
    CHARGE:  cpu time    5.71: real time   11.41
    MIXING:  cpu time    0.03: real time    0.05
    --------------------------------------------
      LOOP:  cpu time  246.89: real time  494.01

 eigenvalue-minimisations  : 15264
 total energy-change (2. order) : 0.1853969E-03  (-0.5187699E-03)
 number of electron     127.9999988 magnetization 
 augmentation part        3.0628670 magnetization 

 Broyden mixing:
  rms(total) = 0.98790E-02    rms(broyden)= 0.98788E-02
  rms(prec ) = 0.14073E-01
  weight for this iteration     100.00

 eigenvalues of (default mixing * dielectric matrix)
  average eigenvalue GAMMA=   1.4290
  2.5473  1.9378  1.4892  0.6625  0.5081

 Free energy of the ion-electron system (eV)
  ---------------------------------------------------
  alpha Z        PSCENC =       321.12578185
  Ewald energy   TEWEN  =     -4083.58624716
  -Hartree energ DENC   =     -1194.00113120
  -exchange      EXHF   =         0.00000000
  -V(xc)+E(xc)   XCENC  =       461.96605759
  PAW double counting   =      2223.76115328    -2265.00236478
  entropy T*S    EENTRO =         0.00000000
  eigenvalues    EBANDS =      -467.22006843
  atomic energy  EATOM  =      4708.94155045
  ---------------------------------------------------
  free energy    TOTEN  =      -294.01526840 eV

  energy without entropy =     -294.01526840  energy(sigma->0) =     -294.01526840


--------------------------------------------------------------------------------------------------------




----------------------------------------- Iteration    1(  11)  ---------------------------------------


    POTLOK:  cpu time    0.95: real time    1.89
    SETDIJ:  cpu time    0.06: real time    0.13
     EDDAV:  cpu time  236.54: real time  473.30
 BZINTS: Fermi energy:  5.426794;128.000000 electrons
         Band energy:-466.580032;  BLOECHL correction:  0.000000
       DOS:  cpu time    0.03: real time    0.06
    CHARGE:  cpu time    5.58: real time   11.16
    MIXING:  cpu time    0.04: real time    0.07
    --------------------------------------------
      LOOP:  cpu time  243.20: real time  486.62

 eigenvalue-minimisations  : 14808
 total energy-change (2. order) :-0.6496944E-03  (-0.3852690E-03)
 number of electron     127.9999988 magnetization 
 augmentation part        3.0622869 magnetization 

 Broyden mixing:
  rms(total) = 0.92417E-02    rms(broyden)= 0.92414E-02
  rms(prec ) = 0.15970E-01
  weight for this iteration     100.00

 eigenvalues of (default mixing * dielectric matrix)
  average eigenvalue GAMMA=   1.3684
  2.6235  1.8380  1.8380  0.7537  0.7537  0.4036

 Free energy of the ion-electron system (eV)
  ---------------------------------------------------
  alpha Z        PSCENC =       321.12578185
  Ewald energy   TEWEN  =     -4083.58624716
  -Hartree energ DENC   =     -1194.69978882
  -exchange      EXHF   =         0.00000000
  -V(xc)+E(xc)   XCENC  =       462.02061836
  PAW double counting   =      2225.73360224    -2266.97140252
  entropy T*S    EENTRO =         0.00000000
  eigenvalues    EBANDS =      -466.58003250
  atomic energy  EATOM  =      4708.94155045
  ---------------------------------------------------
  free energy    TOTEN  =      -294.01591809 eV

  energy without entropy =     -294.01591809  energy(sigma->0) =     -294.01591809


--------------------------------------------------------------------------------------------------------




----------------------------------------- Iteration    1(  12)  ---------------------------------------


    POTLOK:  cpu time    0.85: real time    1.70
    SETDIJ:  cpu time    0.03: real time    0.06
     EDDAV:  cpu time  242.61: real time  485.45
 BZINTS: Fermi energy:  5.423710;128.000000 electrons
         Band energy:-466.436382;  BLOECHL correction:  0.000000
       DOS:  cpu time    0.03: real time    0.06
    CHARGE:  cpu time    5.84: real time   11.68
    MIXING:  cpu time    0.04: real time    0.08
    --------------------------------------------
      LOOP:  cpu time  249.39: real time  499.05

 eigenvalue-minimisations  : 15804
 total energy-change (2. order) : 0.4937632E-05  (-0.3991389E-03)
 number of electron     127.9999988 magnetization 
 augmentation part        3.0621161 magnetization 

 Broyden mixing:
  rms(total) = 0.66895E-02    rms(broyden)= 0.66891E-02
  rms(prec ) = 0.11060E-01
  weight for this iteration     100.00

 eigenvalues of (default mixing * dielectric matrix)
  average eigenvalue GAMMA=   1.3653
  2.7060  2.3739  1.9300  0.9151  0.6242  0.6242  0.3838

 Free energy of the ion-electron system (eV)
  ---------------------------------------------------
  alpha Z        PSCENC =       321.12578185
  Ewald energy   TEWEN  =     -4083.58624716
  -Hartree energ DENC   =     -1194.85721382
  -exchange      EXHF   =         0.00000000
  -V(xc)+E(xc)   XCENC  =       462.03312556
  PAW double counting   =      2226.00912201    -2267.24565014
  entropy T*S    EENTRO =         0.00000000
  eigenvalues    EBANDS =      -466.43638190
  atomic energy  EATOM  =      4708.94155045
  ---------------------------------------------------
  free energy    TOTEN  =      -294.01591316 eV

  energy without entropy =     -294.01591316  energy(sigma->0) =     -294.01591316


--------------------------------------------------------------------------------------------------------




----------------------------------------- Iteration    1(  13)  ---------------------------------------


    POTLOK:  cpu time    0.98: real time    1.95
    SETDIJ:  cpu time    0.03: real time    0.06
     EDDAV:  cpu time  237.06: real time  474.36
 BZINTS: Fermi energy:  5.426553;128.000000 electrons
         Band energy:-466.364020;  BLOECHL correction:  0.000000
       DOS:  cpu time    0.03: real time    0.06
    CHARGE:  cpu time    5.56: real time   11.12
    MIXING:  cpu time    0.05: real time    0.09
    --------------------------------------------
      LOOP:  cpu time  243.71: real time  487.66

 eigenvalue-minimisations  : 15048
 total energy-change (2. order) :-0.3787901E-04  (-0.1390972E-03)
 number of electron     127.9999988 magnetization 
 augmentation part        3.0620829 magnetization 

 Broyden mixing:
  rms(total) = 0.35031E-02    rms(broyden)= 0.35028E-02
  rms(prec ) = 0.65552E-02
  weight for this iteration     100.00

 eigenvalues of (default mixing * dielectric matrix)
  average eigenvalue GAMMA=   1.3070
  2.8289  2.5240  1.9126  1.0208  0.7285  0.7285  0.3565  0.3565

 Free energy of the ion-electron system (eV)
  ---------------------------------------------------
  alpha Z        PSCENC =       321.12578185
  Ewald energy   TEWEN  =     -4083.58624716
  -Hartree energ DENC   =     -1194.94066687
  -exchange      EXHF   =         0.00000000
  -V(xc)+E(xc)   XCENC  =       462.04125490
  PAW double counting   =      2225.33050630    -2266.56411015
  entropy T*S    EENTRO =         0.00000000
  eigenvalues    EBANDS =      -466.36402036
  atomic energy  EATOM  =      4708.94155045
  ---------------------------------------------------
  free energy    TOTEN  =      -294.01595104 eV

  energy without entropy =     -294.01595104  energy(sigma->0) =     -294.01595104


--------------------------------------------------------------------------------------------------------




----------------------------------------- Iteration    1(  14)  ---------------------------------------


    POTLOK:  cpu time    0.95: real time    1.89
    SETDIJ:  cpu time    0.03: real time    0.06
     EDDAV:  cpu time  240.59: real time  481.43
 BZINTS: Fermi energy:  5.429299;128.000000 electrons
         Band energy:-466.360188;  BLOECHL correction:  0.000000
       DOS:  cpu time    0.04: real time    0.07
    CHARGE:  cpu time    5.60: real time   11.21
    MIXING:  cpu time    0.08: real time    0.16
    --------------------------------------------
      LOOP:  cpu time  247.30: real time  494.86

 eigenvalue-minimisations  : 15828
 total energy-change (2. order) :-0.5786708E-04  (-0.5333551E-04)
 number of electron     127.9999988 magnetization 
 augmentation part        3.0621278 magnetization 

 Broyden mixing:
  rms(total) = 0.50703E-02    rms(broyden)= 0.50702E-02
  rms(prec ) = 0.90519E-02
  weight for this iteration     100.00

 eigenvalues of (default mixing * dielectric matrix)
  average eigenvalue GAMMA=   1.2182
  2.8407  2.5131  1.9081  1.0488  0.7912  0.7912  0.3854  0.3854  0.2997

 Free energy of the ion-electron system (eV)
  ---------------------------------------------------
  alpha Z        PSCENC =       321.12578185
  Ewald energy   TEWEN  =     -4083.58624716
  -Hartree energ DENC   =     -1194.94706736
  -exchange      EXHF   =         0.00000000
  -V(xc)+E(xc)   XCENC  =       462.04234725
  PAW double counting   =      2224.98256729    -2266.21475273
  entropy T*S    EENTRO =         0.00000000
  eigenvalues    EBANDS =      -466.36018848
  atomic energy  EATOM  =      4708.94155045
  ---------------------------------------------------
  free energy    TOTEN  =      -294.01600890 eV

  energy without entropy =     -294.01600890  energy(sigma->0) =     -294.01600890


--------------------------------------------------------------------------------------------------------




----------------------------------------- Iteration    1(  15)  ---------------------------------------


    POTLOK:  cpu time    0.86: real time    1.71
    SETDIJ:  cpu time    0.04: real time    0.09
     EDDAV:  cpu time  240.48: real time  481.20
 BZINTS: Fermi energy:  5.426825;128.000000 electrons
         Band energy:-466.353237;  BLOECHL correction:  0.000000
       DOS:  cpu time    0.03: real time    0.07
    CHARGE:  cpu time    5.48: real time   10.97
    MIXING:  cpu time    0.04: real time    0.07
    --------------------------------------------
      LOOP:  cpu time  246.95: real time  494.13

 eigenvalue-minimisations  : 15840
 total energy-change (2. order) : 0.5789365E-04  (-0.3039771E-04)
 number of electron     127.9999988 magnetization 
 augmentation part        3.0621441 magnetization 

 Broyden mixing:
  rms(total) = 0.16285E-02    rms(broyden)= 0.16284E-02
  rms(prec ) = 0.29737E-02
  weight for this iteration     100.00

 eigenvalues of (default mixing * dielectric matrix)
  average eigenvalue GAMMA=   1.1733
  2.8411  2.5121  1.8994  1.2920  0.8530  0.6523  0.6523  0.3607  0.3607  0.3095

 Free energy of the ion-electron system (eV)
  ---------------------------------------------------
  alpha Z        PSCENC =       321.12578185
  Ewald energy   TEWEN  =     -4083.58624716
  -Hartree energ DENC   =     -1194.95461876
  -exchange      EXHF   =         0.00000000
  -V(xc)+E(xc)   XCENC  =       462.04276745
  PAW double counting   =      2224.99622977    -2266.22817774
  entropy T*S    EENTRO =         0.00000000
  eigenvalues    EBANDS =      -466.35323687
  atomic energy  EATOM  =      4708.94155045
  ---------------------------------------------------
  free energy    TOTEN  =      -294.01595101 eV

  energy without entropy =     -294.01595101  energy(sigma->0) =     -294.01595101


--------------------------------------------------------------------------------------------------------




----------------------------------------- Iteration    1(  16)  ---------------------------------------


    POTLOK:  cpu time    0.85: real time    1.69
    SETDIJ:  cpu time    0.04: real time    0.08
     EDDAV:  cpu time  243.07: real time  486.37
 BZINTS: Fermi energy:  5.427090;128.000000 electrons
         Band energy:-466.342767;  BLOECHL correction:  0.000000
       DOS:  cpu time    0.04: real time    0.08
    CHARGE:  cpu time    5.52: real time   11.04
    MIXING:  cpu time    0.06: real time    0.13
    --------------------------------------------
      LOOP:  cpu time  249.58: real time  499.41

 eigenvalue-minimisations  : 15948
 total energy-change (2. order) : 0.1608020E-05  (-0.1125541E-04)
 number of electron     127.9999988 magnetization 
 augmentation part        3.0621351 magnetization 

 Broyden mixing:
  rms(total) = 0.12165E-02    rms(broyden)= 0.12164E-02
  rms(prec ) = 0.21352E-02
  weight for this iteration     100.00

 eigenvalues of (default mixing * dielectric matrix)
  average eigenvalue GAMMA=   1.1851
  2.8625  2.5066  1.8905  1.2991  0.9386  0.9386  0.8000  0.5130  0.4907  0.4907
  0.3060

 Free energy of the ion-electron system (eV)
  ---------------------------------------------------
  alpha Z        PSCENC =       321.12578185
  Ewald energy   TEWEN  =     -4083.58624716
  -Hartree energ DENC   =     -1194.96568774
  -exchange      EXHF   =         0.00000000
  -V(xc)+E(xc)   XCENC  =       462.04340529
  PAW double counting   =      2225.00546552    -2266.23745034
  entropy T*S    EENTRO =         0.00000000
  eigenvalues    EBANDS =      -466.34276726
  atomic energy  EATOM  =      4708.94155045
  ---------------------------------------------------
  free energy    TOTEN  =      -294.01594940 eV

  energy without entropy =     -294.01594940  energy(sigma->0) =     -294.01594940


--------------------------------------------------------------------------------------------------------




----------------------------------------- Iteration    1(  17)  ---------------------------------------


    POTLOK:  cpu time    0.87: real time    1.73
    SETDIJ:  cpu time    0.02: real time    0.04
     EDDAV:  cpu time  234.26: real time  468.76
 BZINTS: Fermi energy:  5.426876;128.000000 electrons
         Band energy:-466.336707;  BLOECHL correction:  0.000000
       DOS:  cpu time    0.04: real time    0.09
    CHARGE:  cpu time    5.49: real time   10.99
    MIXING:  cpu time    0.05: real time    0.10
    --------------------------------------------
      LOOP:  cpu time  240.74: real time  481.72

 eigenvalue-minimisations  : 14892
 total energy-change (2. order) : 0.2375772E-05  (-0.3376868E-05)
 number of electron     127.9999988 magnetization 
 augmentation part        3.0621289 magnetization 

 Broyden mixing:
  rms(total) = 0.28503E-03    rms(broyden)= 0.28499E-03
  rms(prec ) = 0.37876E-03
  weight for this iteration     100.00

 eigenvalues of (default mixing * dielectric matrix)
  average eigenvalue GAMMA=   1.2283
  3.0206  2.4482  2.4482  1.9150  1.0319  0.9281  0.6844  0.6844  0.4352  0.4352
  0.4023  0.3062

 Free energy of the ion-electron system (eV)
  ---------------------------------------------------
  alpha Z        PSCENC =       321.12578185
  Ewald energy   TEWEN  =     -4083.58624716
  -Hartree energ DENC   =     -1194.97214404
  -exchange      EXHF   =         0.00000000
  -V(xc)+E(xc)   XCENC  =       462.04376739
  PAW double counting   =      2225.00332048    -2266.23526866
  entropy T*S    EENTRO =         0.00000000
  eigenvalues    EBANDS =      -466.33670733
  atomic energy  EATOM  =      4708.94155045
  ---------------------------------------------------
  free energy    TOTEN  =      -294.01594703 eV

  energy without entropy =     -294.01594703  energy(sigma->0) =     -294.01594703


--------------------------------------------------------------------------------------------------------




----------------------------------------- Iteration    1(  18)  ---------------------------------------


    POTLOK:  cpu time    0.90: real time    1.78
    SETDIJ:  cpu time    0.02: real time    0.04
     EDDAV:  cpu time  261.81: real time  523.88
 BZINTS: Fermi energy:  5.429822;128.000000 electrons
         Band energy:-466.321234;  BLOECHL correction: -0.000000
       DOS:  cpu time    0.03: real time    0.05
    CHARGE:  cpu time    5.95: real time   11.91
    MIXING:  cpu time    0.07: real time    0.15
    --------------------------------------------
      LOOP:  cpu time  268.79: real time  537.84

 eigenvalue-minimisations  : 17736
 total energy-change (2. order) :-0.2070016E-05  (-0.2196760E-05)
 number of electron     127.9999988 magnetization 
 augmentation part        3.0621179 magnetization 

 Broyden mixing:
  rms(total) = 0.11295E-02    rms(broyden)= 0.11294E-02
  rms(prec ) = 0.19460E-02
  weight for this iteration     100.00

 eigenvalues of (default mixing * dielectric matrix)
  average eigenvalue GAMMA=   1.2216
  3.1122  2.6014  2.5409  1.9159  1.0092  0.6658  0.6658  0.7135  0.7135  0.6696
  0.4834  0.4834  0.3066

 Free energy of the ion-electron system (eV)
  ---------------------------------------------------
  alpha Z        PSCENC =       321.12578185
  Ewald energy   TEWEN  =     -4083.58624716
  -Hartree energ DENC   =     -1194.98845152
  -exchange      EXHF   =         0.00000000
  -V(xc)+E(xc)   XCENC  =       462.04474105
  PAW double counting   =      2225.01016343    -2266.24225281
  entropy T*S    EENTRO =         0.00000000
  eigenvalues    EBANDS =      -466.32123437
  atomic energy  EATOM  =      4708.94155045
  ---------------------------------------------------
  free energy    TOTEN  =      -294.01594910 eV

  energy without entropy =     -294.01594910  energy(sigma->0) =     -294.01594910


--------------------------------------------------------------------------------------------------------




----------------------------------------- Iteration    1(  19)  ---------------------------------------


    POTLOK:  cpu time    0.99: real time    1.97
    SETDIJ:  cpu time    0.04: real time    0.07
     EDDAV:  cpu time  266.14: real time  532.54
 BZINTS: Fermi energy:  5.426814;128.000000 electrons
         Band energy:-466.317349;  BLOECHL correction:  0.000000
       DOS:  cpu time    0.04: real time    0.08
    CHARGE:  cpu time    5.82: real time   11.64
    MIXING:  cpu time    0.03: real time    0.06
    --------------------------------------------
      LOOP:  cpu time  273.05: real time  546.38

 eigenvalue-minimisations  : 17124
 total energy-change (2. order) : 0.2657805E-05  (-0.2472253E-05)
 number of electron     127.9999988 magnetization 
 augmentation part        3.0621160 magnetization 

 Broyden mixing:
  rms(total) = 0.10382E-03    rms(broyden)= 0.10367E-03
  rms(prec ) = 0.15536E-03
  weight for this iteration     100.00

 eigenvalues of (default mixing * dielectric matrix)
  average eigenvalue GAMMA=   1.1772
  3.1262  2.6085  2.5387  1.9161  1.0169  0.6716  0.6716  0.8154  0.8154  0.5139
  0.5139  0.4829  0.4829  0.3065

 Free energy of the ion-electron system (eV)
  ---------------------------------------------------
  alpha Z        PSCENC =       321.12578185
  Ewald energy   TEWEN  =     -4083.58624716
  -Hartree energ DENC   =     -1194.99250947
  -exchange      EXHF   =         0.00000000
  -V(xc)+E(xc)   XCENC  =       462.04496989
  PAW double counting   =      2225.01172425    -2266.24386762
  entropy T*S    EENTRO =         0.00000000
  eigenvalues    EBANDS =      -466.31734863
  atomic energy  EATOM  =      4708.94155045
  ---------------------------------------------------
  free energy    TOTEN  =      -294.01594644 eV

  energy without entropy =     -294.01594644  energy(sigma->0) =     -294.01594644


--------------------------------------------------------------------------------------------------------




----------------------------------------- Iteration    1(  20)  ---------------------------------------


    POTLOK:  cpu time    1.17: real time    2.33
    SETDIJ:  cpu time    0.02: real time    0.04
     EDDAV:  cpu time  231.21: real time  462.65
 BZINTS: Fermi energy:  5.429764;128.000000 electrons
         Band energy:-466.318119;  BLOECHL correction: -0.000000
       DOS:  cpu time    0.03: real time    0.06
    CHARGE:  cpu time    5.83: real time   11.66
    MIXING:  cpu time    0.03: real time    0.07
    --------------------------------------------
      LOOP:  cpu time  238.29: real time  476.82

 eigenvalue-minimisations  : 14472
 total energy-change (2. order) :-0.1297576E-06  (-0.4476619E-07)
 number of electron     127.9999988 magnetization 
 augmentation part        3.0621109 magnetization 

 Broyden mixing:
  rms(total) = 0.10132E-03    rms(broyden)= 0.10132E-03
  rms(prec ) = 0.14258E-03
  weight for this iteration     100.00

 eigenvalues of (default mixing * dielectric matrix)
  average eigenvalue GAMMA=   1.1767
  3.1348  2.5512  2.5512  1.9166  1.0295  0.8617  0.8617  0.7780  0.7780  0.6694
  0.6694  0.5625  0.4898  0.4898  0.3065

 Free energy of the ion-electron system (eV)
  ---------------------------------------------------
  alpha Z        PSCENC =       321.12578185
  Ewald energy   TEWEN  =     -4083.58624716
  -Hartree energ DENC   =     -1194.99169736
  -exchange      EXHF   =         0.00000000
  -V(xc)+E(xc)   XCENC  =       462.04491939
  PAW double counting   =      2225.00936849    -2266.24150316
  entropy T*S    EENTRO =         0.00000000
  eigenvalues    EBANDS =      -466.31811906
  atomic energy  EATOM  =      4708.94155045
  ---------------------------------------------------
  free energy    TOTEN  =      -294.01594657 eV

  energy without entropy =     -294.01594657  energy(sigma->0) =     -294.01594657


--------------------------------------------------------------------------------------------------------




----------------------------------------- Iteration    1(  21)  ---------------------------------------


    POTLOK:  cpu time    0.85: real time    1.70
    SETDIJ:  cpu time    0.02: real time    0.04
     EDDAV:  cpu time  181.66: real time  363.50
 BZINTS: Fermi energy:  5.429694;128.000000 electrons
         Band energy:-466.318552;  BLOECHL correction: -0.000000
       DOS:  cpu time    0.03: real time    0.05
    CHARGE:  cpu time    5.58: real time   11.17
    MIXING:  cpu time    0.05: real time    0.11
    --------------------------------------------
      LOOP:  cpu time  188.20: real time  376.59

 eigenvalue-minimisations  :  9912
 total energy-change (2. order) :-0.1357694E-07  (-0.1436296E-07)
 number of electron     127.9999988 magnetization 
 augmentation part        3.0621109 magnetization 

 Broyden mixing:
  rms(total) = 0.12418E-03    rms(broyden)= 0.12418E-03
  rms(prec ) = 0.20268E-03
  weight for this iteration     100.00

 eigenvalues of (default mixing * dielectric matrix)
  average eigenvalue GAMMA=   1.2561
  3.0508  2.6150  2.4370  2.4370  1.9172  1.1254  0.9220  0.9220  0.6833  0.6833
  0.7607  0.6382  0.6382  0.4807  0.4807  0.3065

 Free energy of the ion-electron system (eV)
  ---------------------------------------------------
  alpha Z        PSCENC =       321.12578185
  Ewald energy   TEWEN  =     -4083.58624716
  -Hartree energ DENC   =     -1194.99125110
  -exchange      EXHF   =         0.00000000
  -V(xc)+E(xc)   XCENC  =       462.04489783
[...]
     79      13.2540      0.00000
     80      13.2605      0.00000
     81      13.7469      0.00000
     82      13.7535      0.00000
     83      13.7572      0.00000
     84      13.7603      0.00000

 k-point    75 :       0.3333    0.5000    0.5000
  band No.  band energies     occupation 
      1     -13.0708      2.00000
      2     -13.0703      2.00000
      3     -12.7016      2.00000
      4     -12.7010      2.00000
      5     -12.0948      2.00000
      6     -12.0943      2.00000
      7     -11.7464      2.00000
      8     -11.7459      2.00000
      9     -11.1301      2.00000
     10     -11.1296      2.00000
     11     -10.8026      2.00000
     12     -10.8021      2.00000
     13      -8.4346      2.00000
     14      -8.4340      2.00000
     15      -8.1877      2.00000
     16      -8.1870      2.00000
     17      -6.5377      2.00000
     18      -6.5348      2.00000
     19      -6.3697      2.00000
     20      -6.3668      2.00000
     21      -4.2268      2.00000
     22      -4.2243      2.00000
     23      -4.0927      2.00000
     24      -4.0902      2.00000
     25      -4.0643      2.00000
     26      -4.0628      2.00000
     27      -3.9170      2.00000
     28      -3.9152      2.00000
     29      -3.0913      2.00000
     30      -3.0890      2.00000
     31      -2.9332      2.00000
     32      -2.9311      2.00000
     33      -2.0173      2.00000
     34      -2.0153      2.00000
     35      -1.9124      2.00000
     36      -1.9108      2.00000
     37      -1.7119      2.00000
     38      -1.7103      2.00000
     39      -0.9883      2.00000
     40      -0.9838      2.00000
     41      -0.8861      2.00000
     42      -0.8818      2.00000
     43      -0.5592      2.00000
     44      -0.5575      2.00000
     45      -0.4607      2.00000
     46      -0.4581      2.00000
     47      -0.3714      2.00000
     48      -0.3685      2.00000
     49       0.2458      2.00000
     50       0.2478      2.00000
     51       0.4347      2.00000
     52       0.4391      2.00000
     53       0.5026      2.00000
     54       0.5074      2.00000
     55       0.5642      2.00000
     56       0.5658      2.00000
     57       1.2955      2.00000
     58       1.2975      2.00000
     59       2.3000      2.00000
     60       2.3020      2.00000
     61       3.5152      2.00000
     62       3.5180      2.00000
     63       4.6118      2.00000
     64       4.6150      2.00000
     65       6.4921      0.00000
     66       6.4958      0.00000
     67       7.0902      0.00000
     68       7.0944      0.00000
     69       9.5124      0.00000
     70       9.5145      0.00000
     71      10.2134      0.00000
     72      10.2162      0.00000
     73      10.9707      0.00000
     74      10.9739      0.00000
     75      11.7622      0.00000
     76      11.7648      0.00000
     77      12.8172      0.00000
     78      12.8227      0.00000
     79      13.2516      0.00000
     80      13.2586      0.00000
     81      13.7522      0.00000
     82      13.7576      0.00000
     83      13.7661      0.00000
     84      13.7713      0.00000

 k-point    76 :       0.5000    0.5000    0.5000
  band No.  band energies     occupation 
      1     -12.7469      2.00000
      2     -12.7437      2.00000
      3     -12.7437      2.00000
      4     -12.7408      2.00000
      5     -12.3846      2.00000
      6     -12.3814      2.00000
      7     -12.3814      2.00000
      8     -12.3783      2.00000
      9      -9.8857      2.00000
     10      -9.8839      2.00000
     11      -9.8839      2.00000
     12      -9.8820      2.00000
     13      -9.5873      2.00000
     14      -9.5855      2.00000
     15      -9.5854      2.00000
     16      -9.5834      2.00000
     17      -5.0869      2.00000
     18      -5.0869      2.00000
     19      -5.0864      2.00000
     20      -5.0823      2.00000
     21      -4.9801      2.00000
     22      -4.9801      2.00000
     23      -4.9795      2.00000
     24      -4.9748      2.00000
     25      -3.4889      2.00000
     26      -3.4858      2.00000
     27      -3.4842      2.00000
     28      -3.4842      2.00000
     29      -3.4099      2.00000
     30      -3.4072      2.00000
     31      -3.4058      2.00000
     32      -3.4058      2.00000
     33      -2.0073      2.00000
     34      -2.0009      2.00000
     35      -2.0009      2.00000
     36      -2.0006      2.00000
     37      -1.8635      2.00000
     38      -1.8576      2.00000
     39      -1.8575      2.00000
     40      -1.8571      2.00000
     41      -1.3250      2.00000
     42      -1.3227      2.00000
     43      -1.3225      2.00000
     44      -1.3192      2.00000
     45       0.4368      2.00000
     46       0.4385      2.00000
     47       0.4385      2.00000
     48       0.4464      2.00000
     49       0.5117      2.00000
     50       0.5133      2.00000
     51       0.5133      2.00000
     52       0.5233      2.00000
     53       0.5982      2.00000
     54       0.6009      2.00000
     55       0.6011      2.00000
     56       0.6050      2.00000
     57       1.9790      2.00000
     58       1.9827      2.00000
     59       1.9830      2.00000
     60       1.9844      2.00000
     61       3.5198      2.00000
     62       3.5244      2.00000
     63       3.5248      2.00000
     64       3.5261      2.00000
     65       7.9104      0.00000
     66       7.9118      0.00000
     67       7.9121      0.00000
     68       7.9167      0.00000
     69       8.5850      0.00000
     70       8.5863      0.00000
     71       8.5868      0.00000
     72       8.5928      0.00000
     73      12.2515      0.00000
     74      12.2586      0.00000
     75      12.2603      0.00000
     76      12.2649      0.00000
     77      12.9735      0.00000
     78      12.9828      0.00000
     79      12.9853      0.00000
     80      12.9897      0.00000
     81      13.1758      0.00000
     82      13.1860      0.00000
     83      13.1883      0.00000
     84      13.1987      0.00000


--------------------------------------------------------------------------------------------------------


 soft charge-density along one line, spin component           1
         0         1         2         3         4         5         6         7         8         9
 total charge-density along one line
 
 pseudopotential strength for first ion, spin component:           1
  9.725   0.004  -0.000  -0.000   0.000   0.000   0.000  -0.000
  0.004  -0.002   0.000   0.000   0.000   0.000   0.000  -0.000
 -0.000   0.000  -3.903   0.000   0.000  -0.015   0.000   0.000
 -0.000   0.000   0.000  -3.897   0.000   0.000  -0.011   0.000
  0.000   0.000   0.000   0.000  -3.903   0.000   0.000  -0.015
  0.000   0.000  -0.015   0.000   0.000  -0.762   0.000   0.000
  0.000   0.000   0.000  -0.011   0.000   0.000  -0.762  -0.000
 -0.000  -0.000   0.000   0.000  -0.015   0.000  -0.000  -0.762
 total augmentation occupancy for first ion, spin component:           1
  1.471  -1.119   0.000   0.000   0.003   0.000  -0.001   0.001
 -1.119   1.058  -0.000   0.006  -0.003  -0.000   0.002  -0.001
  0.000  -0.000   1.223   0.000  -0.002   0.228  -0.000  -0.001
  0.000   0.006   0.000   0.923  -0.000  -0.000   0.104  -0.000
  0.003  -0.003  -0.002  -0.000   1.222  -0.001  -0.000   0.228
  0.000  -0.000   0.228  -0.000  -0.001   0.048  -0.000  -0.000
 -0.001   0.002  -0.000   0.104  -0.000  -0.000   0.013  -0.000
  0.001  -0.001  -0.001  -0.000   0.228  -0.000  -0.000   0.048


------------------------ aborting loop because EDIFF is reached ----------------------------------------


    CHARGE:  cpu time    5.95: real time   11.89
    FORLOC:  cpu time    0.09: real time    0.17
    FORNL :  cpu time   32.97: real time   65.99
    STRESS:  cpu time   57.50: real time  115.09
    FORHAR:  cpu time    0.27: real time    0.54
    MIXING:  cpu time    0.05: real time    0.09
    OFIELD:  cpu time    0.00: real time    0.00

 ---------------------------------------------------------------------------------------------

         DFTD3 V3.0 Rev 1        
 IVDW         = 12
 DF pbe       
 parameters
 VDW_S6       =    1.0000
 VDW_S8       =    0.7875
 VDW_A1       =    0.4289
 VDW_A2       =    4.4407
 k1-k3        =   16.0000    1.3333   -4.0000
 VDW_RADIUS   =   50.2022 A
 VDW_CNRADIUS =   21.1671 A
 Edisp (eV)   -5.51596

 E6    (eV) :    -3.9361
 E8    (eV) :    -1.5798
 % E8        : 28.64
    FORVDW:  cpu time    0.29: real time    0.58

  FORCE on cell =-STRESS in cart. coord.  units (eV):
  Direction    XX          YY          ZZ          XY          YZ          ZX
  --------------------------------------------------------------------------------------
  Alpha Z   321.12578   321.12578   321.12578
  Ewald     221.37814   220.87841 -4525.86251    -1.24436    -0.00062    -0.00763
  Hartree  1015.17909  1015.16649  -835.35478    -0.12201    -0.00022    -0.00154
  E(xc)    -468.50201  -468.50912  -484.35503    -0.00921    -0.00003     0.00002
  Local   -2889.12594 -2888.70248  3442.19899     1.13415     0.00020     0.00794
  n-local  -111.50898  -111.62049  -103.08200    -0.10275    -0.00056     0.00063
  augment   -12.37730   -12.37645   -11.34207     0.00203     0.00001     0.00000
  Kinetic  1923.30511  1924.07298  2210.55546     0.79596     0.00695    -0.00651
  Fock        0.00000     0.00000     0.00000     0.00000     0.00000     0.00000
  vdW        -0.56506    -0.55366    -6.13148     0.01036     0.00000    -0.00002
  -------------------------------------------------------------------------------------
  Total      -1.09117    -0.51853     7.75236     0.46417     0.00573    -0.00711
  in kB      -6.72861    -3.19745    47.80441     2.86226     0.03532    -0.04385
  external pressure =       12.63 kB  Pullay stress =        0.00 kB


 VOLUME and BASIS-vectors are now :
 -----------------------------------------------------------------------------
  energy-cutoff  :      800.00
  volume of cell :      259.82
      direct lattice vectors                 reciprocal lattice vectors
     4.932874498 -0.001919286  0.000000000     0.202767147  0.117172881  0.000000000
    -2.468099399  4.271034986  0.000000000     0.000091118  0.234187941  0.000000000
     0.000000000  0.000000000 12.335056354     0.000000000  0.000000000  0.081069755

  length of vectors
     4.932874871  4.932874871 12.335056354     0.234187958  0.234187958  0.081069755


 FORCES acting on ions
    electron-ion (+dipol)            ewald-force                    non-local-force                 convergence-correction
 -----------------------------------------------------------------------------------------------
   0.696E+00 0.612E-01 -.144E+01   -.829E+00 -.566E-01 0.147E+01   -.107E+00 0.297E-02 -.162E+00   0.741E-06 0.386E-06 -.161E-03
   -.328E+00 0.651E-01 0.373E+00   0.341E+00 -.615E-01 -.356E+00   0.145E-01 0.286E-02 -.162E-01   -.168E-05 0.341E-06 -.160E-03
   -.140E+00 0.173E+00 0.374E+00   0.127E+00 -.185E+00 -.356E+00   0.285E-02 -.393E-02 -.163E-01   -.724E-06 0.677E-06 -.159E-03
   -.140E+00 -.432E-01 0.374E+00   0.126E+00 0.627E-01 -.356E+00   0.293E-02 0.947E-02 -.162E-01   -.532E-06 -.380E-06 -.160E-03
   -.112E+00 0.650E-01 -.104E+00   0.106E+00 -.614E-01 0.105E+00   -.478E-02 0.276E-02 0.674E-02   0.266E-06 0.789E-06 0.138E-03
   -.113E+00 0.650E-01 -.103E+00   0.107E+00 -.614E-01 0.103E+00   -.482E-02 0.276E-02 0.689E-02   0.497E-06 0.163E-06 0.138E-03
   -.113E+00 0.651E-01 -.103E+00   0.106E+00 -.616E-01 0.103E+00   -.480E-02 0.277E-02 0.689E-02   0.819E-06 0.155E-06 0.138E-03
   -.113E+00 0.649E-01 -.103E+00   0.106E+00 -.613E-01 0.103E+00   -.480E-02 0.275E-02 0.689E-02   0.915E-07 -.740E-07 0.138E-03
   0.112E+00 -.716E-01 -.838E-01   -.106E+00 0.680E-01 0.833E-01   0.476E-02 -.297E-02 -.696E-02   -.210E-05 -.496E-06 -.461E-04
   0.112E+00 -.589E-01 -.834E-01   -.106E+00 0.549E-01 0.831E-01   0.458E-02 -.272E-02 -.747E-02   0.852E-06 0.638E-06 -.460E-04
   0.101E+00 -.649E-01 -.835E-01   -.948E-01 0.613E-01 0.831E-01   0.445E-02 -.268E-02 -.721E-02   -.154E-05 -.580E-07 -.461E-04
   0.125E+00 -.650E-01 -.169E+00   -.119E+00 0.612E-01 0.170E+00   0.477E-02 -.279E-02 -.708E-02   0.297E-06 0.165E-05 -.461E-04
   0.113E+00 -.710E-01 -.838E-01   -.106E+00 0.679E-01 0.835E-01   0.476E-02 -.278E-02 -.751E-02   -.535E-06 0.207E-06 0.674E-04
   0.113E+00 -.582E-01 -.841E-01   -.106E+00 0.547E-01 0.835E-01   0.493E-02 -.252E-02 -.700E-02   -.392E-06 0.401E-06 0.673E-04
   0.102E+00 -.650E-01 -.840E-01   -.947E-01 0.614E-01 0.835E-01   0.462E-02 -.279E-02 -.726E-02   -.453E-06 0.201E-06 0.674E-04
   0.126E+00 -.650E-01 -.168E+00   -.120E+00 0.615E-01 0.169E+00   0.494E-02 -.270E-02 -.681E-02   -.422E-06 0.101E-06 0.673E-04
   0.263E-01 -.636E-01 0.311E+00   -.227E-01 0.611E-01 -.309E+00   0.501E-02 -.224E-02 0.103E-01   -.969E-07 -.235E-06 -.160E-03
   0.363E+00 -.552E-01 0.827E+00   -.356E+00 0.518E-01 -.860E+00   0.313E-01 -.205E-02 0.774E-01   0.174E-05 -.464E-06 -.159E-03
   -.251E+00 -.416E+00 0.823E+00   0.315E+00 0.446E+00 -.855E+00   0.229E-01 -.693E-02 0.772E-01   0.717E-06 -.983E-06 -.160E-03
   -.240E+00 0.286E+00 0.831E+00   0.304E+00 -.321E+00 -.864E+00   0.240E-01 0.199E-02 0.778E-01   0.555E-06 0.430E-06 -.159E-03
   0.109E+00 -.633E-01 -.103E+00   -.105E+00 0.608E-01 0.103E+00   0.387E-02 -.223E-02 -.148E-02   -.468E-06 -.415E-06 0.138E-03
   0.110E+00 -.633E-01 -.103E+00   -.105E+00 0.608E-01 0.104E+00   0.386E-02 -.223E-02 -.146E-02   -.794E-06 -.988E-07 0.138E-03
   0.110E+00 -.633E-01 -.103E+00   -.105E+00 0.609E-01 0.104E+00   0.387E-02 -.222E-02 -.146E-02   -.995E-06 0.214E-06 0.138E-03
   0.110E+00 -.632E-01 -.103E+00   -.105E+00 0.607E-01 0.104E+00   0.386E-02 -.223E-02 -.146E-02   -.885E-07 -.363E-06 0.138E-03
   -.805E-01 0.500E-01 -.999E-01   0.755E-01 -.472E-01 0.997E-01   -.370E-02 0.230E-02 0.244E-02   0.226E-05 0.699E-06 -.463E-04
   -.140E+00 0.427E-01 -.123E+00   0.136E+00 -.395E-01 0.124E+00   -.384E-02 0.214E-02 0.194E-02   -.114E-05 -.236E-06 -.466E-04
   -.104E+00 0.974E-01 -.111E+00   0.992E-01 -.957E-01 0.112E+00   -.364E-02 0.235E-02 0.220E-02   0.139E-05 -.862E-08 -.464E-04
   -.114E+00 0.632E-01 -.762E-01   0.111E+00 -.607E-01 0.761E-01   -.404E-02 0.226E-02 0.958E-03   -.300E-06 -.194E-05 -.463E-04
   -.139E+00 0.836E-01 -.123E+00   0.136E+00 -.819E-01 0.124E+00   -.384E-02 0.226E-02 0.198E-02   0.820E-06 -.363E-06 0.668E-04
   -.810E-01 0.761E-01 -.999E-01   0.760E-01 -.740E-01 0.996E-01   -.374E-02 0.211E-02 0.243E-02   0.104E-06 -.273E-06 0.671E-04
   -.104E+00 0.294E-01 -.111E+00   0.991E-01 -.263E-01 0.111E+00   -.366E-02 0.210E-02 0.217E-02   0.563E-06 0.145E-06 0.670E-04
   -.115E+00 0.631E-01 -.768E-01   0.111E+00 -.608E-01 0.766E-01   -.407E-02 0.216E-02 0.999E-03   0.418E-06 -.456E-06 0.670E-04
 -----------------------------------------------------------------------------------------------
   -.795E-04 0.224E-04 -.110E-01   -.874E-15 -.661E-14 -.355E-13   0.104E-03 -.255E-04 0.110E-01   -.137E-06 0.356E-06 -.484E-05
 
 
 POSITION                                       TOTAL-FORCE (eV/Angst)
 -----------------------------------------------------------------------------------
      2.46773      0.00043      1.55117        -0.241219      0.007620     -0.130483
      4.93046     -0.00052      1.54188         0.029338      0.006467      0.001215
      1.22997      2.13595      1.54188        -0.010622     -0.016610      0.001289
      3.69641      2.13499      1.54188        -0.010753      0.029702      0.001059
      2.46402      0.00044      7.70941        -0.011246      0.006429      0.007380
      4.93046     -0.00052      7.70941        -0.011181      0.006431      0.007506
      1.22997      2.13595      7.70941        -0.011213      0.006412      0.007506
      3.69641      2.13499      7.70941        -0.011210      0.006447      0.007507
     -1.23163      2.13412      4.62565         0.011055     -0.006640     -0.007579
      1.23481      2.13316      4.62565         0.010564     -0.006763     -0.007772
     -2.46568      4.26964      4.62565         0.010914     -0.006268     -0.007673
      0.00076      4.26868      4.62565         0.010648     -0.006577     -0.006251
     -1.23163      2.13412     10.79317         0.011243     -0.005982     -0.007829
      1.23481      2.13316     10.79317         0.011685     -0.006074     -0.007649
     -2.46568      4.26964     10.79317         0.011540     -0.006428     -0.007743
      0.00076      4.26868     10.79317         0.011282     -0.006181     -0.006064
     -0.00332      1.42496      1.54188         0.008804     -0.004811      0.011677
      2.46311      1.42400      1.54188         0.038404     -0.005525      0.044431
     -1.23737      3.56047      1.54188         0.086852      0.023034      0.044881
      1.22906      3.55952      1.54188         0.087288     -0.033084      0.043886
     -0.00332      1.42496      7.70941         0.008253     -0.004752     -0.001185
      2.46311      1.42400      7.70941         0.008258     -0.004752     -0.001131
     -1.23737      3.56047      7.70941         0.008254     -0.004755     -0.001132
      1.22906      3.55952      7.70941         0.008253     -0.004750     -0.001128
      1.23571      0.70960      4.62565        -0.008795      0.005214      0.002246
      3.70215      0.70864      4.62565        -0.007268      0.005429      0.002363
      0.00166      2.84512      4.62565        -0.008219      0.004021      0.002312
      2.46810      2.84416      4.62565        -0.007900      0.004879      0.000769
      1.23571      0.70960     10.79317        -0.007571      0.003971      0.002363
      3.70215      0.70864     10.79317        -0.008877      0.004201      0.002203
      0.00166      2.84512     10.79317        -0.008428      0.005224      0.002245
      2.46810      2.84416     10.79317        -0.008132      0.004469      0.000782
 -----------------------------------------------------------------------------------
    total drift:                                0.000024     -0.000003      0.000044


--------------------------------------------------------------------------------------------------------



  FREE ENERGIE OF THE ION-ELECTRON SYSTEM (eV)
  ---------------------------------------------------
  free  energy   TOTEN  =      -299.53190757 eV

  energy  without entropy=     -299.53190757  energy(sigma->0) =     -299.53190757
 


--------------------------------------------------------------------------------------------------------


    POTLOK:  cpu time    0.95: real time    1.90


--------------------------------------------------------------------------------------------------------


     LOOP+:  cpu time 5767.97: real time11540.26
    4ORBIT:  cpu time    0.00: real time    0.00
 BZINTS: Fermi energy:  5.429328;128.000000 electrons
         Band energy:-466.318983;  BLOECHL correction:  0.000000

 total amount of memory used by VASP on root node   377612. kBytes
========================================================================

   base      :      30000. kBytes
   nonl-proj :      72156. kBytes
   fftplans  :      13581. kBytes
   grid      :      28889. kBytes
   one-center:         98. kBytes
   wavefun   :     232888. kBytes
 
  
  
 General timing and accounting informations for this job:
 ========================================================
  
                  Total CPU time used (sec):     5843.863
                            User time (sec):     3512.651
                          System time (sec):     2331.212
                         Elapsed time (sec):    11692.274
  
                   Maximum memory used (kb):      479932.
                   Average memory used (kb):           0.
  
                          Minor page faults:     51546723
                          Major page faults:            0
                 Voluntary context switches:         1043
