    4    4  200    1
  0.9749312E+01  0.2467155E-09  0.2467155E-09  0.7398317E-09  0.5000000E-15
  1.000000000000000E-004
  CAR 
 graphite                                
     16    455     12
 
  0.0000000E+00  0.0000000E+00  0.0000000E+00  0.3858025E-03
    1      -15.699621
    2      -15.564518
    3       -4.291522
    4       -3.129814
    5        0.837783
    6        0.842483
    7        0.843933
    8        0.848630
    9        7.504385
   10       12.172581
   11       12.186936
   12       12.192983
 
  0.5555556E-01  0.0000000E+00  0.0000000E+00  0.1543210E-02
    1      -15.626340
    2      -15.491928
    3       -4.202891
    4       -3.044963
    5        0.541843
    6        0.551056
    7        0.681856
    8        0.690030
    9        7.596365
   10       12.205717
   11       12.236683
   12       12.489189
 
  0.1111111E+00  0.0000000E+00  0.0000000E+00  0.1543210E-02
    1      -15.406894
    2      -15.274574
    3       -3.937876
    4       -2.791538
    5       -0.279704
    6       -0.263690
    7        0.265264
    8        0.276869
    9        7.872719
   10       12.230153
   11       12.287277
   12       13.379089
 
  0.1666667E+00  0.2775558E-16  0.0000000E+00  0.1543210E-02
    1      -15.042359
    2      -14.913458
    3       -3.499244
    4       -2.373088
    5       -1.458761
    6       -1.433572
    7       -0.294560
    8       -0.280021
    9        8.333579
   10       12.144763
   11       12.238389
   12       12.975559
 
  0.2222222E+00 -0.1387779E-16  0.0000000E+00  0.1543210E-02
    1      -14.534701
    2      -14.410396
    3       -2.892517
    4       -2.837616
    5       -2.802911
    6       -1.797109
    7       -0.889109
    8       -0.872159
    9        8.977347
   10       11.690905
   11       11.952929
   12       12.079518
 
  0.2777778E+00  0.2775558E-16  0.0000000E+00  0.1543210E-02
    1      -13.887064
    2      -13.768534
    3       -4.302565
    4       -4.257344
    5       -2.127912
    6       -1.442387
    7       -1.424144
    8       -1.077104
    9        9.799256
   10       10.132346
   11       10.519402
   12       11.716177
 
  0.3333333E+00  0.5551115E-16  0.0000000E+00  0.1543210E-02
    1      -13.104573
    2      -12.993214
    3       -5.775596
    4       -5.720426
    5       -1.907361
    6       -1.887922
    7       -1.225040
    8       -0.240765
    9        8.534258
   10        9.031836
   11       10.777322
   12       11.493457
 
  0.3888889E+00  0.2775558E-16  0.0000000E+00  0.1543210E-02
    1      -12.197135
    2      -12.093703
    3       -7.202084
    4       -7.137398
    5       -2.255110
    6       -2.235066
    7       -0.226487
    8        0.647516
    9        7.029336
   10        7.600874
   11       11.283425
   12       11.433443
 
  0.4444444E+00 -0.2775558E-16  0.0000000E+00  0.1543210E-02
    1      -11.193797
    2      -11.102427
    3       -8.522748
    4       -8.451864
    5       -2.469320
    6       -2.449119
    7        0.749813
    8        1.408264
    9        5.839244
   10        6.390412
   11       11.177661
   12       11.357414
 
  0.5000000E+00 -0.5551115E-16  0.0000000E+00  0.7716049E-03
    1      -10.421340
    2      -10.373299
    3       -9.364993
    4       -9.327702
    5       -2.541584
    6       -2.521098
    7        1.288642
    8        1.677596
    9        5.374299
   10        5.820445
   11       11.138685
   12       11.324024
 
  0.5555556E-01  0.5555556E-01  0.0000000E+00  0.7716049E-03
    1      -15.479962
    2      -15.346942
    3       -4.026047
    4       -2.875814
    5        0.011573
    6        0.020853
    7        0.368718
    8        0.375928
    9        7.780652
   10       12.309313
   11       12.354571
   12       13.007615
 
  0.1111111E+00  0.5555556E-01  0.0000000E+00  0.1543210E-02
    1      -15.187966
    2      -15.057668
    3       -3.674110
    4       -2.539795
    5       -0.936244
    6       -0.919631
    7       -0.173131
    8       -0.161760
    9        8.149796
   10       12.407578
   11       12.481751
   12       13.328650
 
  0.1666667E+00  0.5555556E-01  0.0000000E+00  0.1543210E-02
    1      -14.751867
    2      -14.625582
    3       -3.151178
    4       -2.174273
    5       -2.146771
    6       -2.042084
    7       -0.794153
    8       -0.778296
    9        8.703125
   10       12.331565
   11       12.359349
   12       12.449663
 
  0.2222222E+00  0.5555556E-01  0.0000000E+00  0.1543210E-02
    1      -14.174196
    2      -14.053121
    3       -3.570564
    4       -3.532101
    5       -2.464686
    6       -1.395693
    7       -1.392815
    8       -1.376722
    9        9.437936
   10       10.846860
   11       11.157325
   12       12.145788
 
  0.2777778E+00  0.5555556E-01  0.0000000E+00  0.1543210E-02
    1      -13.458951
    2      -13.344266
    3       -5.024630
    4       -4.975358
    5       -1.920721
    6       -1.899721
    7       -1.628482
    8       -0.610774
    9        9.283656
   10        9.707920
   11       10.347288
   12       11.919475
 
  0.3333333E+00  0.5555556E-01  0.0000000E+00  0.1543210E-02
    1      -12.613322
    2      -12.506166
    3       -6.466647
    4       -6.407441
    5       -2.335749
    6       -2.313344
    7       -0.670438
    8        0.263537
    9        7.734707
   10        8.256266
   11       11.380284
   12       11.727359
 
  0.3888889E+00  0.5555556E-01  0.0000000E+00  0.1543210E-02
    1      -11.652610
    2      -11.554772
    3       -7.841900
    4       -7.773690
    5       -2.621165
    6       -2.598191
    7        0.341172
    8        1.125355
    9        6.360308
   10        6.920657
   11       11.547810
   12       11.723484
 
  0.4444444E+00  0.5555556E-01  0.0000000E+00  0.1543210E-02
    1      -10.655134
    2      -10.577919
    3       -9.039623
    4       -8.974985
    5       -2.766380
    6       -2.743160
    7        1.192838
    8        1.685129
    9        5.483085
   10        5.951109
   11       11.472476
   12       11.663798
 
  0.5000000E+00  0.5555556E-01  0.0000000E+00  0.1543210E-02
    1      -10.655305
    2      -10.578083
    3       -9.039444
    4       -8.974798
    5       -2.766415
    6       -2.743195
    7        1.192789
    8        1.685121
    9        5.483094
   10        5.951105
   11       11.472560
   12       11.663887
 
 -0.4444444E+00  0.5555556E-01  0.0000000E+00  0.1543210E-02
    1      -11.652804
    2      -11.554965
    3       -7.841666
    4       -7.773457
    5       -2.621262
    6       -2.598288
    7        0.341088
    8        1.125310
    9        6.360309
   10        6.920623
   11       11.548068
   12       11.723758
 
 -0.3888889E+00  0.5555556E-01  0.0000000E+00  0.1543210E-02
    1      -12.613497
    2      -12.506341
    3       -6.466428
    4       -6.407224
    5       -2.335880
    6       -2.313477
    7       -0.670529
    8        0.263475
    9        7.734659
   10        8.256173
   11       11.380262
   12       11.727748
 
 -0.3333333E+00  0.5555556E-01  0.0000000E+00  0.1543210E-02
    1      -13.459097
    2      -13.344405
    3       -5.024479
    4       -4.975213
    5       -1.920722
    6       -1.899830
    7       -1.628568
    8       -0.610838
    9        9.283530
   10        9.707750
   11       10.347141
   12       11.920155
 
 -0.2777778E+00  0.5555556E-01  0.0000000E+00  0.1543210E-02
    1      -14.174319
    2      -14.053244
    3       -3.570590
    4       -3.532140
    5       -2.464763
    6       -1.395640
    7       -1.392874
    8       -1.376682
    9        9.437805
   10       10.846635
   11       11.157074
   12       12.163096
 
 -0.2222222E+00  0.5555556E-01  0.0000000E+00  0.1543210E-02
    1      -14.751963
    2      -14.625678
    3       -3.151241
    4       -2.174714
    5       -2.147242
    6       -2.042135
    7       -0.793670
    8       -0.777842
    9        8.703022
   10       12.325510
   11       12.342135
   12       12.451744
 
 -0.1666667E+00  0.5555556E-01  0.0000000E+00  0.1543210E-02
    1      -15.188035
    2      -15.057737
    3       -3.674157
    4       -2.539833
    5       -0.937615
    6       -0.921056
    7       -0.171669
    8       -0.160352
    9        8.149721
   10       12.409757
   11       12.483971
   12       12.919855
 
 -0.1111111E+00  0.5555556E-01  0.0000000E+00  0.1543210E-02
    1      -15.480004
    2      -15.346983
    3       -4.026076
    4       -2.875838
    5        0.008508
    6        0.017793
    7        0.371841
    8        0.379049
    9        7.780606
   10       12.312462
   11       12.357739
   12       12.605918
 
 -0.5555556E-01  0.5555556E-01  0.0000000E+00  0.7716049E-03
    1      -15.626354
    2      -15.491942
    3       -4.202901
    4       -3.044971
    5        0.538425
    6        0.547644
    7        0.685305
    8        0.693477
    9        7.596349
   10       12.208350
   11       12.241061
   12       12.491925
 
  0.1111111E+00  0.1111111E+00  0.0000000E+00  0.7716049E-03
    1      -14.824412
    2      -14.697519
    3       -3.237790
    4       -2.124204
    5       -1.835525
    6       -1.820396
    7       -0.876712
    8       -0.866290
    9        8.612211
   10       12.543115
   11       12.727034
   12       12.820885
 
  0.1666667E+00  0.1111111E+00  0.0000000E+00  0.1543210E-02
    1      -14.318274
    2      -14.195955
    3       -2.976955
    4       -2.951639
    5       -2.634177
    6       -1.619509
    7       -1.603073
    8       -1.552005
    9        9.258110
   10       11.287343
   11       11.518416
   12       13.002305
 
  0.2222222E+00  0.1111111E+00  0.0000000E+00  0.1543210E-02
    1      -13.672945
    2      -13.556388
    3       -4.296119
    4       -4.257040
    5       -2.262916
    6       -2.239985
    7       -1.873405
    8       -0.836443
    9        9.865949
   10       10.083595
   11       10.181911
   12       12.892524
 
  0.2777778E+00  0.1111111E+00  0.0000000E+00  0.1543210E-02
    1      -12.893946
    2      -12.784308
    3       -5.685805
    4       -5.634667
    5       -2.773700
    6       -2.747149
    7       -0.974230
    8       -0.003501
    9        8.376445
   10        8.793934
   11       11.080948
   12       12.699760
 
  0.3333333E+00  0.1111111E+00  0.0000000E+00  0.1543210E-02
    1      -11.991659
    2      -11.890008
    3       -7.063677
    4       -7.002054
    5       -3.143982
    6       -3.115363
    7        0.022443
    8        0.886357
    9        6.943260
   10        7.439061
   11       12.205990
   12       12.537389
 
  0.3888889E+00  0.1111111E+00  0.0000000E+00  0.1543210E-02
    1      -10.996142
    2      -10.906613
    3       -8.355200
    4       -8.286683
    5       -3.368756
    6       -3.338821
    7        1.004334
    8        1.660767
    9        5.785894
   10        6.264773
   11       12.393637
   12       12.606110
 
  0.4444444E+00  0.1111111E+00  0.0000000E+00  0.1543210E-02
    1      -10.233152
    2      -10.186110
    3       -9.182004
    4       -9.146446
    5       -3.443962
    6       -3.413673
    7        1.555420
    8        1.941081
    9        5.334535
   10        5.687005
   11       12.355402
   12       12.577988
 
  0.5000000E+00  0.1111111E+00  0.0000000E+00  0.1543210E-02
    1      -10.996541
    2      -10.906998
    3       -8.354772
    4       -8.286266
    5       -3.368860
    6       -3.338936
    7        1.004195
    8        1.660700
    9        5.785889
   10        6.264724
   11       12.393952
   12       12.606459
 
 -0.4444444E+00  0.1111111E+00  0.0000000E+00  0.1543210E-02
    1      -11.992028
    2      -11.890377
    3       -7.063244
    4       -7.001625
    5       -3.144140
    6       -3.115526
    7        0.022272
    8        0.886254
    9        6.943180
   10        7.438910
   11       12.205835
   12       12.537869
 
 -0.3888889E+00  0.1111111E+00  0.0000000E+00  0.1543210E-02
    1      -12.894270
    2      -12.784632
    3       -5.685492
    4       -5.634366
    5       -2.773808
    6       -2.747267
    7       -0.974405
    8       -0.003622
    9        8.376218
   10        8.793641
   11       11.080601
   12       12.700955
 
 -0.3333333E+00  0.1111111E+00  0.0000000E+00  0.1543210E-02
    1      -13.673217
    2      -13.556661
    3       -4.296148
    4       -4.257094
    5       -2.262726
    6       -2.239820
    7       -1.873566
    8       -0.836564
    9        9.865526
   10       10.083293
   11       10.181462
   12       12.894401
 
 -0.2777778E+00  0.1111111E+00  0.0000000E+00  0.1543210E-02
    1      -14.318493
    2      -14.196174
    3       -2.977782
    4       -2.952509
    5       -2.634315
    6       -1.618525
    7       -1.602129
    8       -1.552112
    9        9.257867
   10       11.286711
   11       11.517840
   12       13.005223
 
 -0.2222222E+00  0.1111111E+00  0.0000000E+00  0.1543210E-02
    1      -14.824577
    2      -14.697683
    3       -3.237898
    4       -2.124290
    5       -1.837709
    6       -1.822573
    7       -0.874398
    8       -0.863973
    9        8.612028
   10       12.541985
   11       12.782618
   12       12.848864
 
 -0.1666667E+00  0.1111111E+00  0.0000000E+00  0.1543210E-02
    1      -15.188076
    2      -15.057778
    3       -3.674184
    4       -2.539855
    5       -0.939479
    6       -0.922854
    7       -0.169736
    8       -0.158358
    9        8.149672
   10       12.411825
   11       12.486005
   12       12.907945
 
 -0.1111111E+00  0.1111111E+00  0.0000000E+00  0.7716049E-03
    1      -15.406949
    2      -15.274629
    3       -3.937914
    4       -2.791569
    5       -0.282931
    6       -0.266911
    7        0.268626
    8        0.280231
    9        7.872656
   10       12.233249
   11       12.290368
   12       12.679769
 
  0.1666667E+00  0.1666667E+00  0.0000000E+00  0.7716049E-03
    1      -13.744494
    2      -13.627316
    3       -3.894659
    4       -3.872962
    5       -2.538464
    6       -2.522755
    7       -1.955507
    8       -0.912247
    9        9.994786
   10       10.100784
   11       10.349393
   12       13.795346
 
  0.2222222E+00  0.1666667E+00  0.0000000E+00  0.1543210E-02
    1      -13.035163
    2      -12.924296
    3       -5.011662
    4       -4.977313
    5       -3.305001
    6       -3.280913
    7       -1.128237
    8       -0.140038
    9        8.793491
   10        9.093098
   11       10.907239
   12       14.013619
 
  0.2777778E+00  0.1666667E+00  0.0000000E+00  0.1543210E-02
    1      -12.198256
    2      -12.094742
    3       -6.272526
    4       -6.222417
    5       -3.841304
    6       -3.809187
    7       -0.178097
    8        0.729282
    9        7.438494
   10        7.816717
   11       11.985604
   12       13.879492
 
  0.3333333E+00  0.1666667E+00  0.0000000E+00  0.1543210E-02
    1      -11.250514
    2      -11.156447
    3       -7.551650
    4       -7.489708
    5       -4.179853
    6       -4.143631
    7        0.834920
    8        1.605048
    9        6.175908
   10        6.600969
   11       13.201542
   12       13.737866
 
  0.3888889E+00  0.1666667E+00  0.0000000E+00  0.1543210E-02
    1      -10.271832
    2      -10.197964
    3       -8.696880
    4       -8.637087
    5       -4.345236
    6       -4.307072
    7        1.712403
    8        2.204122
    9        5.339824
   10        5.649605
   11       13.635996
   12       13.931901
 
  0.4444444E+00  0.1666667E+00  0.0000000E+00  0.1543210E-02
    1      -10.272333
    2      -10.198443
    3       -8.696379
    4       -8.636564
    5       -4.345276
    6       -4.307114
    7        1.712274
    8        2.204113
    9        5.339799
   10        5.649557
   11       13.636214
   12       13.932185
 
  0.5000000E+00  0.1666667E+00  0.0000000E+00  0.1543210E-02
    1      -11.251088
    2      -11.157017
    3       -7.551049
    4       -7.489112
    5       -4.179928
    6       -4.143713
    7        0.834698
    8        1.604945
    9        6.175773
   10        6.600776
   11       13.200988
   12       13.738455
 
 -0.4444444E+00  0.1666667E+00  0.0000000E+00  0.1543210E-02
    1      -12.198775
    2      -12.095260
    3       -6.272127
    4       -6.222037
    5       -3.841239
    6       -3.809142
    7       -0.178342
    8        0.729129
    9        7.438144
   10        7.816332
   11       11.984993
   12       13.880618
 
 -0.3888889E+00  0.1666667E+00  0.0000000E+00  0.1543210E-02
    1      -13.035609
    2      -12.924742
    3       -5.011869
    4       -4.977556
    5       -3.304384
    6       -3.280331
    7       -1.128477
    8       -0.140206
    9        8.792849
   10        9.092509
   11       10.906719
   12       14.015917
 
 -0.3333333E+00  0.1666667E+00  0.0000000E+00  0.1543210E-02
    1      -13.744862
    2      -13.627683
    3       -3.896014
    4       -3.874307
    5       -2.536783
    6       -2.521066
    7       -1.955722
    8       -0.912408
    9        9.994364
   10       10.099833
   11       10.348624
   12       13.801600
 
 -0.2777778E+00  0.1666667E+00  0.0000000E+00  0.1543210E-02
    1      -14.318562
    2      -14.196242
    3       -2.979293
    4       -2.953956
    5       -2.634355
    6       -1.616854
    7       -1.600400
    8       -1.552143
    9        9.257785
   10       11.286187
   11       11.517521
   12       13.044180
 
 -0.2222222E+00  0.1666667E+00  0.0000000E+00  0.1543210E-02
    1      -14.752072
    2      -14.625788
    3       -3.151310
    4       -2.177105
    5       -2.149602
    6       -2.042190
    7       -0.790963
    8       -0.775108
    9        8.702892
   10       12.306045
   11       12.347862
   12       12.453445
 
 -0.1666667E+00  0.1666667E+00  0.0000000E+00  0.7716049E-03
    1      -15.042483
    2      -14.913581
    3       -3.499326
    4       -2.373154
    5       -1.461706
    6       -1.436512
    7       -0.291302
    8       -0.276763
    9        8.333437
   10       12.148308
   11       12.241919
   12       12.971848
 
  0.2222222E+00  0.2222222E+00  0.0000000E+00  0.7716049E-03
    1      -12.267689
    2      -12.163470
    3       -5.808544
    4       -5.780461
    5       -4.270297
    6       -4.249023
    7       -0.246305
    8        0.674772
    9        7.647111
   10        7.948248
   11       11.898587
   12       15.133243
 
  0.2777778E+00  0.2222222E+00  0.0000000E+00  0.1543210E-02
    1      -11.382045
    2      -11.286340
    3       -6.815075
    4       -6.771923
    5       -4.932991
    6       -4.901315
    7        0.739149
    8        1.562750
    9        6.466306
   10        6.805479
   11       13.040472
   12       15.213515
 
  0.3333333E+00  0.2222222E+00  0.0000000E+00  0.1543210E-02
    1      -10.411493
    2      -10.327575
    3       -7.932492
    4       -7.875242
    5       -5.278277
    6       -5.237747
    7        1.739525
    8        2.388421
    9        5.414442
   10        5.746314
   11       14.291304
   12       15.084667
 
  0.3888889E+00  0.2222222E+00  0.0000000E+00  0.1543210E-02
    1       -9.669914
    2       -9.625902
    3       -8.699296
    4       -8.673093
    5       -5.384270
    6       -5.341198
    7        2.348590
    8        2.723263
    9        5.033095
   10        5.085400
   11       15.009938
   12       15.462489
 
  0.4444444E+00  0.2222222E+00  0.0000000E+00  0.1543210E-02
    1      -10.412245
    2      -10.328319
    3       -7.931826
    4       -7.874581
    5       -5.278185
    6       -5.237669
    7        1.739316
    8        2.388387
    9        5.414213
   10        5.746107
   11       14.290268
   12       15.084885
 
  0.5000000E+00  0.2222222E+00  0.0000000E+00  0.1543210E-02
    1      -11.382770
    2      -11.287063
    3       -6.814780
    4       -6.771656
    5       -4.932523
    6       -4.900879
    7        0.738875
    8        1.562619
    9        6.465785
   10        6.805034
   11       13.039538
   12       15.214617
 
 -0.4444444E+00  0.2222222E+00  0.0000000E+00  0.1543210E-02
    1      -12.268330
    2      -12.164110
    3       -5.809202
    4       -5.781104
    5       -4.268975
    6       -4.247692
    7       -0.246598
    8        0.674590
    9        7.646223
   10        7.947564
   11       11.897804
   12       15.139189
 
 -0.3888889E+00  0.2222222E+00  0.0000000E+00  0.1543210E-02
    1      -13.035704
    2      -12.924837
    3       -5.013213
    4       -4.978838
    5       -3.302842
    6       -3.278731
    7       -1.128518
    8       -0.140233
    9        8.792262
   10        9.092176
   11       10.906602
   12       14.019447
 
 -0.3333333E+00  0.2222222E+00  0.0000000E+00  0.1543210E-02
    1      -13.673381
    2      -13.556824
    3       -4.298184
    4       -4.259097
    5       -2.260239
    6       -2.237305
    7       -1.873651
    8       -0.836625
    9        9.864499
   10       10.083096
   11       10.180793
   12       12.897790
 
 -0.2777778E+00  0.2222222E+00  0.0000000E+00  0.1543210E-02
    1      -14.174524
    2      -14.053449
    3       -3.572981
    4       -3.534516
    5       -2.464883
    6       -1.392965
    7       -1.392661
    8       -1.373692
    9        9.437564
   10       10.845357
   11       11.156155
   12       12.150387
 
 -0.2222222E+00  0.2222222E+00  0.0000000E+00  0.7716049E-03
    1      -14.534920
    2      -14.410614
    3       -2.892653
    4       -2.840248
    5       -2.805538
    6       -1.797216
    7       -0.885925
    8       -0.868975
    9        8.977095
   10       11.689237
   11       11.956768
   12       12.055842
 
  0.2777778E+00  0.2777778E+00  0.0000000E+00  0.7716049E-03
    1      -10.466433
    2      -10.380717
    3       -7.440798
    4       -7.406448
    5       -5.805257
    6       -5.780982
    7        1.738210
    8        2.448379
    9        5.461718
   10        5.802135
   11       14.207698
   12       14.941807
 
  0.3333333E+00  0.2777778E+00  0.0000000E+00  0.1543210E-02
    1       -9.526198
    2       -9.458056
    3       -8.256165
    4       -8.214272
    5       -6.239421
    6       -6.206727
    7        2.694911
    8        3.196451
    9        4.608310
   10        4.898607
   11       14.818688
   12       15.027652
 
  0.3888889E+00  0.2777778E+00  0.0000000E+00  0.1543210E-02
    1       -9.526981
    2       -9.458807
    3       -8.255657
    4       -8.213747
    5       -6.239138
    6       -6.206459
    7        2.694819
    8        3.196574
    9        4.607982
   10        4.898413
   11       14.819136
   12       15.028943
 
  0.4444444E+00  0.2777778E+00  0.0000000E+00  0.1543210E-02
    1      -10.467346
    2      -10.381623
    3       -7.440894
    4       -7.406525
    5       -5.804190
    6       -5.779900
    7        1.738004
    8        2.448378
    9        5.460990
   10        5.801625
   11       14.206381
   12       14.942563
 
  0.5000000E+00  0.2777778E+00  0.0000000E+00  0.1543210E-02
    1      -11.382889
    2      -11.287182
    3       -6.815970
    4       -6.772786
    5       -4.931140
    6       -4.899437
    7        0.738869
    8        1.562633
    9        6.465188
   10        6.804685
   11       13.039384
   12       15.218887
 
 -0.4444444E+00  0.2777778E+00  0.0000000E+00  0.1543210E-02
    1      -12.198990
    2      -12.095475
    3       -6.273899
    4       -6.223778
    5       -3.838982
    6       -3.806858
    7       -0.178403
    8        0.729105
    9        7.437058
   10        7.815631
   11       11.984724
   12       13.884898
 
 -0.3888889E+00  0.2777778E+00  0.0000000E+00  0.1543210E-02
    1      -12.894554
    2      -12.784886
    3       -5.687530
    4       -5.636392
    5       -2.771029
    6       -2.744480
    7       -0.974498
    8       -0.003695
    9        8.374795
   10        8.792617
   11       11.080265
   12       12.704822
 
 -0.3333333E+00  0.2777778E+00  0.0000000E+00  0.1543210E-02
    1      -13.459423
    2      -13.344731
    3       -5.026680
    4       -4.977405
    5       -1.917654
    6       -1.896758
    7       -1.628733
    8       -0.610953
    9        9.281920
   10        9.706510
   11       10.346774
   12       11.924079
 
 -0.2777778E+00  0.2777778E+00  0.0000000E+00  0.7716049E-03
    1      -13.887405
    2      -13.768875
    3       -4.304879
    4       -4.259653
    5       -2.128104
    6       -1.439246
    7       -1.421003
    8       -1.077245
    9        9.798875
   10       10.130704
   11       10.518106
   12       11.720281
 
  0.3333333E+00  0.3333333E+00  0.0000000E+00  0.7716049E-03
    1       -8.755487
    2       -8.715116
    3       -8.715054
    4       -8.676008
    5       -6.663865
    6       -6.663816
    7        3.506383
    8        3.851147
    9        3.851491
   10        4.238702
   11       14.712382
   12       14.712755
 
  0.3888889E+00  0.3333333E+00  0.0000000E+00  0.1543210E-02
    1       -9.527136
    2       -9.458974
    3       -8.256575
    4       -8.214632
    5       -6.238024
    6       -6.205285
    7        2.695030
    8        3.196720
    9        4.607377
   10        4.897890
   11       14.819523
   12       15.028093
 
  0.4444444E+00  0.3333333E+00  0.0000000E+00  0.1543210E-02
    1      -10.412504
    2      -10.328580
    3       -7.933323
    4       -7.876053
    5       -5.276236
    6       -5.235694
    7        1.739422
    8        2.388503
    9        5.413086
   10        5.745330
   11       14.289926
   12       15.089627
 
  0.5000000E+00  0.3333333E+00  0.0000000E+00  0.1543210E-02
    1      -11.251444
    2      -11.157374
    3       -7.552788
    4       -7.490838
    5       -4.177455
    6       -4.141230
    7        0.834693
    8        1.604990
    9        6.174279
   10        6.599683
   11       13.200586
   12       13.742902
 
 -0.4444444E+00  0.3333333E+00  0.0000000E+00  0.1543210E-02
    1      -11.992456
    2      -11.890804
    3       -7.065113
    4       -7.003485
    5       -3.141288
    6       -3.112669
    7        0.022168
    8        0.886221
    9        6.941450
   10        7.437548
   11       12.205716
   12       12.541968
 
 -0.3888889E+00  0.3333333E+00  0.0000000E+00  0.1543210E-02
    1      -12.613968
    2      -12.506812
    3       -6.468378
    4       -6.409168
    5       -2.332795
    6       -2.310391
    7       -0.670709
    8        0.263373
    9        7.732809
   10        8.254653
   11       11.380299
   12       11.731760
 
 -0.3333333E+00  0.3333333E+00  0.0000000E+00  0.7716049E-03
    1      -13.105061
    2      -12.993702
    3       -5.777601
    4       -5.722427
    5       -1.904241
    6       -1.884802
    7       -1.225269
    8       -0.240917
    9        8.532401
   10        9.030293
   11       10.776956
   12       11.497639
 
  0.3888889E+00  0.3888889E+00  0.0000000E+00  0.7716049E-03
    1       -9.670553
    2       -9.626568
    3       -8.700482
    4       -8.674275
    5       -5.382193
    6       -5.339108
    7        2.348944
    8        2.723369
    9        5.031701
   10        5.084173
   11       15.014359
   12       15.479387
 
  0.4444444E+00  0.3888889E+00  0.0000000E+00  0.1543210E-02
    1      -10.272850
    2      -10.198972
    3       -8.697934
    4       -8.638118
    5       -4.342773
    6       -4.304607
    7        1.712501
    8        2.204220
    9        5.338030
   10        5.648008
   11       13.640828
   12       13.936747
 
  0.5000000E+00  0.3888889E+00  0.0000000E+00  0.1543210E-02
    1      -10.997127
    2      -10.907586
    3       -8.356419
    4       -8.287907
    5       -3.366015
    6       -3.336089
    7        1.004233
    8        1.660767
    9        5.783907
   10        6.262993
   11       12.398346
   12       12.610817
 
 -0.4444444E+00  0.3888889E+00  0.0000000E+00  0.1543210E-02
    1      -11.653439
    2      -11.555601
    3       -7.843358
    4       -7.775143
    5       -2.618191
    6       -2.595217
    7        0.340979
    8        1.125292
    9        6.358254
   10        6.918818
   11       11.552262
   12       11.727902
 
 -0.3888889E+00  0.3888889E+00  0.0000000E+00  0.7716049E-03
    1      -12.197791
    2      -12.094358
    3       -7.203802
    4       -7.139111
    5       -2.251997
    6       -2.231955
    7       -0.226698
    8        0.647413
    9        7.027311
   10        7.599105
   11       11.287511
   12       11.437400
 
  0.4444444E+00  0.4444444E+00  0.0000000E+00  0.7716049E-03
    1      -10.233974
    2      -10.186959
    3       -9.183351
    4       -9.147800
    5       -3.441161
    6       -3.410871
    7        1.555685
    8        1.941098
    9        5.332520
   10        5.684930
   11       12.359994
   12       12.582602
 
  0.5000000E+00  0.4444444E+00  0.0000000E+00  0.1543210E-02
    1      -10.656094
    2      -10.578878
    3       -9.040919
    4       -8.976269
    5       -2.763373
    6       -2.740153
    7        1.192931
    8        1.685162
    9        5.480918
   10        5.948931
   11       11.476917
   12       11.668249
 
 -0.4444444E+00  0.4444444E+00  0.0000000E+00  0.7716049E-03
    1      -11.194624
    2      -11.103254
    3       -8.524220
    4       -8.453331
    5       -2.466210
    6       -2.446010
    7        0.749761
    8        1.408281
    9        5.837058
   10        6.388349
   11       11.181962
   12       11.361712
 
  0.5000000E+00  0.5000000E+00  0.0000000E+00  0.3858025E-03
    1      -10.422221
    2      -10.374209
    3       -9.366366
    4       -9.329082
    5       -2.538474
    6       -2.517989
    7        1.288875
    8        1.677581
    9        5.372097
   10        5.818091
   11       11.143012
   12       11.328357
 