32   
4    

1    
  0.0031634892689234  -0.0000001425852877   0.0094864290238780
  -0.1941799200    0.0038962500   -0.1358164700
   0.0347215300    0.0030618600   -0.0063922600
   0.0017160200   -0.0160046900   -0.0063288100
   0.0016200300    0.0221670400   -0.0064707800
  -0.0068302000    0.0030774600    0.0009162500
  -0.0068228800    0.0030765300    0.0009218400
  -0.0068253600    0.0030747400    0.0009219100
  -0.0068262400    0.0030776100    0.0009215300
   0.0048703700   -0.0032472700   -0.0009641000
   0.0048189200   -0.0033047700   -0.0009801000
   0.0048942300   -0.0032326300   -0.0009717400
   0.0047920300   -0.0032630100   -0.0008051300
   0.0057218000   -0.0028018700   -0.0009734900
   0.0057671600   -0.0028584900   -0.0009582600
   0.0057938300   -0.0028686300   -0.0009657300
   0.0056897500   -0.0028431300   -0.0007502900
  -0.0006877100   -0.0030451800    0.0119794800
   0.0243592700   -0.0036605600    0.0484966700
   0.0660497900    0.0209899400    0.0488630500
   0.0661705700   -0.0272175200    0.0480910700
   0.0064684600   -0.0028925700   -0.0001593400
   0.0064691600   -0.0028926800   -0.0001555500
   0.0064692500   -0.0028916400   -0.0001559100
   0.0064697400   -0.0028925900   -0.0001558200
  -0.0049118200    0.0031298300    0.0002805200
  -0.0047632400    0.0031793600    0.0002956500
  -0.0048804100    0.0030274400    0.0002891800
  -0.0047939800    0.0031126500    0.0000009800
  -0.0052791800    0.0027042600    0.0003341000
  -0.0053901700    0.0027552500    0.0003194800
  -0.0053786600    0.0028259800    0.0003265000
  -0.0052921700    0.0027610300    0.0000455400

1    
 -0.0031634892689234   0.0000001425852877  -0.0094864290238780
   0.1834466800    0.0037830300    0.1356902500
  -0.0454358500    0.0030259700    0.0063826900
  -0.0123848100    0.0221043800    0.0064438000
  -0.0124737200   -0.0160097200    0.0063371300
  -0.0037069200    0.0031103600   -0.0009204300
  -0.0037153400    0.0031090800   -0.0009267300
  -0.0037134100    0.0031102400   -0.0009266800
  -0.0037134700    0.0031074300   -0.0009263700
   0.0049035500   -0.0033146400    0.0010101900
   0.0049481800   -0.0032571500    0.0010254200
   0.0048757400   -0.0033206900    0.0010174600
   0.0049809900   -0.0032955200    0.0008006100
   0.0058566200   -0.0030315700    0.0009809300
   0.0058050200   -0.0029760000    0.0009652500
   0.0057817200   -0.0029585000    0.0009734000
   0.0058815600   -0.0029860600    0.0008077000
   0.0111550700   -0.0029359200   -0.0120200200
  -0.0139071700   -0.0035341700   -0.0485262500
  -0.0556918300   -0.0270890500   -0.0481510700
  -0.0556459600    0.0211338900   -0.0488604700
   0.0035876600   -0.0030361200    0.0001819500
   0.0035881400   -0.0030369200    0.0001782400
   0.0035853800   -0.0030375700    0.0001773300
   0.0035863200   -0.0030351800    0.0001785500
  -0.0050022000    0.0032337800   -0.0002893400
  -0.0051117600    0.0031830900   -0.0003031400
  -0.0050134600    0.0033001100   -0.0002965000
  -0.0051001800    0.0032374500   -0.0000147100
  -0.0054150100    0.0029208200   -0.0003281700
  -0.0052674500    0.0028725900   -0.0003116000
  -0.0053007600    0.0027679300   -0.0003163800
  -0.0053833300    0.0028546200   -0.0000330400

17   
  0.0031634892689234  -0.0000001425852877   0.0094864290238780
  -0.0141817300    0.0031876100    0.0117895000
   0.0108737500    0.0037759600    0.0483133500
   0.0526520500    0.0273270000    0.0479424100
   0.0526179800   -0.0208918000    0.0486430000
   0.0022791800    0.0032127200   -0.0003579200
   0.0022794800    0.0032123700   -0.0003540100
   0.0022799700    0.0032119300   -0.0003568700
   0.0022800800    0.0032106100   -0.0003513900
   0.0049423600   -0.0028005500    0.0004672100
   0.0049845700   -0.0027361800    0.0005082400
   0.0049087300   -0.0027965900    0.0004873700
   0.0050056300   -0.0027753800    0.0002029200
   0.0050842300   -0.0027725600    0.0005301000
   0.0050403800   -0.0027306800    0.0004916200
   0.0050251600   -0.0027208300    0.0005106100
   0.0051048700   -0.0027417800    0.0002299200
  -0.1803646500   -0.0037646300   -0.1361150400
   0.0484051900   -0.0030259900   -0.0075707300
   0.0155961400   -0.0219587300   -0.0076338800
   0.0156888200    0.0158789700   -0.0075235300
  -0.0027115000   -0.0029954800    0.0000469600
  -0.0027095400   -0.0029952200    0.0000063500
  -0.0027103700   -0.0029948900    0.0000064500
  -0.0027097500   -0.0029950400    0.0000065300
  -0.0050736900    0.0026106800   -0.0000274400
  -0.0048867100    0.0026372900    0.0000510800
  -0.0050023800    0.0024617700    0.0000054200
  -0.0049635500    0.0025673100   -0.0000755900
  -0.0048436700    0.0025353400    0.0000790200
  -0.0050277100    0.0025587400    0.0000289200
  -0.0049568800    0.0027054700    0.0000495900
  -0.0049064100    0.0026025600   -0.0000301700

17   
 -0.0031634892689234   0.0000001425852877  -0.0094864290238780
   0.0031601100    0.0031907800   -0.0119397500
  -0.0218882000    0.0037965500   -0.0484363800
  -0.0636249100   -0.0208766400   -0.0487978400
  -0.0637358900    0.0273805100   -0.0480335000
  -0.0138105100    0.0031837700    0.0002162200
  -0.0138105700    0.0031834300    0.0002121600
  -0.0138113600    0.0031833000    0.0002095400
  -0.0138106900    0.0031833000    0.0002153400
   0.0048551400   -0.0026975800   -0.0003324600
   0.0048073300   -0.0027261400   -0.0003720000
   0.0048562500   -0.0026756000   -0.0003516900
   0.0047884700   -0.0026984300   -0.0000708100
   0.0048814000   -0.0025236800   -0.0004039100
   0.0049239000   -0.0025951100   -0.0003606400
   0.0049626400   -0.0025900600   -0.0003815700
   0.0048615900   -0.0025675800   -0.0000968000
   0.1910342700   -0.0038183800    0.1362668600
  -0.0377507300   -0.0029978400    0.0075803100
  -0.0050236900    0.0159114700    0.0075157600
  -0.0049264300   -0.0219391600    0.0076612900
   0.0133795700   -0.0029351500   -0.0000388700
   0.0133804300   -0.0029363400    0.0000019600
   0.0133798700   -0.0029362400    0.0000015400
   0.0133794400   -0.0029360700    0.0000016500
  -0.0042263100    0.0024474400   -0.0000429600
  -0.0044096900    0.0024263600   -0.0000761200
  -0.0042993600    0.0025922800   -0.0000556300
  -0.0043541900    0.0024897600    0.0000229000
  -0.0043873800    0.0024386800   -0.0000986400
  -0.0042013400    0.0024099200   -0.0000061500
  -0.0042711600    0.0022633700   -0.0000466400
  -0.0043079900    0.0023690900    0.0000368400
