mesh: [     9,     9,     4 ]
nqpoint: 50     
reciprocal_lattice:
- [   0.40533564,   0.23404500,   0.00000000 ] # a*
- [   0.00002110,   0.46805346,   0.00000000 ] # b*
- [   0.00000000,   0.00000000,   0.13516588 ] # c*
natom:   4      
lattice:
- [     2.467155442383188,    -0.000111200019553,     0.000000000000000 ] # a
- [    -1.233674023183305,     2.136563688137034,     0.000000000000000 ] # b
- [     0.000000000000000,     0.000000000000000,     7.398316544000000 ] # c
points:
- symbol: C  # 1
  coordinates: [  0.999999697166835,  0.000000349172772,  0.250000000000000 ]
  mass: 12.010700
- symbol: C  # 2
  coordinates: [  0.000000349172772,  0.999999697166835,  0.750000000000000 ]
  mass: 12.010700
- symbol: C  # 3
  coordinates: [  0.333298929956719,  0.666701052703672,  0.250000000000000 ]
  mass: 12.010700
- symbol: C  # 4
  coordinates: [  0.666701052703672,  0.333298929956719,  0.750000000000000 ]
  mass: 12.010700
phonon:
- q-position: [    0.0000000,    0.0000000,    0.1250000 ]
  weight: 2    
  band:
  - # 1
    frequency:   -35.0648803687
  - # 2
    frequency:   -35.0645054879
  - # 3
    frequency:   -34.9833638492
  - # 4
    frequency:   -34.9813308640
  - # 5
    frequency:     0.1203226740
  - # 6
    frequency:     0.1204090640
  - # 7
    frequency:     0.4562034763
  - # 8
    frequency:     0.6157842036
  - # 9
    frequency:     0.6230193772
  - # 10
    frequency:     2.1852931602
  - # 11
    frequency:    18.3456936911
  - # 12
    frequency:    18.3463714693

- q-position: [    0.1111111,    0.0000000,    0.1250000 ]
  weight: 8    
  band:
  - # 1
    frequency:   -34.1399769124
  - # 2
    frequency:   -34.0654314872
  - # 3
    frequency:   -33.6308268957
  - # 4
    frequency:   -33.5536075420
  - # 5
    frequency:    -4.4022209715
  - # 6
    frequency:    -4.4001423468
  - # 7
    frequency:     4.9095356130
  - # 8
    frequency:     5.3039348279
  - # 9
    frequency:     6.3632387243
  - # 10
    frequency:     6.3898649560
  - # 11
    frequency:    17.9872490592
  - # 12
    frequency:    17.9949179107

- q-position: [    0.2222222,    0.0000000,    0.1250000 ]
  weight: 8    
  band:
  - # 1
    frequency:   -31.6612765022
  - # 2
    frequency:   -31.6087295969
  - # 3
    frequency:   -29.6807691379
  - # 4
    frequency:   -29.6185467748
  - # 5
    frequency:    -8.3808517552
  - # 6
    frequency:    -8.3301438922
  - # 7
    frequency:     9.2030442839
  - # 8
    frequency:     9.3458765953
  - # 9
    frequency:    11.9220187288
  - # 10
    frequency:    11.9358886828
  - # 11
    frequency:    17.0516427670
  - # 12
    frequency:    17.0622963641

- q-position: [    0.3333333,    0.0000000,    0.1250000 ]
  weight: 8    
  band:
  - # 1
    frequency:   -28.5380053711
  - # 2
    frequency:   -28.5093981994
  - # 3
    frequency:   -24.3720923754
  - # 4
    frequency:   -24.3347184747
  - # 5
    frequency:   -11.4695825442
  - # 6
    frequency:   -11.3953108446
  - # 7
    frequency:    12.4137722484
  - # 8
    frequency:    12.4548757261
  - # 9
    frequency:    15.9100355482
  - # 10
    frequency:    15.9168407031
  - # 11
    frequency:    16.0006815081
  - # 12
    frequency:    16.0132527183

- q-position: [    0.4444444,    0.0000000,    0.1250000 ]
  weight: 8    
  band:
  - # 1
    frequency:   -26.2583976164
  - # 2
    frequency:   -26.2346882047
  - # 3
    frequency:   -20.0327634424
  - # 4
    frequency:   -19.9572368197
  - # 5
    frequency:   -13.3995426377
  - # 6
    frequency:   -13.3158244826
  - # 7
    frequency:    14.2238409540
  - # 8
    frequency:    14.2351958032
  - # 9
    frequency:    15.0092402164
  - # 10
    frequency:    15.0263164638
  - # 11
    frequency:    18.1428641757
  - # 12
    frequency:    18.1563827572

- q-position: [    0.1111111,    0.1111111,    0.1250000 ]
  weight: 4    
  band:
  - # 1
    frequency:   -32.4468500592
  - # 2
    frequency:   -32.3929561539
  - # 3
    frequency:   -30.8752073338
  - # 4
    frequency:   -30.8110518705
  - # 5
    frequency:     5.0764383876
  - # 6
    frequency:     5.1095414346
  - # 7
    frequency:     5.3678212917
  - # 8
    frequency:     5.4118065418
  - # 9
    frequency:     8.6046575127
  - # 10
    frequency:     8.7720481522
  - # 11
    frequency:    17.1230085132
  - # 12
    frequency:    17.1259990189

- q-position: [    0.2222222,    0.1111111,    0.1250000 ]
  weight: 8    
  band:
  - # 1
    frequency:   -29.7059289212
  - # 2
    frequency:   -29.6796814514
  - # 3
    frequency:   -26.4372727397
  - # 4
    frequency:   -26.3938455083
  - # 5
    frequency:    -2.9393769351
  - # 6
    frequency:    -2.7274212792
  - # 7
    frequency:    11.5878551769
  - # 8
    frequency:    11.6170351931
  - # 9
    frequency:    11.9221211490
  - # 10
    frequency:    11.9811838086
  - # 11
    frequency:    15.9647117894
  - # 12
    frequency:    15.9681864713

- q-position: [    0.3333333,    0.1111111,    0.1250000 ]
  weight: 8    
  band:
  - # 1
    frequency:   -27.0139766479
  - # 2
    frequency:   -26.9992331070
  - # 3
    frequency:   -21.9556296846
  - # 4
    frequency:   -21.9156620241
  - # 5
    frequency:    -7.7958636496
  - # 6
    frequency:    -7.6905393186
  - # 7
    frequency:    14.0838936551
  - # 8
    frequency:    14.0932731449
  - # 9
    frequency:    14.9900277284
  - # 10
    frequency:    14.9971539678
  - # 11
    frequency:    15.8770434160
  - # 12
    frequency:    15.9001455000

- q-position: [   -0.5555556,    0.1111111,    0.1250000 ]
  weight: 8    
  band:
  - # 1
    frequency:   -25.7530341803
  - # 2
    frequency:   -25.7310057303
  - # 3
    frequency:   -18.8316140795
  - # 4
    frequency:   -18.7569905779
  - # 5
    frequency:   -12.5182491763
  - # 6
    frequency:   -12.4399430623
  - # 7
    frequency:    14.3904429426
  - # 8
    frequency:    14.4087978847
  - # 9
    frequency:    15.0226654286
  - # 10
    frequency:    15.0457565984
  - # 11
    frequency:    18.0273352553
  - # 12
    frequency:    18.0427730551

- q-position: [   -0.4444444,    0.1111111,    0.1250000 ]
  weight: 8    
  band:
  - # 1
    frequency:   -26.8219735748
  - # 2
    frequency:   -26.7950515616
  - # 3
    frequency:   -20.0216612863
  - # 4
    frequency:   -19.9957127394
  - # 5
    frequency:   -14.8361491731
  - # 6
    frequency:   -14.7702568771
  - # 7
    frequency:    13.2194843526
  - # 8
    frequency:    13.2354424164
  - # 9
    frequency:    15.7500012950
  - # 10
    frequency:    15.7669484440
  - # 11
    frequency:    17.8832469560
  - # 12
    frequency:    17.8974850167

- q-position: [   -0.3333333,    0.1111111,    0.1250000 ]
  weight: 8    
  band:
  - # 1
    frequency:   -29.5555768926
  - # 2
    frequency:   -29.5073380689
  - # 3
    frequency:   -26.1675669575
  - # 4
    frequency:   -26.1067552604
  - # 5
    frequency:   -11.7985686188
  - # 6
    frequency:   -11.7488653968
  - # 7
    frequency:    10.6699593138
  - # 8
    frequency:    10.7622471118
  - # 9
    frequency:    15.5129008672
  - # 10
    frequency:    15.5291226646
  - # 11
    frequency:    16.8105503010
  - # 12
    frequency:    16.8306275992

- q-position: [   -0.2222222,    0.1111111,    0.1250000 ]
  weight: 8    
  band:
  - # 1
    frequency:   -32.3621904365
  - # 2
    frequency:   -32.2909070119
  - # 3
    frequency:   -31.2385047050
  - # 4
    frequency:   -31.1636727670
  - # 5
    frequency:    -7.3473208351
  - # 6
    frequency:    -7.2945024349
  - # 7
    frequency:     7.1142986707
  - # 8
    frequency:     7.3534675253
  - # 9
    frequency:    11.1608227779
  - # 10
    frequency:    11.1688629693
  - # 11
    frequency:    17.7769058784
  - # 12
    frequency:    17.7982971415

- q-position: [   -0.1111111,    0.1111111,    0.1250000 ]
  weight: 4    
  band:
  - # 1
    frequency:   -34.0265685265
  - # 2
    frequency:   -33.9403918215
  - # 3
    frequency:   -33.9247864598
  - # 4
    frequency:   -33.8490106213
  - # 5
    frequency:    -1.6064359469
  - # 6
    frequency:    -1.0698567556
  - # 7
    frequency:     3.8751879111
  - # 8
    frequency:     4.3897571675
  - # 9
    frequency:     5.8786468296
  - # 10
    frequency:     5.9333780574
  - # 11
    frequency:    18.2306605282
  - # 12
    frequency:    18.2468901305

- q-position: [    0.2222222,    0.2222222,    0.1250000 ]
  weight: 4    
  band:
  - # 1
    frequency:   -27.3869682682
  - # 2
    frequency:   -27.3864915336
  - # 3
    frequency:   -22.5806263293
  - # 4
    frequency:   -22.5584994927
  - # 5
    frequency:     7.3606745635
  - # 6
    frequency:     7.3877001976
  - # 7
    frequency:    12.4457202178
  - # 8
    frequency:    12.4756378500
  - # 9
    frequency:    14.0281031269
  - # 10
    frequency:    14.0406869506
  - # 11
    frequency:    14.9814277169
  - # 12
    frequency:    14.9831588984

- q-position: [    0.3333333,    0.2222222,    0.1250000 ]
  weight: 8    
  band:
  - # 1
    frequency:   -25.6174670641
  - # 2
    frequency:   -25.6010602165
  - # 3
    frequency:   -19.2816501260
  - # 4
    frequency:   -19.2586629294
  - # 5
    frequency:    -3.3976009267
  - # 6
    frequency:    -3.2424113033
  - # 7
    frequency:    14.5152540743
  - # 8
    frequency:    14.5259352977
  - # 9
    frequency:    15.0276136794
  - # 10
    frequency:    15.0409709885
  - # 11
    frequency:    15.8495281088
  - # 12
    frequency:    15.8671391325

- q-position: [   -0.5555556,    0.2222222,    0.1250000 ]
  weight: 8    
  band:
  - # 1
    frequency:   -25.2715424025
  - # 2
    frequency:   -25.2476638737
  - # 3
    frequency:   -16.7087296784
  - # 4
    frequency:   -16.6664595361
  - # 5
    frequency:   -13.1914607951
  - # 6
    frequency:   -13.1221789348
  - # 7
    frequency:    14.0894040373
  - # 8
    frequency:    14.1012290623
  - # 9
    frequency:    15.4216246670
  - # 10
    frequency:    15.4457690846
  - # 11
    frequency:    17.3948088961
  - # 12
    frequency:    17.4097348466

- q-position: [   -0.4444444,    0.2222222,    0.1250000 ]
  weight: 8    
  band:
  - # 1
    frequency:   -26.7514638829
  - # 2
    frequency:   -26.7122837162
  - # 3
    frequency:   -20.8348931507
  - # 4
    frequency:   -20.7584861016
  - # 5
    frequency:   -13.6881743260
  - # 6
    frequency:   -13.6453465306
  - # 7
    frequency:    12.4059037772
  - # 8
    frequency:    12.4544377309
  - # 9
    frequency:    16.3247172320
  - # 10
    frequency:    16.3507585100
  - # 11
    frequency:    16.8409567621
  - # 12
    frequency:    16.8590926792

- q-position: [   -0.3333333,    0.2222222,    0.1250000 ]
  weight: 8    
  band:
  - # 1
    frequency:   -29.1078498192
  - # 2
    frequency:   -29.0437882721
  - # 3
    frequency:   -26.9604828577
  - # 4
    frequency:   -26.8856596708
  - # 5
    frequency:    -9.3989771896
  - # 6
    frequency:    -9.2939706870
  - # 7
    frequency:     9.8227222981
  - # 8
    frequency:     9.9526772670
  - # 9
    frequency:    14.2910039180
  - # 10
    frequency:    14.3124831318
  - # 11
    frequency:    17.3050201884
  - # 12
    frequency:    17.3358448565

- q-position: [   -0.2222222,    0.2222222,    0.1250000 ]
  weight: 4    
  band:
  - # 1
    frequency:   -31.0373485246
  - # 2
    frequency:   -30.9381223319
  - # 3
    frequency:   -30.7866296871
  - # 4
    frequency:   -30.7316869014
  - # 5
    frequency:    -4.6133817208
  - # 6
    frequency:    -4.3008906269
  - # 7
    frequency:     7.4449248504
  - # 8
    frequency:     7.6725292480
  - # 9
    frequency:    10.8673060357
  - # 10
    frequency:    10.9252981336
  - # 11
    frequency:    17.8686987410
  - # 12
    frequency:    17.8978953889

- q-position: [   -0.6666667,    0.3333333,    0.1250000 ]
  weight: 4    
  band:
  - # 1
    frequency:   -24.6180745835
  - # 2
    frequency:   -24.5948955372
  - # 3
    frequency:   -17.2050641929
  - # 4
    frequency:   -17.1781190841
  - # 5
    frequency:    -7.2957615258
  - # 6
    frequency:    -7.1533461572
  - # 7
    frequency:    14.7421294537
  - # 8
    frequency:    14.7507225721
  - # 9
    frequency:    14.9906272491
  - # 10
    frequency:    14.9949577345
  - # 11
    frequency:    16.0561121156
  - # 12
    frequency:    16.0561740460

- q-position: [   -0.5555556,    0.3333333,    0.1250000 ]
  weight: 8    
  band:
  - # 1
    frequency:   -24.4076946021
  - # 2
    frequency:   -24.3801710472
  - # 3
    frequency:   -16.5746951173
  - # 4
    frequency:   -16.4980970751
  - # 5
    frequency:   -13.6276112310
  - # 6
    frequency:   -13.5261706296
  - # 7
    frequency:    13.9025753994
  - # 8
    frequency:    13.9348408604
  - # 9
    frequency:    15.5813351112
  - # 10
    frequency:    15.6048987769
  - # 11
    frequency:    16.3030069935
  - # 12
    frequency:    16.3131367868

- q-position: [   -0.4444444,    0.3333333,    0.1250000 ]
  weight: 8    
  band:
  - # 1
    frequency:   -25.3331547802
  - # 2
    frequency:   -25.2914951840
  - # 3
    frequency:   -21.7451136699
  - # 4
    frequency:   -21.6486893548
  - # 5
    frequency:   -12.5380475940
  - # 6
    frequency:   -12.3975742383
  - # 7
    frequency:    12.1815380116
  - # 8
    frequency:    12.2568038574
  - # 9
    frequency:    15.7530347962
  - # 10
    frequency:    15.7809988647
  - # 11
    frequency:    16.5364431894
  - # 12
    frequency:    16.5684721932

- q-position: [   -0.3333333,    0.3333333,    0.1250000 ]
  weight: 4    
  band:
  - # 1
    frequency:   -26.6017655950
  - # 2
    frequency:   -26.5755458736
  - # 3
    frequency:   -26.4615792728
  - # 4
    frequency:   -26.3422975180
  - # 5
    frequency:    -9.1793016039
  - # 6
    frequency:    -8.9559996917
  - # 7
    frequency:    10.4944904312
  - # 8
    frequency:    10.6135621958
  - # 9
    frequency:    14.2855556851
  - # 10
    frequency:    14.3387985645
  - # 11
    frequency:    17.2003473583
  - # 12
    frequency:    17.2355343282

- q-position: [   -0.5555556,    0.4444444,    0.1250000 ]
  weight: 4    
  band:
  - # 1
    frequency:   -23.3414718227
  - # 2
    frequency:   -23.3261966286
  - # 3
    frequency:   -16.8344360935
  - # 4
    frequency:   -16.7708448092
  - # 5
    frequency:   -16.6526590304
  - # 6
    frequency:   -16.6501777231
  - # 7
    frequency:    13.3652892001
  - # 8
    frequency:    13.4301661540
  - # 9
    frequency:    15.9207208821
  - # 10
    frequency:    15.9461241536
  - # 11
    frequency:    16.0446327705
  - # 12
    frequency:    16.0452587911

- q-position: [   -0.4444444,    0.4444444,    0.1250000 ]
  weight: 4    
  band:
  - # 1
    frequency:   -23.3047491462
  - # 2
    frequency:   -23.2996174937
  - # 3
    frequency:   -20.8870313271
  - # 4
    frequency:   -20.7389244771
  - # 5
    frequency:   -14.7476185774
  - # 6
    frequency:   -14.5797951990
  - # 7
    frequency:    12.6170513196
  - # 8
    frequency:    12.6981493497
  - # 9
    frequency:    15.9001336922
  - # 10
    frequency:    15.9234129187
  - # 11
    frequency:    16.3490966480
  - # 12
    frequency:    16.3796944526

- q-position: [    0.0000000,    0.0000000,    0.3750000 ]
  weight: 2    
  band:
  - # 1
    frequency:   -35.0447846376
  - # 2
    frequency:   -35.0447622163
  - # 3
    frequency:   -35.0110230611
  - # 4
    frequency:   -35.0103146947
  - # 5
    frequency:     0.3442448758
  - # 6
    frequency:     0.3451380238
  - # 7
    frequency:     0.5192040500
  - # 8
    frequency:     0.5233451674
  - # 9
    frequency:     1.2815781078
  - # 10
    frequency:     1.8800046796
  - # 11
    frequency:    18.3458445209
  - # 12
    frequency:    18.3461223419

- q-position: [    0.1111111,    0.0000000,    0.3750000 ]
  weight: 8    
  band:
  - # 1
    frequency:   -34.1222814428
  - # 2
    frequency:   -34.0914080332
  - # 3
    frequency:   -33.6118989387
  - # 4
    frequency:   -33.5799162343
  - # 5
    frequency:    -4.4032912170
  - # 6
    frequency:    -4.4024324826
  - # 7
    frequency:     5.0369658771
  - # 8
    frequency:     5.1999682527
  - # 9
    frequency:     6.3702682311
  - # 10
    frequency:     6.3813041454
  - # 11
    frequency:    17.9894903294
  - # 12
    frequency:    17.9926658666

- q-position: [    0.2222222,    0.0000000,    0.3750000 ]
  weight: 8    
  band:
  - # 1
    frequency:   -31.6489930235
  - # 2
    frequency:   -31.6272299786
  - # 3
    frequency:   -29.6657297415
  - # 4
    frequency:   -29.6399585151
  - # 5
    frequency:    -8.3685611682
  - # 6
    frequency:    -8.3475646052
  - # 7
    frequency:     9.2486266899
  - # 8
    frequency:     9.3077730697
  - # 9
    frequency:    11.9251203758
  - # 10
    frequency:    11.9308696726
  - # 11
    frequency:    17.0548728689
  - # 12
    frequency:    17.0592850420

- q-position: [    0.3333333,    0.0000000,    0.3750000 ]
  weight: 8    
  band:
  - # 1
    frequency:   -28.5313918831
  - # 2
    frequency:   -28.5195435882
  - # 3
    frequency:   -24.3638223372
  - # 4
    frequency:   -24.3483421168
  - # 5
    frequency:   -11.4506747446
  - # 6
    frequency:   -11.4199179208
  - # 7
    frequency:    12.4274425931
  - # 8
    frequency:    12.4444678278
  - # 9
    frequency:    15.9121684399
  - # 10
    frequency:    15.9149875939
  - # 11
    frequency:    16.0032899651
  - # 12
    frequency:    16.0084918823

- q-position: [    0.4444444,    0.0000000,    0.3750000 ]
  weight: 8    
  band:
  - # 1
    frequency:   -26.2521850926
  - # 2
    frequency:   -26.2423648908
  - # 3
    frequency:   -20.0137400395
  - # 4
    frequency:   -19.9824538171
  - # 5
    frequency:   -13.3768433052
  - # 6
    frequency:   -13.3421664188
  - # 7
    frequency:    14.2281075158
  - # 8
    frequency:    14.2328256970
  - # 9
    frequency:    15.0144744475
  - # 10
    frequency:    15.0215317695
  - # 11
    frequency:    18.1455250646
  - # 12
    frequency:    18.1511213739

- q-position: [    0.1111111,    0.1111111,    0.3750000 ]
  weight: 4    
  band:
  - # 1
    frequency:   -32.4345852343
  - # 2
    frequency:   -32.4122640013
  - # 3
    frequency:   -30.8596590336
  - # 4
    frequency:   -30.8330878001
  - # 5
    frequency:     5.0792882214
  - # 6
    frequency:     5.0930241277
  - # 7
    frequency:     5.3799355862
  - # 8
    frequency:     5.3981625488
  - # 9
    frequency:     8.6580604354
  - # 10
    frequency:     8.7273714786
  - # 11
    frequency:    17.1240155147
  - # 12
    frequency:    17.1252488580

- q-position: [    0.2222222,    0.1111111,    0.3750000 ]
  weight: 8    
  band:
  - # 1
    frequency:   -29.7005411230
  - # 2
    frequency:   -29.6896703781
  - # 3
    frequency:   -26.4273109518
  - # 4
    frequency:   -26.4093246247
  - # 5
    frequency:    -2.8887108724
  - # 6
    frequency:    -2.8012753887
  - # 7
    frequency:    11.5937031802
  - # 8
    frequency:    11.6057905249
  - # 9
    frequency:    11.9414057827
  - # 10
    frequency:    11.9658721531
  - # 11
    frequency:    15.9659848686
  - # 12
    frequency:    15.9674197955

- q-position: [    0.3333333,    0.1111111,    0.3750000 ]
  weight: 8    
  band:
  - # 1
    frequency:   -27.0107317097
  - # 2
    frequency:   -27.0046259065
  - # 3
    frequency:   -21.9465403956
  - # 4
    frequency:   -21.9299844756
  - # 5
    frequency:    -7.7683365567
  - # 6
    frequency:    -7.7247228224
  - # 7
    frequency:    14.0878643517
  - # 8
    frequency:    14.0917397509
  - # 9
    frequency:    14.9921824949
  - # 10
    frequency:    14.9951297051
  - # 11
    frequency:    15.8817604500
  - # 12
    frequency:    15.8913277280

- q-position: [   -0.5555556,    0.1111111,    0.3750000 ]
  weight: 8    
  band:
  - # 1
    frequency:   -25.7470861795
  - # 2
    frequency:   -25.7379620096
  - # 3
    frequency:   -18.8127563028
  - # 4
    frequency:   -18.7818451409
  - # 5
    frequency:   -12.4966398471
  - # 6
    frequency:   -12.4642004799
  - # 7
    frequency:    14.3966413992
  - # 8
    frequency:    14.4042659292
  - # 9
    frequency:    15.0296445706
  - # 10
    frequency:    15.0391911833
  - # 11
    frequency:    18.0304800219
  - # 12
    frequency:    18.0368725059

- q-position: [   -0.4444444,    0.1111111,    0.3750000 ]
  weight: 8    
  band:
  - # 1
    frequency:   -26.8151044264
  - # 2
    frequency:   -26.8039530886
  - # 3
    frequency:   -20.0163648877
  - # 4
    frequency:   -20.0056152832
  - # 5
    frequency:   -14.8187139669
  - # 6
    frequency:   -14.7914213057
  - # 7
    frequency:    13.2253088906
  - # 8
    frequency:    13.2319158580
  - # 9
    frequency:    15.7551828289
  - # 10
    frequency:    15.7622003650
  - # 11
    frequency:    17.8866825369
  - # 12
    frequency:    17.8925808991

- q-position: [   -0.3333333,    0.1111111,    0.3750000 ]
  weight: 8    
  band:
  - # 1
    frequency:   -29.5436362315
  - # 2
    frequency:   -29.5236565715
  - # 3
    frequency:   -26.1524768082
  - # 4
    frequency:   -26.1272900889
  - # 5
    frequency:   -11.7853509409
  - # 6
    frequency:   -11.7647659022
  - # 7
    frequency:    10.6995206696
  - # 8
    frequency:    10.7377401412
  - # 9
    frequency:    15.5174379249
  - # 10
    frequency:    15.5241603210
  - # 11
    frequency:    16.8165092932
  - # 12
    frequency:    16.8248254169

- q-position: [   -0.2222222,    0.1111111,    0.3750000 ]
  weight: 8    
  band:
  - # 1
    frequency:   -32.3445775465
  - # 2
    frequency:   -32.3150557399
  - # 3
    frequency:   -31.2200471784
  - # 4
    frequency:   -31.1890506534
  - # 5
    frequency:    -7.3320204904
  - # 6
    frequency:    -7.3101494963
  - # 7
    frequency:     7.1904874201
  - # 8
    frequency:     7.2894740466
  - # 9
    frequency:    11.1633128431
  - # 10
    frequency:    11.1666473721
  - # 11
    frequency:    17.7831305841
  - # 12
    frequency:    17.7919900187

- q-position: [   -0.1111111,    0.1111111,    0.3750000 ]
  weight: 4    
  band:
  - # 1
    frequency:   -34.0048513208
  - # 2
    frequency:   -33.9691594584
  - # 3
    frequency:   -33.9068823605
  - # 4
    frequency:   -33.8754985226
  - # 5
    frequency:    -1.4681970477
  - # 6
    frequency:    -1.2493223707
  - # 7
    frequency:     4.0439639107
  - # 8
    frequency:     4.2562011043
  - # 9
    frequency:     5.8949235149
  - # 10
    frequency:     5.9175924751
  - # 11
    frequency:    18.2353433364
  - # 12
    frequency:    18.2420646770

- q-position: [    0.2222222,    0.2222222,    0.3750000 ]
  weight: 4    
  band:
  - # 1
    frequency:   -27.3880577966
  - # 2
    frequency:   -27.3878610803
  - # 3
    frequency:   -22.5766372392
  - # 4
    frequency:   -22.5674725006
  - # 5
    frequency:     7.3688876900
  - # 6
    frequency:     7.3800787149
  - # 7
    frequency:    12.4494613007
  - # 8
    frequency:    12.4618541588
  - # 9
    frequency:    14.0331468543
  - # 10
    frequency:    14.0383446541
  - # 11
    frequency:    14.9819564545
  - # 12
    frequency:    14.9826866201

- q-position: [    0.3333333,    0.2222222,    0.3750000 ]
  weight: 8    
  band:
  - # 1
    frequency:   -25.6131146548
  - # 2
    frequency:   -25.6063185578
  - # 3
    frequency:   -19.2771930600
  - # 4
    frequency:   -19.2676704225
  - # 5
    frequency:    -3.3532009345
  - # 6
    frequency:    -3.2889183903
  - # 7
    frequency:    14.5194956186
  - # 8
    frequency:    14.5239418597
  - # 9
    frequency:    15.0313592212
  - # 10
    frequency:    15.0368723651
  - # 11
    frequency:    15.8521028743
  - # 12
    frequency:    15.8593979008

- q-position: [   -0.5555556,    0.2222222,    0.3750000 ]
  weight: 8    
  band:
  - # 1
    frequency:   -25.2649344656
  - # 2
    frequency:   -25.2550434924
  - # 3
    frequency:   -16.6978892482
  - # 4
    frequency:   -16.6803818132
  - # 5
    frequency:   -13.1720863506
  - # 6
    frequency:   -13.1433817512
  - # 7
    frequency:    14.0935954437
  - # 8
    frequency:    14.0984983028
  - # 9
    frequency:    15.4289420941
  - # 10
    frequency:    15.4389400966
  - # 11
    frequency:    17.3979995002
  - # 12
    frequency:    17.4041838782

- q-position: [   -0.4444444,    0.2222222,    0.3750000 ]
  weight: 8    
  band:
  - # 1
    frequency:   -26.7411027701
  - # 2
    frequency:   -26.7248735987
  - # 3
    frequency:   -20.8140253888
  - # 4
    frequency:   -20.7823803393
  - # 5
    frequency:   -13.6762985410
  - # 6
    frequency:   -13.6585614210
  - # 7
    frequency:    12.4215950940
  - # 8
    frequency:    12.4416962033
  - # 9
    frequency:    16.3324224973
  - # 10
    frequency:    16.3432093448
  - # 11
    frequency:    16.8460387718
  - # 12
    frequency:    16.8535521054

- q-position: [   -0.3333333,    0.2222222,    0.3750000 ]
  weight: 8    
  band:
  - # 1
    frequency:   -29.0911874526
  - # 2
    frequency:   -29.0646550606
  - # 3
    frequency:   -26.9410683729
  - # 4
    frequency:   -26.9100760523
  - # 5
    frequency:    -9.3673444931
  - # 6
    frequency:    -9.3238522343
  - # 7
    frequency:     9.8638870572
  - # 8
    frequency:     9.9176987655
  - # 9
    frequency:    14.2976391346
  - # 10
    frequency:    14.3065309072
  - # 11
    frequency:    17.3139884880
  - # 12
    frequency:    17.3267557732

- q-position: [   -0.2222222,    0.2222222,    0.3750000 ]
  weight: 4    
  band:
  - # 1
    frequency:   -31.0110731834
  - # 2
    frequency:   -30.9699759274
  - # 3
    frequency:   -30.7738562419
  - # 4
    frequency:   -30.7510993797
  - # 5
    frequency:    -4.5211180781
  - # 6
    frequency:    -4.3916607924
  - # 7
    frequency:     7.5172214057
  - # 8
    frequency:     7.6114269907
  - # 9
    frequency:    10.8848457275
  - # 10
    frequency:    10.9088634652
  - # 11
    frequency:    17.8771419070
  - # 12
    frequency:    17.8892341179

- q-position: [   -0.6666667,    0.3333333,    0.3750000 ]
  weight: 4    
  band:
  - # 1
    frequency:   -24.6114085234
  - # 2
    frequency:   -24.6018072494
  - # 3
    frequency:   -17.1984286705
  - # 4
    frequency:   -17.1872733486
  - # 5
    frequency:    -7.2525856419
  - # 6
    frequency:    -7.1935827142
  - # 7
    frequency:    14.7455968350
  - # 8
    frequency:    14.7492548946
  - # 9
    frequency:    14.9916733827
  - # 10
    frequency:    14.9935644777
  - # 11
    frequency:    16.0538107955
  - # 12
    frequency:    16.0538422839

- q-position: [   -0.5555556,    0.3333333,    0.3750000 ]
  weight: 8    
  band:
  - # 1
    frequency:   -24.3998272330
  - # 2
    frequency:   -24.3884256314
  - # 3
    frequency:   -16.5521462246
  - # 4
    frequency:   -16.5204212093
  - # 5
    frequency:   -13.5979606289
  - # 6
    frequency:   -13.5559475535
  - # 7
    frequency:    13.9128349498
  - # 8
    frequency:    13.9262005582
  - # 9
    frequency:    15.5884340420
  - # 10
    frequency:    15.5981956857
  - # 11
    frequency:    16.3048121885
  - # 12
    frequency:    16.3090078647

- q-position: [   -0.4444444,    0.3333333,    0.3750000 ]
  weight: 8    
  band:
  - # 1
    frequency:   -25.3217112921
  - # 2
    frequency:   -25.3044550869
  - # 3
    frequency:   -21.7178684739
  - # 4
    frequency:   -21.6779294131
  - # 5
    frequency:   -12.4959072818
  - # 6
    frequency:   -12.4377214191
  - # 7
    frequency:    12.2051964170
  - # 8
    frequency:    12.2363704525
  - # 9
    frequency:    15.7611483270
  - # 10
    frequency:    15.7727287824
  - # 11
    frequency:    16.5458319293
  - # 12
    frequency:    16.5591000496

- q-position: [   -0.3333333,    0.3333333,    0.3750000 ]
  weight: 4    
  band:
  - # 1
    frequency:   -26.5958847591
  - # 2
    frequency:   -26.5850236277
  - # 3
    frequency:   -26.4283127237
  - # 4
    frequency:   -26.3789072588
  - # 5
    frequency:    -9.1120811498
  - # 6
    frequency:    -9.0195690918
  - # 7
    frequency:    10.5319898376
  - # 8
    frequency:    10.5812981967
  - # 9
    frequency:    14.3015727114
  - # 10
    frequency:    14.3236242891
  - # 11
    frequency:    17.2105599176
  - # 12
    frequency:    17.2251346737

- q-position: [   -0.5555556,    0.4444444,    0.3750000 ]
  weight: 4    
  band:
  - # 1
    frequency:   -23.3369761037
  - # 2
    frequency:   -23.3306481086
  - # 3
    frequency:   -16.7893163656
  - # 4
    frequency:   -16.7527921282
  - # 5
    frequency:   -16.6879198579
  - # 6
    frequency:   -16.6767053502
  - # 7
    frequency:    13.3853707326
  - # 8
    frequency:    13.4122473271
  - # 9
    frequency:    15.9282582708
  - # 10
    frequency:    15.9387845653
  - # 11
    frequency:    16.0443018295
  - # 12
    frequency:    16.0445613900

- q-position: [   -0.4444444,    0.4444444,    0.3750000 ]
  weight: 4    
  band:
  - # 1
    frequency:   -23.3035531946
  - # 2
    frequency:   -23.3014276134
  - # 3
    frequency:   -20.8439701958
  - # 4
    frequency:   -20.7826201395
  - # 5
    frequency:   -14.6975272363
  - # 6
    frequency:   -14.6280091493
  - # 7
    frequency:    12.6422401530
  - # 8
    frequency:    12.6758328320
  - # 9
    frequency:    15.9069847146
  - # 10
    frequency:    15.9166270293
  - # 11
    frequency:    16.3580680385
  - # 12
    frequency:    16.3707452968

