# Thermal properties / unit cell (natom)

unit:
  temperature:   K
  free_energy:   kJ/mol
  entropy:       J/K/mol
  heat_capacity: J/K/mol

natom:     4
num_modes: 3888
num_integrated_modes: 1984

zero_point_energy:      16.8783851
high_T_entropy:        149.2579304

thermal_properties:
- temperature:         0.0000000
  free_energy:        16.8783851
  entropy:             0.0000000
  heat_capacity:       0.0000000
  energy:             16.8783851

- temperature:        10.0000000
  free_energy:        16.8771179
  entropy:             0.2970043
  heat_capacity:       0.3357353
  energy:             16.8800879

- temperature:        20.0000000
  free_energy:        16.8726628
  entropy:             0.5769429
  heat_capacity:       0.4685222
  energy:             16.8842016

- temperature:        30.0000000
  free_energy:        16.8658109
  entropy:             0.7870406
  heat_capacity:       0.5869328
  energy:             16.8894221

- temperature:        40.0000000
  free_energy:        16.8569615
  entropy:             0.9845723
  heat_capacity:       0.8228092
  energy:             16.8963444

- temperature:        50.0000000
  free_energy:        16.8460331
  entropy:             1.2073440
  heat_capacity:       1.2140179
  energy:             16.9064003

- temperature:        60.0000000
  free_energy:        16.8326662
  entropy:             1.4743634
  heat_capacity:       1.7568409
  energy:             16.9211280

- temperature:        70.0000000
  free_energy:        16.8163644
  entropy:             1.7957476
  heat_capacity:       2.4590553
  energy:             16.9420668

- temperature:        80.0000000
  free_energy:        16.7965431
  entropy:             2.1795829
  heat_capacity:       3.3412380
  energy:             16.9709097

- temperature:        90.0000000
  free_energy:        16.7725393
  entropy:             2.6334021
  heat_capacity:       4.4190086
  energy:             17.0095455

- temperature:       100.0000000
  free_energy:        16.7436215
  entropy:             3.1631842
  heat_capacity:       5.6911625
  energy:             17.0599399

- temperature:       110.0000000
  free_energy:        16.7090111
  entropy:             3.7722033
  heat_capacity:       7.1382995
  energy:             17.1239535

- temperature:       120.0000000
  free_energy:        16.6679126
  entropy:             4.4605729
  heat_capacity:       8.7278616
  energy:             17.2031814

- temperature:       130.0000000
  free_energy:        16.6195443
  entropy:             5.2254723
  heat_capacity:      10.4209069
  energy:             17.2988557

- temperature:       140.0000000
  free_energy:        16.5631650
  entropy:             6.0617662
  heat_capacity:      12.1779021
  energy:             17.4118123

- temperature:       150.0000000
  free_energy:        16.4980933
  entropy:             6.9627483
  heat_capacity:      13.9626124
  energy:             17.5425055

- temperature:       160.0000000
  free_energy:        16.4237197
  entropy:             7.9208354
  heat_capacity:      15.7441689
  energy:             17.6910533

- temperature:       170.0000000
  free_energy:        16.3395126
  entropy:             8.9281325
  heat_capacity:      17.4977747
  energy:             17.8572951

- temperature:       180.0000000
  free_energy:        16.2450190
  entropy:             9.9768507
  heat_capacity:      19.2045444
  energy:             18.0408521

- temperature:       190.0000000
  free_energy:        16.1398622
  entropy:            11.0595884
  heat_capacity:      20.8508739
  energy:             18.2411840

- temperature:       200.0000000
  free_energy:        16.0237367
  entropy:            12.1695027
  heat_capacity:      22.4276168
  energy:             18.4576372

- temperature:       210.0000000
  free_energy:        15.8964023
  entropy:            13.3003967
  heat_capacity:      23.9292328
  energy:             18.6894856

- temperature:       220.0000000
  free_energy:        15.7576773
  entropy:            14.4467493
  heat_capacity:      25.3530010
  energy:             18.9359622

- temperature:       230.0000000
  free_energy:        15.6074320
  entropy:            15.6037042
  heat_capacity:      26.6983373
  energy:             19.1962840

- temperature:       240.0000000
  free_energy:        15.4455820
  entropy:            16.7670358
  heat_capacity:      27.9662287
  energy:             19.4696706

- temperature:       250.0000000
  free_energy:        15.2720823
  entropy:            17.9331004
  heat_capacity:      29.1587778
  energy:             19.7553574

- temperature:       260.0000000
  free_energy:        15.0869214
  entropy:            19.0987814
  heat_capacity:      30.2788453
  energy:             20.0526045

- temperature:       270.0000000
  free_energy:        14.8901168
  entropy:            20.2614333
  heat_capacity:      31.3297760
  energy:             20.3607038

- temperature:       280.0000000
  free_energy:        14.6817103
  entropy:            21.4188264
  heat_capacity:      32.3151911
  energy:             20.6789817

- temperature:       290.0000000
  free_energy:        14.4617640
  entropy:            22.5690954
  heat_capacity:      33.2388356
  energy:             21.0068017

- temperature:       300.0000000
  free_energy:        14.2303573
  entropy:            23.7106923
  heat_capacity:      34.1044670
  energy:             21.3435650

- temperature:       310.0000000
  free_energy:        13.9875834
  entropy:            24.8423439
  heat_capacity:      34.9157771
  energy:             21.6887100

- temperature:       320.0000000
  free_energy:        13.7335471
  entropy:            25.9630136
  heat_capacity:      35.6763378
  energy:             22.0417114

- temperature:       330.0000000
  free_energy:        13.4683625
  entropy:            27.0718681
  heat_capacity:      36.3895667
  energy:             22.4020790

- temperature:       340.0000000
  free_energy:        13.1921513
  entropy:            28.1682485
  heat_capacity:      37.0587055
  energy:             22.7693558

- temperature:       350.0000000
  free_energy:        12.9050408
  entropy:            29.2516443
  heat_capacity:      37.6868089
  energy:             23.1431163

- temperature:       360.0000000
  free_energy:        12.6071630
  entropy:            30.3216716
  heat_capacity:      38.2767410
  energy:             23.5229647

- temperature:       370.0000000
  free_energy:        12.2986529
  entropy:            31.3780540
  heat_capacity:      38.8311768
  energy:             23.9085328

- temperature:       380.0000000
  free_energy:        11.9796480
  entropy:            32.4206060
  heat_capacity:      39.3526068
  energy:             24.2994783

- temperature:       390.0000000
  free_energy:        11.6502872
  entropy:            33.4492191
  heat_capacity:      39.8433446
  energy:             24.6954827

- temperature:       400.0000000
  free_energy:        11.3107102
  entropy:            34.4638495
  heat_capacity:      40.3055358
  energy:             25.0962500

- temperature:       410.0000000
  free_energy:        10.9610568
  entropy:            35.4645075
  heat_capacity:      40.7411673
  energy:             25.5015049

- temperature:       420.0000000
  free_energy:        10.6014665
  entropy:            36.4512488
  heat_capacity:      41.1520775
  energy:             25.9109910

- temperature:       430.0000000
  free_energy:        10.2320779
  entropy:            37.4241670
  heat_capacity:      41.5399663
  energy:             26.3244697

- temperature:       440.0000000
  free_energy:         9.8530288
  entropy:            38.3833864
  heat_capacity:      41.9064049
  energy:             26.7417188

- temperature:       450.0000000
  free_energy:         9.4644554
  entropy:            39.3290574
  heat_capacity:      42.2528452
  energy:             27.1625312

- temperature:       460.0000000
  free_energy:         9.0664923
  entropy:            40.2613507
  heat_capacity:      42.5806292
  energy:             27.5867136

- temperature:       470.0000000
  free_energy:         8.6592723
  entropy:            41.1804540
  heat_capacity:      42.8909968
  energy:             28.0140857

- temperature:       480.0000000
  free_energy:         8.2429265
  entropy:            42.0865683
  heat_capacity:      43.1850943
  energy:             28.4444793

- temperature:       490.0000000
  free_energy:         7.8175835
  entropy:            42.9799048
  heat_capacity:      43.4639820
  energy:             28.8777369

- temperature:       500.0000000
  free_energy:         7.3833702
  entropy:            43.8606825
  heat_capacity:      43.7286404
  energy:             29.3137115

- temperature:       510.0000000
  free_energy:         6.9404110
  entropy:            44.7291261
  heat_capacity:      43.9799772
  energy:             29.7522653

- temperature:       520.0000000
  free_energy:         6.4888281
  entropy:            45.5854642
  heat_capacity:      44.2188329
  energy:             30.1932694

- temperature:       530.0000000
  free_energy:         6.0287413
  entropy:            46.4299277
  heat_capacity:      44.4459863
  energy:             30.6366030

- temperature:       540.0000000
  free_energy:         5.5602683
  entropy:            47.2627486
  heat_capacity:      44.6621594
  energy:             31.0821526

- temperature:       550.0000000
  free_energy:         5.0835244
  entropy:            48.0841590
  heat_capacity:      44.8680220
  energy:             31.5298118

- temperature:       560.0000000
  free_energy:         4.5986224
  entropy:            48.8943898
  heat_capacity:      45.0641960
  energy:             31.9794807

- temperature:       570.0000000
  free_energy:         4.1056731
  entropy:            49.6936707
  heat_capacity:      45.2512590
  energy:             32.4310654

- temperature:       580.0000000
  free_energy:         3.6047847
  entropy:            50.4822286
  heat_capacity:      45.4297479
  energy:             32.8844773

- temperature:       590.0000000
  free_energy:         3.0960635
  entropy:            51.2602880
  heat_capacity:      45.6001622
  energy:             33.3396334

- temperature:       600.0000000
  free_energy:         2.5796132
  entropy:            52.0280700
  heat_capacity:      45.7629670
  energy:             33.7964552

- temperature:       610.0000000
  free_energy:         2.0555356
  entropy:            52.7857921
  heat_capacity:      45.9185953
  energy:             34.2548688

- temperature:       620.0000000
  free_energy:         1.5239302
  entropy:            53.5336683
  heat_capacity:      46.0674510
  energy:             34.7148045

- temperature:       630.0000000
  free_energy:         0.9848944
  entropy:            54.2719082
  heat_capacity:      46.2099108
  energy:             35.1761965

- temperature:       640.0000000
  free_energy:         0.4385235
  entropy:            55.0007174
  heat_capacity:      46.3463264
  energy:             35.6389826

- temperature:       650.0000000
  free_energy:        -0.1150892
  entropy:            55.7202972
  heat_capacity:      46.4770263
  energy:             36.1031040

- temperature:       660.0000000
  free_energy:        -0.6758524
  entropy:            56.4308446
  heat_capacity:      46.6023176
  energy:             36.5685051

- temperature:       670.0000000
  free_energy:        -1.2436766
  entropy:            57.1325521
  heat_capacity:      46.7224877
  energy:             37.0351333

- temperature:       680.0000000
  free_energy:        -1.8184746
  entropy:            57.8256077
  heat_capacity:      46.8378057
  energy:             37.5029387

- temperature:       690.0000000
  free_energy:        -2.4001606
  entropy:            58.5101951
  heat_capacity:      46.9485235
  energy:             37.9718741

- temperature:       700.0000000
  free_energy:        -2.9886508
  entropy:            59.1864935
  heat_capacity:      47.0548774
  energy:             38.4418946

- temperature:       710.0000000
  free_energy:        -3.5838634
  entropy:            59.8546777
  heat_capacity:      47.1570891
  energy:             38.9129578

- temperature:       720.0000000
  free_energy:        -4.1857179
  entropy:            60.5149183
  heat_capacity:      47.2553667
  energy:             39.3850233

- temperature:       730.0000000
  free_energy:        -4.7941358
  entropy:            61.1673815
  heat_capacity:      47.3499055
  energy:             39.8580527

- temperature:       740.0000000
  free_energy:        -5.4090402
  entropy:            61.8122293
  heat_capacity:      47.4408894
  energy:             40.3320095

- temperature:       750.0000000
  free_energy:        -6.0303555
  entropy:            62.4496197
  heat_capacity:      47.5284910
  energy:             40.8068592

- temperature:       760.0000000
  free_energy:        -6.6580082
  entropy:            63.0797064
  heat_capacity:      47.6128731
  energy:             41.2825686

- temperature:       770.0000000
  free_energy:        -7.2919258
  entropy:            63.7026393
  heat_capacity:      47.6941887
  energy:             41.7591064

- temperature:       780.0000000
  free_energy:        -7.9320376
  entropy:            64.3185645
  heat_capacity:      47.7725823
  energy:             42.2364427

- temperature:       790.0000000
  free_energy:        -8.5782742
  entropy:            64.9276241
  heat_capacity:      47.8481899
  energy:             42.7145488

- temperature:       800.0000000
  free_energy:        -9.2305677
  entropy:            65.5299566
  heat_capacity:      47.9211398
  energy:             43.1933976

- temperature:       810.0000000
  free_energy:        -9.8888514
  entropy:            66.1256970
  heat_capacity:      47.9915534
  energy:             43.6729631

- temperature:       820.0000000
  free_energy:       -10.5530601
  entropy:            66.7149765
  heat_capacity:      48.0595450
  energy:             44.1532206

- temperature:       830.0000000
  free_energy:       -11.2231298
  entropy:            67.2979231
  heat_capacity:      48.1252230
  energy:             44.6341463

- temperature:       840.0000000
  free_energy:       -11.8989979
  entropy:            67.8746614
  heat_capacity:      48.1886895
  energy:             45.1157177

- temperature:       850.0000000
  free_energy:       -12.5806028
  entropy:            68.4453127
  heat_capacity:      48.2500414
  energy:             45.5979131

- temperature:       860.0000000
  free_energy:       -13.2678842
  entropy:            69.0099953
  heat_capacity:      48.3093704
  energy:             46.0807118

- temperature:       870.0000000
  free_energy:       -13.9607831
  entropy:            69.5688243
  heat_capacity:      48.3667633
  energy:             46.5640940

- temperature:       880.0000000
  free_energy:       -14.6592416
  entropy:            70.1219119
  heat_capacity:      48.4223022
  energy:             47.0480409

- temperature:       890.0000000
  free_energy:       -15.3632026
  entropy:            70.6693672
  heat_capacity:      48.4760653
  energy:             47.5325342

- temperature:       900.0000000
  free_energy:       -16.0726105
  entropy:            71.2112967
  heat_capacity:      48.5281265
  energy:             48.0175565

- temperature:       910.0000000
  free_energy:       -16.7874105
  entropy:            71.7478041
  heat_capacity:      48.5785561
  energy:             48.5030912

- temperature:       920.0000000
  free_energy:       -17.5075488
  entropy:            72.2789905
  heat_capacity:      48.6274207
  energy:             48.9891224

- temperature:       930.0000000
  free_energy:       -18.2329729
  entropy:            72.8049543
  heat_capacity:      48.6747836
  energy:             49.4756347

- temperature:       940.0000000
  free_energy:       -18.9636308
  entropy:            73.3257916
  heat_capacity:      48.7207052
  energy:             49.9626133

- temperature:       950.0000000
  free_energy:       -19.6994719
  entropy:            73.8415959
  heat_capacity:      48.7652426
  energy:             50.4500441

- temperature:       960.0000000
  free_energy:       -20.4404463
  entropy:            74.3524583
  heat_capacity:      48.8084504
  energy:             50.9379137

- temperature:       970.0000000
  free_energy:       -21.1865049
  entropy:            74.8584678
  heat_capacity:      48.8503805
  energy:             51.4262089

- temperature:       980.0000000
  free_energy:       -21.9375997
  entropy:            75.3597112
  heat_capacity:      48.8910821
  energy:             51.9149172

- temperature:       990.0000000
  free_energy:       -22.6936835
  entropy:            75.8562729
  heat_capacity:      48.9306023
  energy:             52.4040266

- temperature:      1000.0000000
  free_energy:       -23.4547099
  entropy:            76.3482353
  heat_capacity:      48.9689861
  energy:             52.8935255
