# Thermal properties / unit cell (natom)

unit:
  temperature:   K
  free_energy:   kJ/mol
  entropy:       J/K/mol
  heat_capacity: J/K/mol

natom:     4
num_modes: 3888
num_integrated_modes: 3868

zero_point_energy:      65.1230977
high_T_entropy:        230.1695860

thermal_properties:
- temperature:         0.0000000
  free_energy:        65.1230977
  entropy:             0.0000000
  heat_capacity:       0.0000000
  energy:             65.1230977

- temperature:        10.0000000
  free_energy:        65.1230721
  entropy:             0.0108004
  heat_capacity:       0.0280129
  energy:             65.1231801

- temperature:        20.0000000
  free_energy:        65.1228019
  entropy:             0.0451651
  heat_capacity:       0.0819301
  energy:             65.1237052

- temperature:        30.0000000
  free_energy:        65.1220994
  entropy:             0.1012131
  heat_capacity:       0.2277370
  energy:             65.1251358

- temperature:        40.0000000
  free_energy:        65.1206218
  entropy:             0.2033685
  heat_capacity:       0.5201480
  energy:             65.1287565

- temperature:        50.0000000
  free_energy:        65.1178405
  entropy:             0.3626829
  heat_capacity:       0.9437544
  energy:             65.1359746

- temperature:        60.0000000
  free_energy:        65.1131717
  entropy:             0.5808986
  heat_capacity:       1.4860936
  energy:             65.1480256

- temperature:        70.0000000
  free_energy:        65.1060258
  entropy:             0.8581677
  heat_capacity:       2.1487977
  energy:             65.1660975

- temperature:        80.0000000
  free_energy:        65.0958094
  entropy:             1.1951160
  heat_capacity:       2.9364738
  energy:             65.1914187

- temperature:        90.0000000
  free_energy:        65.0819220
  entropy:             1.5924794
  heat_capacity:       3.8494025
  energy:             65.2252451

- temperature:       100.0000000
  free_energy:        65.0637576
  entropy:             2.0504923
  heat_capacity:       4.8821952
  energy:             65.2688068

- temperature:       110.0000000
  free_energy:        65.0407118
  entropy:             2.5685829
  heat_capacity:       6.0249529
  energy:             65.3232559

- temperature:       120.0000000
  free_energy:        65.0121903
  entropy:             3.1453293
  heat_capacity:       7.2648521
  energy:             65.3896298

- temperature:       130.0000000
  free_energy:        64.9776169
  entropy:             3.7785548
  heat_capacity:       8.5875522
  energy:             65.4688290

- temperature:       140.0000000
  free_energy:        64.9364402
  entropy:             4.4654832
  heat_capacity:       9.9783509
  energy:             65.5616078

- temperature:       150.0000000
  free_energy:        64.8881388
  entropy:             5.2029121
  heat_capacity:      11.4230862
  energy:             65.6685757

- temperature:       160.0000000
  free_energy:        64.8322251
  entropy:             5.9873798
  heat_capacity:      12.9087808
  energy:             65.7902059

- temperature:       170.0000000
  free_energy:        64.7682464
  entropy:             6.8153131
  heat_capacity:      14.4240296
  energy:             65.9268496

- temperature:       180.0000000
  free_energy:        64.6957858
  entropy:             7.6831483
  heat_capacity:      15.9591591
  energy:             66.0787525

- temperature:       190.0000000
  free_energy:        64.6144620
  entropy:             8.5874230
  heat_capacity:      17.5062040
  energy:             66.2460723

- temperature:       200.0000000
  free_energy:        64.5239269
  entropy:             9.5248396
  heat_capacity:      19.0587613
  energy:             66.4288949

- temperature:       210.0000000
  free_energy:        64.4238650
  entropy:            10.4923044
  heat_capacity:      20.6117724
  energy:             66.6272489

- temperature:       220.0000000
  free_energy:        64.3139903
  entropy:            11.4869466
  heat_capacity:      22.1612802
  energy:             66.8411185

- temperature:       230.0000000
  free_energy:        64.1940443
  entropy:            12.5061224
  heat_capacity:      23.7041911
  energy:             67.0704525

- temperature:       240.0000000
  free_energy:        64.0637942
  entropy:            13.5474084
  heat_capacity:      25.2380623
  energy:             67.3151722

- temperature:       250.0000000
  free_energy:        63.9230299
  entropy:            14.6085885
  heat_capacity:      26.7609234
  energy:             67.5751770

- temperature:       260.0000000
  free_energy:        63.7715628
  entropy:            15.6876369
  heat_capacity:      28.2711360
  energy:             67.8503484

- temperature:       270.0000000
  free_energy:        63.6092238
  entropy:            16.7827002
  heat_capacity:      29.7672881
  energy:             68.1405528

- temperature:       280.0000000
  free_energy:        63.4358611
  entropy:            17.8920785
  heat_capacity:      31.2481192
  energy:             68.4456431

- temperature:       290.0000000
  free_energy:        63.2513397
  entropy:            19.0142088
  heat_capacity:      32.7124713
  energy:             68.7654603

- temperature:       300.0000000
  free_energy:        63.0555393
  entropy:            20.1476491
  heat_capacity:      34.1592588
  energy:             69.0998340

- temperature:       310.0000000
  free_energy:        62.8483535
  entropy:            21.2910644
  heat_capacity:      35.5874534
  energy:             69.4485835

- temperature:       320.0000000
  free_energy:        62.6296889
  entropy:            22.4432155
  heat_capacity:      36.9960781
  energy:             69.8115178

- temperature:       330.0000000
  free_energy:        62.3994639
  entropy:            23.6029479
  heat_capacity:      38.3842089
  energy:             70.1884367

- temperature:       340.0000000
  free_energy:        62.1576083
  entropy:            24.7691840
  heat_capacity:      39.7509784
  energy:             70.5791308

- temperature:       350.0000000
  free_energy:        61.9040619
  entropy:            25.9409156
  heat_capacity:      41.0955829
  energy:             70.9833824

- temperature:       360.0000000
  free_energy:        61.6387748
  entropy:            27.1171982
  heat_capacity:      42.4172884
  energy:             71.4009661

- temperature:       370.0000000
  free_energy:        61.3617058
  entropy:            28.2971456
  heat_capacity:      43.7154362
  energy:             71.8316496

- temperature:       380.0000000
  free_energy:        61.0728224
  entropy:            29.4799262
  heat_capacity:      44.9894478
  energy:             72.2751944

- temperature:       390.0000000
  free_energy:        60.7721004
  entropy:            30.6647591
  heat_capacity:      46.2388277
  energy:             72.7313565

- temperature:       400.0000000
  free_energy:        60.4595228
  entropy:            31.8509115
  heat_capacity:      47.4631648
  energy:             73.1998874

- temperature:       410.0000000
  free_energy:        60.1350801
  entropy:            33.0376954
  heat_capacity:      48.6621325
  energy:             73.6805352

- temperature:       420.0000000
  free_energy:        59.7987690
  entropy:            34.2244660
  heat_capacity:      49.8354875
  energy:             74.1730447

- temperature:       430.0000000
  free_energy:        59.4505928
  entropy:            35.4106191
  heat_capacity:      50.9830669
  energy:             74.6771590

- temperature:       440.0000000
  free_energy:        59.0905606
  entropy:            36.5955893
  heat_capacity:      52.1047852
  energy:             75.1926198

- temperature:       450.0000000
  free_energy:        58.7186867
  entropy:            37.7788483
  heat_capacity:      53.2006299
  energy:             75.7191685

- temperature:       460.0000000
  free_energy:        58.3349909
  entropy:            38.9599031
  heat_capacity:      54.2706566
  energy:             76.2565464

- temperature:       470.0000000
  free_energy:        57.9394976
  entropy:            40.1382944
  heat_capacity:      55.3149843
  energy:             76.8044959

- temperature:       480.0000000
  free_energy:        57.5322354
  entropy:            41.3135950
  heat_capacity:      56.3337898
  energy:             77.3627610

- temperature:       490.0000000
  free_energy:        57.1132373
  entropy:            42.4854084
  heat_capacity:      57.3273025
  energy:             77.9310874

- temperature:       500.0000000
  free_energy:        56.6825400
  entropy:            43.6533672
  heat_capacity:      58.2957989
  energy:             78.5092236

- temperature:       510.0000000
  free_energy:        56.2401839
  entropy:            44.8171316
  heat_capacity:      59.2395974
  energy:             79.0969210

- temperature:       520.0000000
  free_energy:        55.7862124
  entropy:            45.9763884
  heat_capacity:      60.1590534
  energy:             79.6939344

- temperature:       530.0000000
  free_energy:        55.3206721
  entropy:            47.1308493
  heat_capacity:      61.0545543
  energy:             80.3000223

- temperature:       540.0000000
  free_energy:        54.8436123
  entropy:            48.2802495
  heat_capacity:      61.9265149
  energy:             80.9149470

- temperature:       550.0000000
  free_energy:        54.3550848
  entropy:            49.4243468
  heat_capacity:      62.7753732
  energy:             81.5384756

- temperature:       560.0000000
  free_energy:        53.8551438
  entropy:            50.5629200
  heat_capacity:      63.6015867
  energy:             82.1703790

- temperature:       570.0000000
  free_energy:        53.3438455
  entropy:            51.6957682
  heat_capacity:      64.4056282
  energy:             82.8104334

- temperature:       580.0000000
  free_energy:        52.8212481
  entropy:            52.8227089
  heat_capacity:      65.1879829
  energy:             83.4584193

- temperature:       590.0000000
  free_energy:        52.2874116
  entropy:            53.9435777
  heat_capacity:      65.9491452
  energy:             84.1141224

- temperature:       600.0000000
  free_energy:        51.7423973
  entropy:            55.0582265
  heat_capacity:      66.6896160
  energy:             84.7773332

- temperature:       610.0000000
  free_energy:        51.1862682
  entropy:            56.1665233
  heat_capacity:      67.4098999
  energy:             85.4478474

- temperature:       620.0000000
  free_energy:        50.6190884
  entropy:            57.2683503
  heat_capacity:      68.1105037
  energy:             86.1254656

- temperature:       630.0000000
  free_energy:        50.0409231
  entropy:            58.3636039
  heat_capacity:      68.7919335
  energy:             86.8099936

- temperature:       640.0000000
  free_energy:        49.4518386
  entropy:            59.4521930
  heat_capacity:      69.4546939
  energy:             87.5012421

- temperature:       650.0000000
  free_energy:        48.8519017
  entropy:            60.5340387
  heat_capacity:      70.0992858
  energy:             88.1990269

- temperature:       660.0000000
  free_energy:        48.2411805
  entropy:            61.6090733
  heat_capacity:      70.7262052
  energy:             88.9031689

- temperature:       670.0000000
  free_energy:        47.6197432
  entropy:            62.6772396
  heat_capacity:      71.3359424
  energy:             89.6134937

- temperature:       680.0000000
  free_energy:        46.9876587
  entropy:            63.7384902
  heat_capacity:      71.9289805
  energy:             90.3298321

- temperature:       690.0000000
  free_energy:        46.3449966
  entropy:            64.7927865
  heat_capacity:      72.5057952
  energy:             91.0520193

- temperature:       700.0000000
  free_energy:        45.6918263
  entropy:            65.8400988
  heat_capacity:      73.0668532
  energy:             91.7798954

- temperature:       710.0000000
  free_energy:        45.0282179
  entropy:            66.8804048
  heat_capacity:      73.6126127
  energy:             92.5133053

- temperature:       720.0000000
  free_energy:        44.3542416
  entropy:            67.9136897
  heat_capacity:      74.1435220
  energy:             93.2520982

- temperature:       730.0000000
  free_energy:        43.6699676
  entropy:            68.9399454
  heat_capacity:      74.6600197
  energy:             93.9961277

- temperature:       740.0000000
  free_energy:        42.9754661
  entropy:            69.9591701
  heat_capacity:      75.1625340
  energy:             94.7452520

- temperature:       750.0000000
  free_energy:        42.2708076
  entropy:            70.9713675
  heat_capacity:      75.6514831
  energy:             95.4993332

- temperature:       760.0000000
  free_energy:        41.5560622
  entropy:            71.9765469
  heat_capacity:      76.1272741
  energy:             96.2582378

- temperature:       770.0000000
  free_energy:        40.8313000
  entropy:            72.9747223
  heat_capacity:      76.5903040
  energy:             97.0218361

- temperature:       780.0000000
  free_energy:        40.0965910
  entropy:            73.9659123
  heat_capacity:      77.0409588
  energy:             97.7900026

- temperature:       790.0000000
  free_energy:        39.3520050
  entropy:            74.9501397
  heat_capacity:      77.4796141
  energy:             98.5626153

- temperature:       800.0000000
  free_energy:        38.5976113
  entropy:            75.9274310
  heat_capacity:      77.9066348
  energy:             99.3395561

- temperature:       810.0000000
  free_energy:        37.8334794
  entropy:            76.8978161
  heat_capacity:      78.3223752
  energy:            100.1207104

- temperature:       820.0000000
  free_energy:        37.0596779
  entropy:            77.8613283
  heat_capacity:      78.7271793
  energy:            100.9059672

- temperature:       830.0000000
  free_energy:        36.2762756
  entropy:            78.8180037
  heat_capacity:      79.1213811
  energy:            101.6952187

- temperature:       840.0000000
  free_energy:        35.4833405
  entropy:            79.7678810
  heat_capacity:      79.5053041
  energy:            102.4883605

- temperature:       850.0000000
  free_energy:        34.6809405
  entropy:            80.7110012
  heat_capacity:      79.8792622
  energy:            103.2852915

- temperature:       860.0000000
  free_energy:        33.8691429
  entropy:            81.6474078
  heat_capacity:      80.2435596
  energy:            104.0859136

- temperature:       870.0000000
  free_energy:        33.0480146
  entropy:            82.5771459
  heat_capacity:      80.5984908
  energy:            104.8901315

- temperature:       880.0000000
  free_energy:        32.2176220
  entropy:            83.5002626
  heat_capacity:      80.9443411
  energy:            105.6978531

- temperature:       890.0000000
  free_energy:        31.3780312
  entropy:            84.4168065
  heat_capacity:      81.2813870
  energy:            106.5089890

- temperature:       900.0000000
  free_energy:        30.5293076
  entropy:            85.3268275
  heat_capacity:      81.6098957
  energy:            107.3234524

- temperature:       910.0000000
  free_energy:        29.6715162
  entropy:            86.2303770
  heat_capacity:      81.9301263
  energy:            108.1411593

- temperature:       920.0000000
  free_energy:        28.8047215
  entropy:            87.1275073
  heat_capacity:      82.2423292
  energy:            108.9620282

- temperature:       930.0000000
  free_energy:        27.9289873
  entropy:            88.0182716
  heat_capacity:      82.5467467
  energy:            109.7859799

- temperature:       940.0000000
  free_energy:        27.0443771
  entropy:            88.9027243
  heat_capacity:      82.8436134
  energy:            110.6129379

- temperature:       950.0000000
  free_energy:        26.1509537
  entropy:            89.7809201
  heat_capacity:      83.1331561
  energy:            111.4428278

- temperature:       960.0000000
  free_energy:        25.2487794
  entropy:            90.6529146
  heat_capacity:      83.4155940
  energy:            112.2755774

- temperature:       970.0000000
  free_energy:        24.3379159
  entropy:            91.5187637
  heat_capacity:      83.6911396
  energy:            113.1111167

- temperature:       980.0000000
  free_energy:        23.4184244
  entropy:            92.3785240
  heat_capacity:      83.9599978
  energy:            113.9493779

- temperature:       990.0000000
  free_energy:        22.4903655
  entropy:            93.2322520
  heat_capacity:      84.2223671
  energy:            114.7902950

- temperature:      1000.0000000
  free_energy:        21.5537993
  entropy:            94.0800050
  heat_capacity:      84.4784396
  energy:            115.6338042
