  32  32   0   0
  0.8206758E+01  0.4932875E-09  0.4932875E-09  0.1246769E-08  0.5000000E-15
  1.000000000000000E-004
  CAR 
 graphite                                
     17.13893298    -16.38149682  301      5.32909197      1.00000000
    -16.381  0.0000E+00  0.0000E+00
    -16.270  0.0000E+00  0.0000E+00
    -16.158  0.0000E+00  0.0000E+00
    -16.046  0.0000E+00  0.0000E+00
    -15.935  0.0000E+00  0.0000E+00
    -15.823  0.0000E+00  0.0000E+00
    -15.711  0.0000E+00  0.0000E+00
    -15.599  0.0000E+00  0.0000E+00
    -15.488  0.0000E+00  0.0000E+00
    -15.376  0.0000E+00  0.0000E+00
    -15.264  0.0000E+00  0.0000E+00
    -15.152  0.0000E+00  0.0000E+00
    -15.041  0.0000E+00  0.0000E+00
    -14.929  0.0000E+00  0.0000E+00
    -14.817  0.0000E+00  0.0000E+00
    -14.705  0.0000E+00  0.0000E+00
    -14.594  0.0000E+00  0.0000E+00
    -14.482  0.0000E+00  0.0000E+00
    -14.370  0.4780E-01  0.1788E-03
    -14.259  0.1447E+01  0.1008E+00
    -14.147  0.2312E+01  0.3097E+00
    -14.035  0.2906E+01  0.6013E+00
    -13.923  0.3737E+01  0.9700E+00
    -13.812  0.5108E+01  0.1466E+01
    -13.700  0.4938E+01  0.2013E+01
    -13.588  0.4871E+01  0.2563E+01
    -13.476  0.5002E+01  0.3115E+01
    -13.365  0.4924E+01  0.3672E+01
    -13.253  0.4931E+01  0.4221E+01
    -13.141  0.5383E+01  0.4792E+01
    -13.029  0.5580E+01  0.5406E+01
    -12.918  0.6378E+01  0.6072E+01
    -12.806  0.5640E+01  0.6770E+01
    -12.694  0.4102E+01  0.7324E+01
    -12.583  0.2632E+01  0.7669E+01
    -12.471  0.3681E+01  0.8045E+01
    -12.359  0.3776E+01  0.8430E+01
    -12.247  0.5822E+01  0.9111E+01
    -12.136  0.5318E+01  0.9720E+01
    -12.024  0.5545E+01  0.1031E+02
    -11.912  0.5312E+01  0.1094E+02
    -11.800  0.4837E+01  0.1148E+02
    -11.689  0.5185E+01  0.1204E+02
    -11.577  0.5006E+01  0.1261E+02
    -11.465  0.5002E+01  0.1316E+02
    -11.353  0.5154E+01  0.1373E+02
    -11.242  0.5772E+01  0.1434E+02
    -11.130  0.5003E+01  0.1493E+02
    -11.018  0.5018E+01  0.1549E+02
    -10.906  0.5093E+01  0.1605E+02
    -10.795  0.5181E+01  0.1663E+02
    -10.683  0.5254E+01  0.1721E+02
    -10.571  0.5332E+01  0.1780E+02
    -10.460  0.5583E+01  0.1841E+02
    -10.348  0.5712E+01  0.1904E+02
    -10.236  0.5960E+01  0.1969E+02
    -10.124  0.6079E+01  0.2037E+02
    -10.013  0.6121E+01  0.2105E+02
     -9.901  0.5118E+01  0.2168E+02
     -9.789  0.4135E+01  0.2219E+02
     -9.677  0.4236E+01  0.2265E+02
     -9.566  0.5010E+01  0.2317E+02
     -9.454  0.5392E+01  0.2375E+02
     -9.342  0.5601E+01  0.2437E+02
     -9.230  0.6288E+01  0.2501E+02
     -9.119  0.7027E+01  0.2576E+02
     -9.007  0.8554E+01  0.2662E+02
     -8.895  0.8562E+01  0.2765E+02
     -8.784  0.6092E+01  0.2851E+02
     -8.672  0.4931E+01  0.2911E+02
     -8.560  0.3630E+01  0.2966E+02
     -8.448  0.3236E+01  0.3004E+02
     -8.337  0.2842E+01  0.3038E+02
     -8.225  0.2496E+01  0.3068E+02
     -8.113  0.2938E+01  0.3099E+02
     -8.001  0.2326E+01  0.3127E+02
     -7.890  0.1867E+01  0.3151E+02
     -7.778  0.2080E+01  0.3172E+02
     -7.666  0.4204E+01  0.3202E+02
     -7.554  0.6246E+01  0.3269E+02
     -7.443  0.4233E+01  0.3321E+02
     -7.331  0.4117E+01  0.3368E+02
     -7.219  0.6218E+01  0.3423E+02
     -7.108  0.6647E+01  0.3491E+02
     -6.996  0.6748E+01  0.3571E+02
     -6.884  0.7923E+01  0.3653E+02
     -6.772  0.8199E+01  0.3747E+02
     -6.661  0.7260E+01  0.3833E+02
     -6.549  0.6103E+01  0.3905E+02
     -6.437  0.5811E+01  0.3972E+02
     -6.325  0.5576E+01  0.4035E+02
     -6.214  0.5375E+01  0.4097E+02
     -6.102  0.5188E+01  0.4156E+02
     -5.990  0.4997E+01  0.4213E+02
     -5.878  0.4863E+01  0.4268E+02
     -5.767  0.4828E+01  0.4322E+02
     -5.655  0.4795E+01  0.4375E+02
     -5.543  0.4623E+01  0.4428E+02
     -5.431  0.4513E+01  0.4479E+02
     -5.320  0.3768E+01  0.4527E+02
     -5.208  0.3839E+01  0.4567E+02
     -5.096  0.4473E+01  0.4614E+02
     -4.985  0.5192E+01  0.4668E+02
     -4.873  0.5944E+01  0.4730E+02
     -4.761  0.8001E+01  0.4805E+02
     -4.649  0.9338E+01  0.4902E+02
     -4.538  0.8393E+01  0.5008E+02
     -4.426  0.5684E+01  0.5087E+02
     -4.314  0.3047E+01  0.5135E+02
     -4.202  0.2389E+01  0.5163E+02
     -4.091  0.3350E+01  0.5195E+02
     -3.979  0.4792E+01  0.5240E+02
     -3.867  0.6501E+01  0.5303E+02
     -3.755  0.7884E+01  0.5385E+02
     -3.644  0.7772E+01  0.5474E+02
     -3.532  0.6267E+01  0.5553E+02
     -3.420  0.5620E+01  0.5618E+02
     -3.309  0.8411E+01  0.5695E+02
     -3.197  0.8114E+01  0.5788E+02
     -3.085  0.7792E+01  0.5877E+02
     -2.973  0.7616E+01  0.5962E+02
     -2.862  0.7723E+01  0.6048E+02
     -2.750  0.8227E+01  0.6144E+02
     -2.638  0.8784E+01  0.6241E+02
     -2.526  0.9187E+01  0.6345E+02
     -2.415  0.7791E+01  0.6440E+02
     -2.303  0.7121E+01  0.6521E+02
     -2.191  0.8119E+01  0.6606E+02
     -2.079  0.9685E+01  0.6705E+02
     -1.968  0.1101E+02  0.6824E+02
     -1.856  0.1254E+02  0.6954E+02
     -1.744  0.1058E+02  0.7087E+02
     -1.633  0.1149E+02  0.7204E+02
     -1.521  0.1256E+02  0.7338E+02
     -1.409  0.1452E+02  0.7489E+02
     -1.297  0.1268E+02  0.7647E+02
     -1.186  0.1523E+02  0.7795E+02
     -1.074  0.1096E+02  0.7949E+02
     -0.962  0.1868E+02  0.8092E+02
     -0.850  0.1833E+02  0.8307E+02
     -0.739  0.1576E+02  0.8501E+02
     -0.627  0.1390E+02  0.8666E+02
     -0.515  0.1196E+02  0.8812E+02
     -0.403  0.1023E+02  0.8934E+02
     -0.292  0.9553E+01  0.9045E+02
     -0.180  0.9402E+01  0.9148E+02
     -0.068  0.1309E+02  0.9272E+02
      0.044  0.1392E+02  0.9422E+02
      0.155  0.1054E+02  0.9576E+02
      0.267  0.8932E+01  0.9681E+02
      0.379  0.9248E+01  0.9777E+02
      0.490  0.9908E+01  0.9886E+02
      0.602  0.1059E+02  0.1000E+03
      0.714  0.1182E+02  0.1013E+03
      0.826  0.1079E+02  0.1025E+03
      0.937  0.9419E+01  0.1036E+03
      1.049  0.9299E+01  0.1046E+03
      1.161  0.9362E+01  0.1057E+03
      1.273  0.9368E+01  0.1067E+03
      1.384  0.9559E+01  0.1078E+03
      1.496  0.9448E+01  0.1088E+03
      1.608  0.9479E+01  0.1099E+03
      1.720  0.9938E+01  0.1110E+03
      1.831  0.9181E+01  0.1120E+03
      1.943  0.8683E+01  0.1130E+03
      2.055  0.8767E+01  0.1140E+03
      2.166  0.9467E+01  0.1151E+03
      2.278  0.9306E+01  0.1161E+03
      2.390  0.6191E+01  0.1170E+03
      2.502  0.6343E+01  0.1177E+03
      2.613  0.6294E+01  0.1184E+03
      2.725  0.5604E+01  0.1191E+03
      2.837  0.3595E+01  0.1195E+03
      2.949  0.5886E+01  0.1200E+03
      3.060  0.8450E+01  0.1209E+03
      3.172  0.8738E+01  0.1218E+03
      3.284  0.4978E+01  0.1225E+03
      3.396  0.5286E+01  0.1231E+03
      3.507  0.5406E+01  0.1237E+03
      3.619  0.6278E+01  0.1244E+03
      3.731  0.5365E+01  0.1250E+03
      3.842  0.3999E+01  0.1255E+03
      3.954  0.3275E+01  0.1260E+03
      4.066  0.2933E+01  0.1263E+03
      4.178  0.2597E+01  0.1266E+03
      4.289  0.2237E+01  0.1269E+03
      4.401  0.1829E+01  0.1271E+03
      4.513  0.1611E+01  0.1273E+03
      4.625  0.1393E+01  0.1275E+03
      4.736  0.1198E+01  0.1276E+03
      4.848  0.1021E+01  0.1277E+03
      4.960  0.9290E+00  0.1278E+03
      5.072  0.6304E+00  0.1279E+03
      5.183  0.3373E+00  0.1280E+03
      5.295  0.4991E-01  0.1280E+03
      5.407  0.7713E-01  0.1280E+03
      5.519  0.2309E+00  0.1280E+03
      5.630  0.3927E+00  0.1281E+03
      5.742  0.5627E+00  0.1281E+03
      5.854  0.7450E+00  0.1282E+03
      5.965  0.9320E+00  0.1283E+03
      6.077  0.1119E+01  0.1284E+03
      6.189  0.1382E+01  0.1285E+03
      6.301  0.1656E+01  0.1287E+03
      6.412  0.1976E+01  0.1289E+03
      6.524  0.2416E+01  0.1291E+03
      6.636  0.3563E+01  0.1295E+03
      6.748  0.4855E+01  0.1299E+03
      6.859  0.6199E+01  0.1306E+03
      6.971  0.9510E+01  0.1317E+03
      7.083  0.8021E+01  0.1327E+03
      7.195  0.7226E+01  0.1335E+03
      7.306  0.7027E+01  0.1343E+03
      7.418  0.7013E+01  0.1351E+03
      7.530  0.5961E+01  0.1359E+03
      7.641  0.5110E+01  0.1365E+03
      7.753  0.4350E+01  0.1370E+03
      7.865  0.4203E+01  0.1375E+03
      7.977  0.3532E+01  0.1379E+03
      8.088  0.3596E+01  0.1383E+03
      8.200  0.3866E+01  0.1387E+03
      8.312  0.4247E+01  0.1392E+03
      8.424  0.4676E+01  0.1397E+03
      8.535  0.4920E+01  0.1402E+03
      8.647  0.4922E+01  0.1408E+03
      8.759  0.4549E+01  0.1413E+03
      8.871  0.4189E+01  0.1418E+03
      8.982  0.4031E+01  0.1422E+03
      9.094  0.3922E+01  0.1427E+03
      9.206  0.3737E+01  0.1431E+03
      9.317  0.3610E+01  0.1435E+03
      9.429  0.3533E+01  0.1439E+03
      9.541  0.3410E+01  0.1443E+03
      9.653  0.3286E+01  0.1447E+03
      9.764  0.3208E+01  0.1451E+03
      9.876  0.3193E+01  0.1454E+03
      9.988  0.3202E+01  0.1458E+03
     10.100  0.3027E+01  0.1461E+03
     10.211  0.3019E+01  0.1464E+03
     10.323  0.2950E+01  0.1468E+03
     10.435  0.2974E+01  0.1471E+03
     10.547  0.3195E+01  0.1475E+03
     10.658  0.3398E+01  0.1478E+03
     10.770  0.3474E+01  0.1482E+03
     10.882  0.3541E+01  0.1486E+03
     10.994  0.3531E+01  0.1490E+03
     11.105  0.3795E+01  0.1494E+03
     11.217  0.4042E+01  0.1498E+03
     11.329  0.4167E+01  0.1503E+03
     11.440  0.4078E+01  0.1508E+03
     11.552  0.3947E+01  0.1512E+03
     11.664  0.3916E+01  0.1516E+03
     11.776  0.4070E+01  0.1521E+03
     11.887  0.5035E+01  0.1526E+03
     11.999  0.3762E+01  0.1531E+03
     12.111  0.3312E+01  0.1535E+03
     12.223  0.2413E+01  0.1538E+03
     12.334  0.2408E+01  0.1541E+03
     12.446  0.3858E+01  0.1544E+03
     12.558  0.5773E+01  0.1550E+03
     12.670  0.6094E+01  0.1556E+03
     12.781  0.9082E+01  0.1564E+03
     12.893  0.1007E+02  0.1575E+03
     13.005  0.1142E+02  0.1587E+03
     13.116  0.1217E+02  0.1600E+03
     13.228  0.1167E+02  0.1614E+03
     13.340  0.1010E+02  0.1626E+03
     13.452  0.9783E+01  0.1637E+03
     13.563  0.1048E+02  0.1648E+03
     13.675  0.1027E+02  0.1660E+03
     13.787  0.6628E+01  0.1669E+03
     13.899  0.3483E+01  0.1675E+03
     14.010  0.1885E+01  0.1678E+03
     14.122  0.6092E+00  0.1679E+03
     14.234  0.2827E+00  0.1680E+03
     14.346  0.1058E+00  0.1680E+03
     14.457  0.7648E-01  0.1680E+03
     14.569  0.5346E-01  0.1680E+03
     14.681  0.3455E-01  0.1680E+03
     14.793  0.1975E-01  0.1680E+03
     14.904  0.9067E-02  0.1680E+03
     15.016  0.2489E-02  0.1680E+03
     15.128  0.2074E-04  0.1680E+03
     15.239  0.0000E+00  0.1680E+03
     15.351  0.0000E+00  0.1680E+03
     15.463  0.0000E+00  0.1680E+03
     15.575  0.0000E+00  0.1680E+03
     15.686  0.0000E+00  0.1680E+03
     15.798  0.0000E+00  0.1680E+03
     15.910  0.0000E+00  0.1680E+03
     16.022  0.0000E+00  0.1680E+03
     16.133  0.0000E+00  0.1680E+03
     16.245  0.0000E+00  0.1680E+03
     16.357  0.0000E+00  0.1680E+03
     16.469  0.0000E+00  0.1680E+03
     16.580  0.0000E+00  0.1680E+03
     16.692  0.0000E+00  0.1680E+03
     16.804  0.0000E+00  0.1680E+03
     16.915  0.0000E+00  0.1680E+03
     17.027  0.0000E+00  0.1680E+03
     17.139  0.0000E+00  0.1680E+03
