   32   32    1    1
  0.6204108E+01  0.4934311E-09  0.4934311E-09  0.9416039E-09  0.5000000E-15
  1.000000000000000E-004
  CAR 
 graphite                                
    128    163     84
 
  0.0000000E+00  0.0000000E+00  0.0000000E+00  0.3086420E-02
    1      -12.441917
    2      -11.361234
    3      -11.357570
    4       -9.673724
    5       -6.809134
    6       -6.808823
    7       -6.808153
    8       -6.115982
    9       -6.113380
   10       -6.110870
   11       -6.003125
   12       -5.999639
   13       -5.998007
   14       -5.997743
   15       -5.996077
   16       -5.992112
   17       -4.965004
   18       -4.960835
   19       -4.959882
   20       -4.958663
   21       -4.957178
   22       -4.953713
   23       -4.310993
   24       -4.308914
   25       -4.306865
   26       -3.985076
   27       -3.982028
   28       -3.980100
   29       -2.449617
   30        1.440419
   31        1.446211
   32        1.606556
   33        1.609386
   34        1.613988
   35        2.050924
   36        2.055948
   37        2.056368
   38        2.056924
   39        2.059127
   40        2.064004
   41        2.545149
   42        2.548218
   43        2.553085
   44        3.576391
   45        3.577264
   46        3.578151
   47        5.256002
   48        5.268719
   49        5.450394
   50        5.458931
   51        5.463603
   52        5.471945
   53        5.649635
   54        5.662817
   55        5.898335
   56        5.899227
   57        5.901242
   58        6.011772
   59        6.355571
   60        6.366199
   61        6.366392
   62        6.367683
   63        6.368064
   64        6.378587
   65       10.140993
   66       10.152122
   67       10.152815
   68       10.153863
   69       10.155191
   70       10.165684
   71       12.256927
   72       12.260109
   73       12.261906
   74       12.308850
   75       12.311378
   76       12.314606
   77       14.201601
   78       14.206171
   79       14.211069
   80       15.712638
   81       15.719065
   82       15.720450
   83       15.721648
   84       15.724845
 
  0.1111111E+00  0.1387779E-16  0.0000000E+00  0.6172840E-02
    1      -12.365226
    2      -11.286684
    3      -11.283027
    4       -9.604846
    5       -7.698100
    6       -7.105459
    7       -7.103517
    8       -6.775643
    9       -6.772523
   10       -6.230708
   11       -6.229085
   12       -6.227740
   13       -6.223863
   14       -5.756326
   15       -5.752247
   16       -5.633865
   17       -4.684703
   18       -4.612375
   19       -4.607736
   20       -4.606146
   21       -4.604475
   22       -4.594091
   23       -4.591018
   24       -4.073152
   25       -4.069397
   26       -3.526556
   27       -3.523171
   28       -2.975925
   29       -2.358441
   30        1.353732
   31        1.358910
   32        1.521475
   33        1.527263
   34        1.681658
   35        1.819569
   36        1.821032
   37        1.823689
   38        1.828395
   39        2.125163
   40        2.128832
   41        2.348245
   42        2.353790
   43        2.616318
   44        2.928897
   45        3.444242
   46        3.445712
   47        4.914471
   48        5.063968
   49        5.158477
   50        5.165495
   51        5.294699
   52        5.301742
   53        5.410181
   54        5.533661
   55        5.971303
   56        5.979075
   57        6.080569
   58        6.160125
   59        6.162170
   60        6.315835
   61        6.321019
   62        6.322292
   63        6.331375
   64        6.559811
   65       10.264209
   66       10.274117
   67       10.275238
   68       10.281048
   69       10.632670
   70       10.641246
   71       11.473647
   72       11.757343
   73       11.760912
   74       12.692138
   75       12.695931
   76       13.285483
   77       14.260090
   78       14.576418
   79       14.583529
   80       15.783485
   81       15.787559
   82       16.050437
   83       16.052277
   84       16.066510
 
  0.2222222E+00  0.4163336E-16  0.0000000E+00  0.6172840E-02
    1      -12.135539
    2      -11.063250
    3      -11.059615
    4       -9.398601
    5       -8.765787
    6       -7.796289
    7       -7.793000
    8       -7.489823
    9       -7.487727
   10       -6.576278
   11       -6.574367
   12       -6.572976
   13       -6.569764
   14       -6.401158
   15       -5.450087
   16       -5.445951
   17       -4.506875
   18       -4.502432
   19       -3.905059
   20       -3.901425
   21       -3.899952
   22       -3.897983
   23       -3.471419
   24       -2.841644
   25       -2.838189
   26       -2.727757
   27       -2.724108
   28       -2.085625
   29       -1.708110
   30        0.688131
   31        0.692816
   32        1.192129
   33        1.193538
   34        1.195980
   35        1.200544
   36        1.762523
   37        1.768322
   38        1.805651
   39        1.810539
   40        1.823383
   41        1.902688
   42        2.340226
   43        2.344045
   44        2.824774
   45        3.179980
   46        3.181893
   47        3.977872
   48        4.326146
   49        4.332381
   50        4.580758
   51        4.691684
   52        4.874991
   53        4.881318
   54        5.150349
   55        5.157122
   56        5.188039
   57        6.209463
   58        6.214942
   59        6.216133
   60        6.224814
   61        6.284273
   62        6.801546
   63        6.803810
   64        7.520280
   65       10.567792
   66       10.577511
   67       10.579248
   68       10.584988
   69       11.116994
   70       11.129001
   71       11.132614
   72       11.710375
   73       11.718173
   74       12.964349
   75       12.968583
   76       14.369958
   77       14.425985
   78       15.598326
   79       15.605417
   80       15.986531
   81       15.990654
   82       16.247519
   83       16.461105
   84       16.467814
 
  0.3333333E+00  0.0000000E+00  0.0000000E+00  0.6172840E-02
    1      -11.753949
    2      -10.692123
    3      -10.688522
    4       -9.721804
    5       -9.056152
    6       -8.719826
    7       -8.716422
    8       -7.765195
    9       -7.763141
   10       -7.239268
   11       -6.834918
   12       -6.832969
   13       -6.831509
   14       -6.828568
   15       -5.550049
   16       -5.547046
   17       -3.779893
   18       -3.776007
   19       -3.082510
   20       -3.078550
   21       -3.077197
   22       -3.075243
   23       -2.141387
   24       -2.138008
   25       -1.974455
   26       -1.633266
   27       -1.279196
   28       -1.275480
   29       -0.366225
   30       -0.139740
   31       -0.136151
   32        0.350161
   33        0.351393
   34        0.353456
   35        0.357989
   36        0.744615
   37        1.049474
   38        1.054249
   39        2.146634
   40        2.152053
   41        2.262341
   42        2.670367
   43        2.689621
   44        2.693665
   45        2.948739
   46        2.950861
   47        3.148152
   48        3.153146
   49        3.161878
   50        3.629127
   51        3.963844
   52        4.263574
   53        4.269933
   54        4.311321
   55        4.316853
   56        4.687475
   57        6.100710
   58        6.106285
   59        6.107408
   60        6.116059
   61        6.611795
   62        7.628277
   63        7.630657
   64        7.818435
   65       10.398370
   66       10.401359
   67       10.911374
   68       10.920916
   69       10.922950
   70       10.928739
   71       11.713646
   72       12.972630
   73       12.980070
   74       13.102838
   75       13.107543
   76       14.694669
   77       15.499200
   78       15.897726
   79       15.995974
   80       16.002038
   81       16.240183
   82       16.332188
   83       16.336392
   84       17.072302
 
  0.4444444E+00  0.8326673E-16  0.0000000E+00  0.6172840E-02
    1      -11.222325
    2      -10.543318
    3      -10.175304
    4      -10.171756
    5       -9.516071
    6       -9.512587
    7       -8.579250
    8       -7.971476
    9       -7.906074
   10       -7.904050
   11       -6.968735
   12       -6.966778
   13       -6.965272
   14       -6.962459
   15       -5.648425
   16       -5.645731
   17       -2.944626
   18       -2.941228
   19       -2.330026
   20       -2.325181
   21       -2.324236
   22       -2.322894
   23       -1.882983
   24       -1.880002
   25       -1.004900
   26       -0.527837
   27       -0.525963
   28       -0.437836
   29       -0.436845
   30       -0.435294
   31       -0.431085
   32       -0.405737
   33       -0.207679
   34        0.213796
   35        0.217615
   36        0.258984
   37        0.262761
   38        1.008795
   39        1.168659
   40        1.681875
   41        1.686266
   42        2.365356
   43        2.746150
   44        2.768806
   45        2.774937
   46        2.821554
   47        2.823856
   48        3.156698
   49        3.161227
   50        3.328307
   51        3.448346
   52        3.454537
   53        3.608292
   54        3.713485
   55        3.718086
   56        4.134415
   57        6.035083
   58        6.040705
   59        6.041801
   60        6.050367
   61        7.039005
   62        7.503941
   63        8.482665
   64        8.485715
   65        9.614830
   66        9.617604
   67       11.138437
   68       11.148029
   69       11.150177
   70       11.155969
   71       13.094722
   72       13.149008
   73       13.154151
   74       14.200487
   75       14.207817
   76       14.705943
   77       15.051728
   78       15.237477
   79       15.244337
   80       15.469757
   81       16.649092
   82       16.830258
   83       16.834597
   84       17.496871
 
  0.1694066E-20  0.1111111E+00  0.0000000E+00  0.6172840E-02
    1      -12.365228
    2      -11.286686
    3      -11.283030
    4       -9.604848
    5       -7.698118
    6       -7.106219
    7       -7.102861
    8       -6.775538
    9       -6.772426
   10       -6.231861
   11       -6.228363
   12       -6.227747
   13       -6.224136
   14       -5.755759
   15       -5.753238
   16       -5.633033
   17       -4.686691
   18       -4.612340
   19       -4.607414
   20       -4.605969
   21       -4.601987
   22       -4.594418
   23       -4.589220
   24       -4.073812
   25       -4.071152
   26       -3.527036
   27       -3.521374
   28       -2.977071
   29       -2.358436
   30        1.352368
   31        1.358625
   32        1.521481
   33        1.527268
   34        1.683297
   35        1.817201
   36        1.820910
   37        1.823696
   38        1.827499
   39        2.127948
   40        2.129491
   41        2.346819
   42        2.353456
   43        2.618131
   44        2.929415
   45        3.443250
   46        3.446007
   47        4.911041
   48        5.067283
   49        5.157733
   50        5.158988
   51        5.301295
   52        5.302527
   53        5.406527
   54        5.537512
   55        5.972807
   56        5.979974
   57        6.080468
   58        6.159734
   59        6.161740
   60        6.313915
   61        6.321259
   62        6.322368
   63        6.329980
   64        6.561049
   65       10.265378
   66       10.274584
   67       10.275491
   68       10.284524
   69       10.631104
   70       10.638222
   71       11.471151
   72       11.756577
   73       11.762905
   74       12.692829
   75       12.698053
   76       13.283843
   77       14.260750
   78       14.576498
   79       14.582714
   80       15.784037
   81       15.787735
   82       16.048524
   83       16.051387
   84       16.056225
 
  0.1111111E+00  0.1111111E+00  0.0000000E+00  0.6172840E-02
    1      -12.212033
    2      -11.137662
    3      -11.134019
    4       -9.467284
    5       -8.191538
    6       -8.187668
    7       -7.245428
    8       -7.241001
    9       -7.240781
   10       -7.235947
   11       -6.609452
   12       -5.923550
   13       -5.919027
   14       -5.912020
   15       -5.807397
   16       -5.804374
   17       -4.775611
   18       -4.771224
   19       -4.133553
   20       -4.114719
   21       -4.110728
   22       -3.830781
   23       -3.380753
   24       -3.377311
   25       -3.377140
   26       -3.371115
   27       -2.324868
   28       -2.320216
   29       -2.176404
   30        0.610903
   31        1.120248
   32        1.123833
   33        1.502986
   34        1.506312
   35        1.682776
   36        1.688548
   37        1.739268
   38        1.961472
   39        1.966513
   40        1.966939
   41        1.968798
   42        2.447250
   43        2.450177
   44        2.486520
   45        2.490095
   46        3.827540
   47        4.337027
   48        4.605384
   49        4.619830
   50        4.627406
   51        4.975201
   52        4.982512
   53        5.034613
   54        5.244161
   55        5.640055
   56        5.647830
   57        5.648375
   58        5.654534
   59        6.137096
   60        6.216920
   61        6.614544
   62        6.623155
   63        7.139689
   64        7.143326
   65       10.088224
   66       10.097485
   67       11.116724
   68       11.122534
   69       11.123298
   70       11.129695
   71       11.142163
   72       11.149153
   73       11.564055
   74       12.380833
   75       13.703602
   76       13.706533
   77       14.685835
   78       14.690995
   79       15.548618
   80       16.174335
   81       16.182673
   82       16.184193
   83       16.191203
   84       16.487815
 
  0.2222222E+00  0.1111111E+00  0.0000000E+00  0.6172840E-02
    1      -11.906391
    2      -10.840367
    3      -10.836752
    4       -9.205254
    5       -9.192642
    6       -8.549344
    7       -8.219929
    8       -8.216578
    9       -7.587420
   10       -7.584145
   11       -6.782685
   12       -6.697318
   13       -6.210397
   14       -5.839233
   15       -5.836231
   16       -5.368518
   17       -4.258456
   18       -4.253427
   19       -4.248637
   20       -3.309787
   21       -3.249236
   22       -2.699033
   23       -2.584745
   24       -2.582179
   25       -1.979648
   26       -1.976166
   27       -1.813699
   28       -1.615925
   29       -1.024474
   30       -0.345329
   31        0.187469
   32        0.191087
   33        0.905479
   34        0.935898
   35        1.335752
   36        1.418224
   37        1.420144
   38        1.803084
   39        1.998621
   40        2.004281
   41        2.017980
   42        2.078669
   43        2.250043
   44        2.253669
   45        2.762148
   46        3.285149
   47        3.665719
   48        3.672649
   49        3.850985
   50        3.936354
   51        4.332185
   52        4.426866
   53        4.433928
   54        4.761920
   55        4.764425
   56        4.768856
   57        5.382977
   58        5.389624
   59        6.482983
   60        6.631531
   61        6.807926
   62        6.816310
   63        7.768884
   64        7.836606
   65       10.084171
   66       10.093138
   67       10.686067
   68       10.844069
   69       11.225487
   70       11.636772
   71       11.643761
   72       12.323057
   73       12.330472
   74       12.542563
   75       13.896675
   76       14.784256
   77       14.905799
   78       15.763931
   79       16.348515
   80       16.358524
   81       16.364434
   82       16.444281
   83       16.447976
   84       16.752164
 
  0.3333333E+00  0.1111111E+00  0.0000000E+00  0.6172840E-02
    1      -11.449760
    2      -10.396424
    3      -10.392847
    4      -10.094104
    5       -9.080581
    6       -9.077149
    7       -8.783186
    8       -8.767745
    9       -7.797911
   10       -7.794609
   11       -7.570511
   12       -6.867770
   13       -6.396306
   14       -5.979972
   15       -5.976927
   16       -4.896900
   17       -4.030526
   18       -3.466400
   19       -3.462522
   20       -2.659263
   21       -2.435129
   22       -1.777414
   23       -1.774829
   24       -1.273403
   25       -1.168635
   26       -1.161587
   27       -1.051419
   28       -0.780619
   29       -0.776844
   30       -0.516263
   31       -0.512616
   32       -0.006527
   33        0.315340
   34        0.316575
   35        0.329506
   36        0.690492
   37        0.692976
   38        1.347423
   39        1.848217
   40        1.913407
   41        2.243255
   42        2.254339
   43        2.258494
   44        2.634423
   45        2.639941
   46        2.666497
   47        2.670359
   48        2.870340
   49        3.159082
   50        3.514292
   51        3.801618
   52        3.807636
   53        3.898321
   54        3.903870
   55        3.909745
   56        4.210457
   57        5.216261
   58        5.222821
   59        6.863163
   60        6.898943
   61        6.906824
   62        7.494824
   63        7.752339
   64        8.292477
   65        9.638538
   66       10.170013
   67       10.178185
   68       10.610149
   69       12.042534
   70       12.049720
   71       12.292500
   72       12.685052
   73       13.594290
   74       13.601603
   75       13.913072
   76       15.218397
   77       15.379706
   78       15.721411
   79       15.728808
   80       15.899646
   81       16.013190
   82       16.836409
   83       16.840652
   84       17.305191
 
  0.4444444E+00  0.1111111E+00  0.0000000E+00  0.6172840E-02
    1      -10.846330
    2      -10.842634
    3       -9.811381
    4       -9.806762
    5       -9.806370
    6       -9.802062
    7       -8.840913
    8       -8.242947
    9       -8.238930
   10       -7.868363
   11       -7.865054
   12       -6.930783
   13       -6.459631
   14       -6.035666
   15       -6.032607
   16       -4.842921
   17       -3.538788
   18       -2.961444
   19       -2.958035
   20       -2.722002
   21       -1.831869
   22       -1.343394
   23       -1.340119
   24       -1.308646
   25       -1.304713
   26       -1.143071
   27       -1.120317
   28       -0.667647
   29       -0.561724
   30       -0.558477
   31        0.235233
   32        0.239440
   33        0.347644
   34        0.391150
   35        0.394958
   36        0.825926
   37        0.953122
   38        0.953872
   39        0.954854
   40        0.962097
   41        1.643777
   42        1.648228
   43        1.770457
   44        2.811560
   45        2.818021
   46        3.120422
   47        3.125060
   48        3.126821
   49        3.130509
   50        3.214823
   51        3.222248
   52        3.224244
   53        3.225401
   54        3.651781
   55        3.658220
   56        3.873200
   57        5.159259
   58        5.165830
   59        6.922623
   60        6.929931
   61        7.318827
   62        7.322775
   63        8.424241
   64        8.510850
   65        8.657490
   66       10.219862
   67       10.227316
   68       10.509744
   69       12.197932
   70       12.205434
   71       12.735159
   72       13.816458
   73       13.821709
   74       13.891381
   75       14.768090
   76       14.771590
   77       14.773605
   78       14.781961
   79       15.600113
   80       15.604318
   81       17.037819
   82       17.040490
   83       17.343216
   84       17.346504
 
 -0.4444444E+00  0.1111111E+00  0.0000000E+00  0.6172840E-02
    1      -11.449872
    2      -10.396535
    3      -10.392959
    4      -10.093931
    5       -9.080403
    6       -9.076963
    7       -8.783505
    8       -8.767791
    9       -7.798115
   10       -7.794814
   11       -7.570388
   12       -6.867586
   13       -6.396490
   14       -5.979873
   15       -5.976859
   16       -4.897273
   17       -4.026944
   18       -3.463038
   19       -3.460591
   20       -2.658336
   21       -2.438287
   22       -1.780844
   23       -1.776885
   24       -1.273443
   25       -1.169144
   26       -1.162658
   27       -1.052526
   28       -0.782894
   29       -0.780742
   30       -0.516355
   31       -0.512328
   32       -0.010035
   33        0.315493
   34        0.317311
   35        0.330836
   36        0.692955
   37        0.697444
   38        1.351416
   39        1.848243
   40        1.912727
   41        2.242455
   42        2.254032
   43        2.257126
   44        2.634027
   45        2.639388
   46        2.666075
   47        2.670493
   48        2.866453
   49        3.159135
   50        3.518371
   51        3.804003
   52        3.808090
   53        3.897617
   54        3.904149
   55        3.909986
   56        4.211198
   57        5.216440
   58        5.223119
   59        6.863416
   60        6.898333
   61        6.905608
   62        7.495018
   63        7.752125
   64        8.293769
   65        9.639594
   66       10.172586
   67       10.179721
   68       10.606902
   69       12.040841
   70       12.048557
   71       12.292637
   72       12.685631
   73       13.594175
   74       13.601824
   75       13.913345
   76       15.217511
   77       15.379148
   78       15.723348
   79       15.729825
   80       15.900887
   81       16.015192
   82       16.835625
   83       16.840103
   84       17.282849
 
 -0.3333333E+00  0.1111111E+00  0.0000000E+00  0.6172840E-02
    1      -11.906471
    2      -10.840447
    3      -10.836832
    4       -9.205027
    5       -9.192720
    6       -8.549774
    7       -8.219738
    8       -8.216390
    9       -7.587852
   10       -7.584579
   11       -6.782545
   12       -6.697008
   13       -6.210728
   14       -5.839131
   15       -5.836336
   16       -5.367630
   17       -4.253459
   18       -4.251259
   19       -4.246841
   20       -3.313032
   21       -3.246691
   22       -2.699125
   23       -2.588285
   24       -2.584669
   25       -1.979833
   26       -1.976192
   27       -1.813729
   28       -1.618696
   29       -1.024377
   30       -0.348962
   31        0.184410
   32        0.186377
   33        0.901406
   34        0.939894
   35        1.335822
   36        1.421466
   37        1.425635
   38        1.802839
   39        1.998623
   40        2.004247
   41        2.022540
   42        2.078818
   43        2.249838
   44        2.253786
   45        2.762305
   46        3.283131
   47        3.664211
   48        3.667581
   49        3.846358
   50        3.935667
   51        4.337090
   52        4.432210
   53        4.435410
   54        4.761918
   55        4.766657
   56        4.768793
   57        5.383354
   58        5.390249
   59        6.483131
   60        6.632279
   61        6.806790
   62        6.814306
   63        7.770159
   64        7.836419
   65       10.088686
   66       10.095931
   67       10.687692
   68       10.839667
   69       11.225375
   70       11.633744
   71       11.641640
   72       12.323062
   73       12.330755
   74       12.543870
   75       13.896501
   76       14.785394
   77       14.905225
   78       15.769297
   79       16.355551
   80       16.360933
   81       16.366230
   82       16.443553
   83       16.447511
   84       16.755309
 
 -0.2222222E+00  0.1111111E+00  0.0000000E+00  0.6172840E-02
    1      -12.212081
    2      -11.137710
    3      -11.134068
    4       -9.467335
    5       -8.190280
    6       -8.189349
    7       -7.243852
    8       -7.241342
    9       -7.240613
   10       -7.238147
   11       -6.609194
   12       -5.921477
   13       -5.920887
   14       -5.910881
   15       -5.807143
   16       -5.804957
   17       -4.770652
   18       -4.769200
   19       -4.132240
   20       -4.116458
   21       -4.111985
   22       -3.827683
   23       -3.382004
   24       -3.378489
   25       -3.377791
   26       -3.374113
   27       -2.325948
   28       -2.322019
   29       -2.176424
   30        0.606656
   31        1.116809
   32        1.118600
   33        1.503732
   34        1.510099
   35        1.682768
   36        1.688536
   37        1.734814
   38        1.963196
   39        1.966945
   40        1.969607
   41        1.973480
   42        2.448555
   43        2.449139
   44        2.487463
   45        2.494051
   46        3.826642
   47        4.331305
   48        4.605805
   49        4.616479
   50        4.618237
   51        4.985079
   52        4.986134
   53        5.033533
   54        5.250245
   55        5.641175
   56        5.647830
   57        5.648446
   58        5.654986
   59        6.138153
   60        6.216920
   61        6.613199
   62        6.620875
   63        7.140673
   64        7.142933
   65       10.093586
   66       10.101008
   67       11.112465
   68       11.121908
   69       11.122363
   70       11.128518
   71       11.139982
   72       11.147134
   73       11.566005
   74       12.383074
   75       13.702981
   76       13.706996
   77       14.687679
   78       14.694025
   79       15.542943
   80       16.179184
   81       16.183416
   82       16.189168
   83       16.191319
   84       16.476061
 
 -0.1111111E+00  0.1111111E+00  0.0000000E+00  0.6172840E-02
    1      -12.365244
    2      -11.286702
    3      -11.283046
    4       -9.604865
    5       -7.698906
    6       -7.104999
    7       -7.103104
    8       -6.776208
    9       -6.773078
   10       -6.231693
   11       -6.227834
   12       -6.226501
   13       -6.224876
   14       -5.756112
   15       -5.752155
   16       -5.633137
   17       -4.690125
   18       -4.607985
   19       -4.606518
   20       -4.605160
   21       -4.602922
   22       -4.592332
   23       -4.588159
   24       -4.077002
   25       -4.073422
   26       -3.524235
   27       -3.521826
   28       -2.979691
   29       -2.358443
   30        1.351732
   31        1.354656
   32        1.521483
   33        1.527269
   34        1.688031
   35        1.815826
   36        1.820595
   37        1.821070
   38        1.822552
   39        2.131625
   40        2.135416
   41        2.346127
   42        2.349423
   43        2.623028
   44        2.929813
   45        3.443548
   46        3.445040
   47        4.904253
   48        5.074279
   49        5.148010
   50        5.155145
   51        5.305113
   52        5.312412
   53        5.399484
   54        5.544539
   55        5.973790
   56        5.981419
   57        6.080612
   58        6.159756
   59        6.162268
   60        6.312480
   61        6.321230
   62        6.322691
   63        6.327803
   64        6.561050
   65       10.270109
   66       10.275594
   67       10.277072
   68       10.286254
   69       10.626371
   70       10.634859
   71       11.467630
   72       11.759282
   73       11.762187
   74       12.695222
   75       12.698984
   76       13.281822
   77       14.265986
   78       14.574430
   79       14.579258
   80       15.788537
   81       15.792487
   82       16.042604
   83       16.049755
   84       16.053023
 
  0.1694066E-20  0.2222222E+00  0.0000000E+00  0.6172840E-02
    1      -12.135547
    2      -11.063258
    3      -11.059623
    4       -9.398606
    5       -8.765867
    6       -7.796353
    7       -7.793058
    8       -7.490598
    9       -7.486886
   10       -6.577623
   11       -6.573791
   12       -6.573025
   13       -6.569115
   14       -6.401056
   15       -5.449277
   16       -5.447545
   17       -4.506575
   18       -4.500774
   19       -3.905951
   20       -3.901229
   21       -3.899716
   22       -3.894922
   23       -3.472679
   24       -2.842151
   25       -2.836270
   26       -2.728340
   27       -2.725714
   28       -2.085608
   29       -1.709337
   30        0.686597
   31        0.692501
   32        1.189517
   33        1.193337
   34        1.195998
   35        1.199872
   36        1.762618
   37        1.768361
   38        1.804035
   39        1.810473
   40        1.823539
   41        1.904435
   42        2.343172
   43        2.344703
   44        2.826661
   45        3.178743
   46        3.182438
   47        3.975033
   48        4.325411
   49        4.326892
   50        4.583809
   51        4.688421
   52        4.880801
   53        4.882122
   54        5.151132
   55        5.157718
   56        5.191408
   57        6.207467
   58        6.215144
   59        6.216215
   60        6.223679
   61        6.284392
   62        6.800771
   63        6.803604
   64        7.522226
   65       10.568993
   66       10.577995
   67       10.579458
   68       10.588268
   69       11.114028
   70       11.128040
   71       11.134168
   72       11.709096
   73       11.715990
   74       12.966205
   75       12.970403
   76       14.368547
   77       14.426744
   78       15.597884
   79       15.604807
   80       15.987404
   81       15.990992
   82       16.250651
   83       16.466878
   84       16.469123
 
  0.1111111E+00  0.2222222E+00  0.0000000E+00  0.6172840E-02
    1      -11.906397
    2      -10.840372
    3      -10.836757
    4       -9.205095
    5       -9.192896
    6       -8.549256
    7       -8.220004
    8       -8.216653
    9       -7.587366
   10       -7.584092
   11       -6.782739
   12       -6.697252
   13       -6.210456
   14       -5.839213
   15       -5.836206
   16       -5.368518
   17       -4.258351
   18       -4.253419
   19       -4.248712
   20       -3.308501
   21       -3.248893
   22       -2.700306
   23       -2.583932
   24       -2.580444
   25       -1.980425
   26       -1.977903
   27       -1.813687
   28       -1.614423
   29       -1.025932
   30       -0.345559
   31        0.187453
   32        0.190887
   33        0.905420
   34        0.934033
   35        1.336040
   36        1.415759
   37        1.419062
   38        1.804979
   39        1.998626
   40        2.004311
   41        2.016107
   42        2.078342
   43        2.252915
   44        2.254580
   45        2.764092
   46        3.283383
   47        3.665649
   48        3.669655
   49        3.852157