   32   32    1    1
  0.7976710E+01  0.4934311E-09  0.4934311E-09  0.1210634E-08  0.5000000E-15
  1.000000000000000E-004
  CAR 
 graphite                                
    128    163     84
 
  0.0000000E+00  0.0000000E+00  0.0000000E+00  0.3086420E-02
    1      -14.152132
    2      -13.854904
    3      -13.854074
    4      -13.515953
    5       -8.752391
    6       -8.750912
    7       -8.749284
    8       -8.607882
    9       -8.604103
   10       -8.603620
   11       -8.603202
   12       -8.602898
   13       -8.599114
   14       -8.511457
   15       -8.509144
   16       -8.506124
   17       -7.601995
   18       -7.598404
   19       -7.595972
   20       -7.560966
   21       -7.557272
   22       -7.556102
   23       -7.555759
   24       -7.555465
   25       -7.551236
   26       -7.425279
   27       -7.422202
   28       -7.420316
   29       -3.380386
   30       -1.959484
   31       -1.956937
   32       -0.792977
   33       -0.790343
   34       -0.786077
   35       -0.724294
   36       -0.720141
   37       -0.720121
   38       -0.719500
   39       -0.716992
   40       -0.713299
   41       -0.649998
   42       -0.647594
   43       -0.643048
   44       -0.167855
   45        2.511369
   46        2.512756
   47        2.514292
   48        2.624727
   49        2.636548
   50        2.648934
   51        2.655206
   52        2.659986
   53        2.666288
   54        2.678334
   55        2.690254
   56        3.268737
   57        3.274094
   58        3.274326
   59        3.274649
   60        3.275156
   61        3.280247
   62        3.623211
   63        3.625402
   64        3.627593
   65        7.255285
   66        7.262734
   67        7.263997
   68        7.264741
   69        7.265211
   70        7.270224
   71        7.283947
   72        7.287269
   73        7.291619
   74        8.162112
   75        8.166411
   76        8.168734
   77       11.034960
   78       12.621622
   79       12.625533
   80       12.630120
   81       13.009586
   82       13.010920
   83       13.011952
   84       13.016708
 
  0.1111111E+00 -0.1387779E-16  0.0000000E+00  0.6172840E-02
    1      -14.077902
    2      -13.781794
    3      -13.780967
    4      -13.444147
    5       -9.580830
    6       -9.358631
    7       -9.357938
    8       -9.117614
    9       -9.022993
   10       -9.020798
   11       -8.827170
   12       -8.825503
   13       -8.824781
   14       -8.822178
   15       -8.629618
   16       -8.626718
   17       -7.363939
   18       -7.360390
   19       -7.219119
   20       -7.216008
   21       -7.214489
   22       -7.213815
   23       -7.032607
   24       -7.029509
   25       -6.867245
   26       -6.692924
   27       -6.690621
   28       -6.495202
   29       -3.290124
   30       -1.873067
   31       -1.870522
   32       -1.022005
   33       -1.017158
   34       -0.945215
   35       -0.944464
   36       -0.941402
   37       -0.937847
   38       -0.865488
   39       -0.860376
   40       -0.719602
   41       -0.650671
   42       -0.647951
   43       -0.577508
   44       -0.086528
   45        1.868105
   46        2.327683
   47        2.360077
   48        2.365063
   49        2.376761
   50        2.379007
   51        2.398343
   52        2.464684
   53        2.494693
   54        2.499950
   55        2.529900
   56        2.847178
   57        2.850597
   58        3.220769
   59        3.222400
   60        3.222891
   61        3.228020
   62        3.707291
   63        3.750511
   64        3.753297
   65        7.285104
   66        7.290239
   67        7.387542
   68        7.393623
   69        7.394927
   70        7.397178
   71        7.433400
   72        7.802488
   73        7.807329
   74        8.298465
   75        8.302629
   76        8.807951
   77       11.117796
   78       12.667620
   79       12.960227
   80       12.966810
   81       13.049187
   82       13.050813
   83       13.343183
   84       13.351011
 
  0.2222222E+00 -0.1387779E-16  0.0000000E+00  0.6172840E-02
    1      -13.855569
    2      -13.562713
    3      -13.561893
    4      -13.229344
    5      -10.602659
    6      -10.358505
    7      -10.357802
    8      -10.088256
    9       -9.381582
   10       -9.379553
   11       -9.163652
   12       -9.161941
   13       -9.161404
   14       -9.159315
   15       -8.926200
   16       -8.923902
   17       -6.699372
   18       -6.696074
   19       -6.529957
   20       -6.527124
   21       -6.525488
   22       -6.524811
   23       -6.337979
   24       -6.334816
   25       -5.540127
   26       -5.372054
   27       -5.369918
   28       -5.188708
   29       -3.020802
   30       -1.638229
   31       -1.633736
   32       -1.614593
   33       -1.612059
   34       -1.546604
   35       -1.546093
   36       -1.543162
   37       -1.539714
   38       -1.449984
   39       -1.445245
   40       -0.504159
   41       -0.436480
   42       -0.433594
   43       -0.364613
   44        0.156033
   45        0.802053
   46        1.487948
   47        1.540400
   48        1.545287
   49        1.598479
   50        1.963203
   51        1.966043
   52        2.038025
   53        2.078871
   54        2.084491
   55        2.122272
   56        2.125366
   57        2.128622
   58        3.099583
   59        3.101338
   60        3.101829
   61        3.106774
   62        3.280331
   63        3.962788
   64        3.965749
   65        7.381116
   66        7.386108
   67        7.720568
   68        7.726631
   69        7.727760
   70        7.729995
   71        8.376736
   72        8.582061
   73        8.585702
   74        9.018987
   75        9.022954
   76       10.010369
   77       11.367556
   78       12.795462
   79       13.166167
   80       13.168013
   81       13.535891
   82       13.889597
   83       13.917823
   84       13.951937
 
  0.3333333E+00 -0.2775558E-16  0.0000000E+00  0.6172840E-02
    1      -13.486336
    2      -13.198859
    3      -13.198051
    4      -12.872577
    5      -11.523054
    6      -11.264365
    7      -11.263618
    8      -10.975366
    9       -9.642982
   10       -9.641071
   11       -9.416563
   12       -9.414781
   13       -9.414439
   14       -9.412497
   15       -9.166935
   16       -9.164858
   17       -5.886263
   18       -5.882927
   19       -5.727349
   20       -5.724252
   21       -5.722568
   22       -5.722059
   23       -5.552718
   24       -5.549510
   25       -4.095855
   26       -3.947481
   27       -3.945147
   28       -3.786612
   29       -2.574650
   30       -2.461087
   31       -2.457213
   32       -2.357224
   33       -2.356995
   34       -2.354615
   35       -2.351105
   36       -2.244884
   37       -2.240695
   38       -1.187543
   39       -1.185042
   40       -0.243389
   41       -0.154586
   42       -0.088970
   43       -0.085823
   44       -0.019155
   45        0.286801
   46        0.363977
   47        0.368105
   48        0.446049
   49        0.555146
   50        1.015350
   51        1.017995
   52        1.470411
   53        1.521067
   54        1.525578
   55        1.577069
   56        1.908910
   57        1.910782
   58        2.537454
   59        2.975611
   60        2.977444
   61        2.977928
   62        2.982741
   63        4.104571
   64        4.107546
   65        7.612766
   66        7.617033
   67        8.109830
   68        8.115785
   69        8.116661
   70        8.118735
   71        8.829645
   72        8.832925
   73        9.842638
   74       10.488505
   75       10.492088
   76       11.369334
   77       11.784199
   78       12.989896
   79       13.351266
   80       13.353462
   81       13.599925
   82       13.815494
   83       13.864063
   84       13.868559
 
  0.4444444E+00 -0.2775558E-16  0.0000000E+00  0.6172840E-02
    1      -12.972030
    2      -12.692058
    3      -12.691267
    4      -12.375602
    5      -12.315789
    6      -12.045457
    7      -12.044679
    8      -11.741400
    9       -9.777204
   10       -9.775355
   11       -9.547662
   12       -9.545805
   13       -9.545638
   14       -9.543705
   15       -9.293678
   16       -9.291690
   17       -5.116729
   18       -5.113784
   19       -4.998306
   20       -4.994156
   21       -4.993457
   22       -4.992909
   23       -4.877727
   24       -4.875171
   25       -3.193414
   26       -3.191207
   27       -3.115405
   28       -3.114189
   29       -3.113837
   30       -3.109906
   31       -3.013297
   32       -3.010398
   33       -2.602069
   34       -2.476592
   35       -2.473830
   36       -2.340942
   37       -1.956169
   38       -1.174178
   39       -1.115016
   40       -1.016502
   41       -1.013057
   42       -0.904659
   43       -0.593830
   44       -0.591056
   45        0.145298
   46        0.147906
   47        0.312709
   48        0.375188
   49        0.378728
   50        0.442238
   51        0.870072
   52        0.927939
   53        0.931757
   54        0.990499
   55        1.101333
   56        1.775661
   57        1.791534
   58        1.793471
   59        2.901038
   60        2.902930
   61        2.903409
   62        2.908143
   63        4.161789
   64        4.164709
   65        7.835799
   66        7.838826
   67        8.375057
   68        8.380937
   69        8.381653
   70        8.383536
   71        8.944400
   72        8.947698
   73       11.482376
   74       12.013469
   75       12.017245
   76       12.358646
   77       12.762214
   78       13.012273
   79       13.114345
   80       13.354613
   81       13.367668
   82       13.373712
   83       13.578040
   84       13.595363
 
 -0.8470329E-21  0.1111111E+00  0.0000000E+00  0.6172840E-02
    1      -14.077903
    2      -13.781796
    3      -13.780968
    4      -13.444149
    5       -9.580765
    6       -9.358509
    7       -9.357864
    8       -9.117483
    9       -9.023328
   10       -9.020702
   11       -8.827596
   12       -8.825466
   13       -8.824764
   14       -8.822485
   15       -8.629494
   16       -8.627343
   17       -7.363958
   18       -7.358977
   19       -7.219519
   20       -7.215998
   21       -7.214447
   22       -7.210858
   23       -7.032898
   24       -7.027960
   25       -6.868318
   26       -6.693095
   27       -6.692549
   28       -6.496241
   29       -3.290119
   30       -1.873061
   31       -1.870516
   32       -1.023187
   33       -1.017367
   34       -0.947272
   35       -0.944469
   36       -0.941401
   37       -0.938596
   38       -0.866592
   39       -0.860719
   40       -0.718110
   41       -0.648022
   42       -0.647740
   43       -0.576129
   44       -0.086519
   45        1.868819
   46        2.325032
   47        2.358913
   48        2.360088
   49        2.376049
   50        2.378770
   51        2.394469
   52        2.468528
   53        2.499939
   54        2.500977
   55        2.532586
   56        2.848553
   57        2.851312
   58        3.218790
   59        3.222726
   60        3.222938
   61        3.226925
   62        3.708782
   63        3.749725
   64        3.752564
   65        7.285436
   66        7.292151
   67        7.388094
   68        7.393583
   69        7.395334
   70        7.400715
   71        7.431165
   72        7.801534
   73        7.804400
   74        8.298589
   75        8.304716
   76        8.806233
   77       11.117809
   78       12.668158
   79       12.960261
   80       12.966092
   81       13.050070
   82       13.051060
   83       13.345354
   84       13.347218
 
  0.1111111E+00  0.1111111E+00  0.0000000E+00  0.6172840E-02
    1      -13.929608
    2      -13.635677
    3      -13.634854
    4      -13.300855
    5      -10.051268
    6      -10.047992
    7       -9.818596
    8       -9.815254
    9       -9.815220
   10       -9.811880
   11       -9.559875
   12       -9.556463
   13       -8.560091
   14       -8.416065
   15       -8.414342
   16       -8.321693
   17       -7.416562
   18       -7.378077
   19       -7.374723
   20       -7.248188
   21       -6.186996
   22       -6.183512
   23       -6.013944
   24       -6.011370
   25       -6.011330
   26       -6.006738
   27       -5.822682
   28       -5.818966
   29       -3.110330
   30       -1.710122
   31       -1.700578
   32       -1.698039
   33       -1.618335
   34       -1.615746
   35       -1.519958
   36       -0.877824
   37       -0.874814
   38       -0.803608
   39       -0.799464
   40       -0.799443
   41       -0.797775
   42       -0.723229
   43       -0.720399
   44        0.075437
   45        1.406842
   46        1.409140
   47        1.794862
   48        1.828878
   49        1.834232
   50        1.863004
   51        2.157537
   52        2.180409
   53        2.185761
   54        2.214432
   55        2.489333
   56        2.493531
   57        2.493815
   58        2.496552
   59        2.778843
   60        3.538409
   61        3.542484
   62        3.623560
   63        3.626528
   64        3.879985
   65        7.184746
   66        7.190329
   67        7.295465
   68        7.794412
   69        7.797674
   70        7.907002
   71        8.340520
   72        8.342577
   73        8.342990
   74        8.348122
   75        9.318320
   76        9.320977
   77       11.284490
   78       13.045809
   79       13.050121
   80       13.419567
   81       13.424901
   82       13.424990
   83       13.428856
   84       13.826457
 
  0.2222222E+00  0.1111111E+00  0.0000000E+00  0.6172840E-02
    1      -13.633832
    2      -13.344182
    3      -13.343369
    4      -13.015010
    5      -11.025007
    6      -10.774122
    7      -10.773403
    8      -10.495163
    9      -10.394476
   10      -10.153837
   11      -10.153144
   12       -9.887741
   13       -8.632834
   14       -8.442985
   15       -8.441928
   16       -8.252601
   17       -7.012703
   18       -6.876789
   19       -6.873952
   20       -6.703270
   21       -5.396641
   22       -5.234567
   23       -5.233984
   24       -5.060103
   25       -4.794612
   26       -4.637655
   27       -4.635494
   28       -4.467167
   29       -2.752505
   30       -2.626844
   31       -2.519085
   32       -2.516534
   33       -2.401190
   34       -1.410607
   35       -1.357725
   36       -1.355198
   37       -1.321917
   38       -1.321327
   39       -1.228478
   40       -0.589533
   41       -0.516949
   42       -0.514147
   43       -0.439457
   44        0.332354
   45        0.396437
   46        0.829062
   47        0.883265
   48        0.888741
   49        0.940037
   50        1.056118
   51        1.545982
   52        1.548680
   53        1.602739
   54        1.639541
   55        1.645205
   56        1.686226
   57        2.207045
   58        2.209702
   59        2.894570
   60        2.980879
   61        3.515371
   62        3.739197
   63        3.743156
   64        4.262158
   65        7.175514
   66        7.193816
   67        7.198410
   68        7.821862
   69        8.306496
   70        8.908435
   71        8.911303
   72        9.053903
   73        9.705951
   74        9.709395
   75        9.744539
   76       10.605873
   77       11.619819
   78       13.211316
   79       13.574999
   80       13.576912
   81       13.898804
   82       14.021091
   83       14.116634
   84       14.120577
 
  0.3333333E+00  0.1111111E+00  0.0000000E+00  0.6172840E-02
    1      -13.192043
    2      -12.908831
    3      -12.908032
    4      -12.588143
    5      -11.882254
    6      -11.618238
    7      -11.617482
    8      -11.322491
    9      -10.604471
   10      -10.360138
   11      -10.359435
   12      -10.089486
   13       -8.786896
   14       -8.578751
   15       -8.578040
   16       -8.354473
   17       -6.256225
   18       -6.110237
   19       -6.107561
   20       -5.949826
   21       -4.583925
   22       -4.447592
   23       -4.446412
   24       -4.304453
   25       -3.561430
   26       -3.454941
   27       -3.452232
   28       -3.332962
   29       -3.329546
   30       -3.197752
   31       -3.195373
   32       -3.052316
   33       -2.220015
   34       -2.110739
   35       -2.020181
   36       -2.018722
   37       -1.917979
   38       -0.850415
   39       -0.848048
   40       -0.660933
   41       -0.434864
   42       -0.349863
   43       -0.345415
   44       -0.263853
   45       -0.171318
   46       -0.102429
   47       -0.099434
   48       -0.028405
   49        0.628017
   50        0.630629
   51        0.837151
   52        0.869697
   53        0.968390
   54        1.020902
   55        1.025629
   56        1.080870
   57        2.024916
   58        2.027578
   59        2.207028
   60        2.864479
   61        3.426475
   62        3.827749
   63        3.831255
   64        4.704244
   65        6.940630
   66        7.312130
   67        7.316633
   68        7.930114
   69        8.799013
   70        9.360689
   71        9.363826
   72        9.986983
   73       10.616356
   74       11.202535
   75       11.205874
   76       11.967726
   77       12.121599
   78       13.366876
   79       13.662656
   80       13.771598
   81       13.783149
   82       13.785490
   83       13.851766
   84       13.866550
 
  0.4444444E+00  0.1111111E+00  0.0000000E+00  0.6172840E-02
    1      -12.608402
    2      -12.605338
    3      -12.334901
    4      -12.331879
    5      -12.331758
    6      -12.328598
    7      -12.024217
    8      -12.021034
    9      -10.674769
   10      -10.429529
   11      -10.428823
   12      -10.157329
   13       -8.844859
   14       -8.633136
   15       -8.632495
   16       -8.403079
   17       -5.726465
   18       -5.626412
   19       -5.623910
   20       -5.536026
   21       -4.080841
   22       -4.039075
   23       -3.995807
   24       -3.993804
   25       -3.992444
   26       -3.990806
   27       -3.917946
   28       -3.908375
   29       -2.500773
   30       -2.455652
   31       -2.452172
   32       -2.379997
   33       -1.857667
   34       -1.854546
   35       -1.747112
   36       -1.746680
   37       -1.746587
   38       -1.740300
   39       -1.630186
   40       -1.626576
   41       -1.520149
   42       -1.517680
   43       -0.183063
   44       -0.179059
   45       -0.178770
   46       -0.175863
   47        0.355431
   48        0.361489
   49        0.416499
   50        0.425172
   51        0.425237
   52        0.426849
   53        0.487873
   54        0.492532
   55        0.763425
   56        1.480693
   57        1.483659
   58        1.962522
   59        1.965246
   60        2.841538
   61        3.393181
   62        3.849256
   63        3.852328
   64        4.902531
   65        6.829188
   66        7.379660
   67        7.383343
   68        7.984374
   69        9.020987
   70        9.537383
   71        9.540923
   72       10.044908
   73       12.238328
   74       12.242017
   75       12.676728
   76       12.680841
   77       12.681972
   78       12.685776
   79       12.774258
   80       12.778078
   81       13.320246
   82       13.323651
   83       13.753694
   84       13.757435
 
 -0.4444444E+00  0.1111111E+00  0.0000000E+00  0.6172840E-02
    1      -13.192152
    2      -12.908942
    3      -12.908144
    4      -12.588253
    5      -11.882085
    6      -11.618072
    7      -11.617308
    8      -11.322318
    9      -10.604698
   10      -10.360362
   11      -10.359657
   12      -10.089703
   13       -8.786767
   14       -8.578606
   15       -8.577993
   16       -8.354425
   17       -6.253546
   18       -6.106840
   19       -6.105980
   20       -5.947537
   21       -4.586665
   22       -4.450988
   23       -4.448224
   24       -4.306891
   25       -3.564173
   26       -3.456961
   27       -3.456054
   28       -3.333916
   29       -3.331637
   30       -3.197887
   31       -3.195117
   32       -3.052198
   33       -2.220050
   34       -2.107687
   35       -2.017871
   36       -2.014483
   37       -1.914517
   38       -0.850433
   39       -0.848074
   40       -0.660891
   41       -0.435897
   42       -0.350365
   43       -0.347490
   44       -0.265475
   45       -0.171506
   46       -0.102766
   47       -0.099340
   48       -0.028467
   49        0.628024
   50        0.630666
   51        0.837174
   52        0.869771
   53        0.970140
   54        1.023104
   55        1.026150
   56        1.081922
   57        2.025035
   58        2.027862
   59        2.206946
   60        2.864020
   61        3.426909
   62        3.827317
   63        3.830167
   64        4.703027
   65        6.943604
   66        7.314845
   67        7.317943
   68        7.931065
   69        8.796727
   70        9.358785
   71        9.362711
   72        9.986334
   73       10.616642
   74       11.202779
   75       11.206423
   76       11.968389
   77       12.121621
   78       13.366004
   79       13.662274
   80       13.771654
   81       13.781821
   82       13.784684
   83       13.855290
   84       13.875680
 
 -0.3333333E+00  0.1111111E+00  0.0000000E+00  0.6172840E-02
    1      -13.633910
    2      -13.344260
    3      -13.343448
    4      -13.015089
    5      -11.024808
    6      -10.773923
    7      -10.773194
    8      -10.494933
    9      -10.394948
   10      -10.154277
   11      -10.153585
   12       -9.888164
   13       -8.632701
   14       -8.442687
   15       -8.442139
   16       -8.252669
   17       -7.009522
   18       -6.872617
   19       -6.872160
   20       -6.700444
   21       -5.399530
   22       -5.238217
   23       -5.235993
   24       -5.062874
   25       -4.794776
   26       -4.637864
   27       -4.635553
   28       -4.467270
   29       -2.752532
   30       -2.630456
   31       -2.521703
   32       -2.521279
   33       -2.404939
   34       -1.406578
   35       -1.357734
   36       -1.355212
   37       -1.318997
   38       -1.315994
   39       -1.224247
   40       -0.589581
   41       -0.517090
   42       -0.514022
   43       -0.439433
   44        0.332394
   45        0.396449
   46        0.826590
   47        0.881819
   48        0.884209
   49        0.936306
   50        1.056315
   51        1.545937
   52        1.548727
   53        1.606787
   54        1.644226
   55        1.646685
   56        1.688722
   57        2.207286
   58        2.210286
   59        2.893592
   60        2.980814
   61        3.516243
   62        3.738391
   63        3.741240
   64        4.260922
   65        7.180069
   66        7.197917
   67        7.200878
   68        7.824115
   69        8.302870
   70        8.905097
   71        8.909311
   72        9.054048
   73        9.706074
   74        9.709926
   75        9.742720
   76       10.606407
   77       11.619828
   78       13.210679
   79       13.574197
   80       13.576440
   81       13.897936
   82       14.026165
   83       14.121189
   84       14.123071
 
 -0.2222222E+00  0.1111111E+00  0.0000000E+00  0.6172840E-02
    1      -13.929655
    2      -13.635724
    3      -13.634902
    4      -13.300902
    5      -10.050219
    6      -10.049393
    7       -9.816243
    8       -9.815569
    9       -9.815301
   10       -9.814625
   11       -9.558752
   12       -9.558014
   13       -8.560086
   14       -8.415467
   15       -8.415092
   16       -8.321655
   17       -7.413297
   18       -7.373352
   19       -7.373100
   20       -7.245077
   21       -6.188492
   22       -6.184898
   23       -6.015106
   24       -6.013062
   25       -6.011600
   26       -6.009418
   27       -5.824060
   28       -5.820521
   29       -3.110346
   30       -1.714166
   31       -1.700586
   32       -1.698048
   33       -1.621289
   34       -1.620985
   35       -1.524117
   36       -0.876991
   37       -0.871150
   38       -0.802162
   39       -0.799356
   40       -0.796355
   41       -0.793454
   42       -0.722511
   43       -0.716628
   44        0.075443
   45        1.407727
   46        1.408637
   47        1.789386
   48        1.825511
   49        1.825780
   50        1.856408
   51        2.164501
   52        2.188931
   53        2.189217
   54        2.219973
   55        2.490557
   56        2.493538
   57        2.493744
   58        2.496747
   59        2.777587
   60        3.537392
   61        3.540279
   62        3.624318
   63        3.627020
   64        3.878966
   65        7.190435
   66        7.193437
   67        7.299131
   68        7.790618
   69        7.797183
   70        7.910752
   71        8.336658
   72        8.341162
   73        8.342679
   74        8.347106
   75        9.316083
   76        9.320862
   77       11.284493
   78       13.047287
   79       13.053330
   80       13.422906
   81       13.424805
   82       13.429017
   83       13.430754
   84       13.830852
 
 -0.1111111E+00  0.1111111E+00  0.0000000E+00  0.6172840E-02
    1      -14.077919
    2      -13.781811
    3      -13.780984
    4      -13.444165
    5       -9.581472
    6       -9.359186
    7       -9.358503
    8       -9.118056
    9       -9.022718
   10       -9.020548
   11       -8.827477
   12       -8.824611
   13       -8.824495
   14       -8.822445
   15       -8.629631
   16       -8.626728
   17       -7.361197
   18       -7.358926
   19       -7.215407
   20       -7.214653
   21       -7.214514
   22       -7.211118
   23       -7.030242
   24       -7.028219
   25       -6.871032
   26       -6.696481
   27       -6.694384
   28       -6.498787
   29       -3.290125
   30       -1.873065
   31       -1.870519
   32       -1.023808
   33       -1.021106
   34       -0.948393
   35       -0.944452
   36       -0.944428
   37       -0.943156
   38       -0.867094
   39       -0.864565
   40       -0.713690
   41       -0.644817
   42       -0.641939
   43       -0.571536
   44       -0.086517
   45        1.869424
   46        2.318256
   47        2.350666
   48        2.356606
   49        2.376113
   50        2.377709
   51        2.389128
   52        2.473845
   53        2.503454
   54        2.509367
   55        2.539535
   56        2.849195
   57        2.852773
   58        3.217611
   59        3.222664
   60        3.223393
   61        3.224855
   62        3.710316
   63        3.748948
   64        3.751957
   65        7.289278
   66        7.292543
   67        7.393369
   68        7.395458
   69        7.395925
   70        7.401988
   71        7.426474
   72        7.796521
   73        7.801318
   74        8.302413
   75        8.305012
   76        8.802761
   77       11.117809
   78       12.673232
   79       12.958514
   80       12.962559
   81       13.054787
   82       13.056358
   83       13.342382
   84       13.348515
 
 -0.3388132E-20  0.2222222E+00  0.0000000E+00  0.6172840E-02
    1      -13.855576
    2      -13.562720
    3      -13.561900
    4      -13.229351
    5      -10.602702
    6      -10.358541
    7      -10.357841
    8      -10.088285
    9       -9.382094
   10       -9.379109
   11       -9.164578
   12       -9.161917
   13       -9.161380
   14       -9.158603
   15       -8.926569
   16       -8.923658
   17       -6.699688
   18       -6.694622
   19       -6.530699
   20       -6.527122
   21       -6.525436
   22       -6.521790
   23       -6.338317
   24       -6.333254
   25       -5.541104
   26       -5.372235
   27       -5.371720
   28       -5.189723
   29       -3.020783
   30       -1.639511
   31       -1.633923
   32       -1.614570
   33       -1.612035
   34       -1.548926
   35       -1.546109
   36       -1.543161
   37       -1.540272
   38       -1.451179
   39       -1.445487
   40       -0.502610
   41       -0.433680
   42       -0.433431
   43       -0.363188
   44        0.156072
   45        0.802476
   46        1.485683
   47        1.540170
   48        1.540460
   49        1.595606
   50        1.963911
   51        1.966541
   52        2.041161
   53        2.084062
   54        2.084504
   55        2.122083
   56        2.124911
   57        2.130769
   58        3.097578
   59        3.101634
   60        3.101882
   61        3.105938
   62        3.281360
   63        3.961853
   64        3.965040
   65        7.381291
   66        7.388167
   67        7.721292
   68        7.726633
   69        7.728150
   70        7.733419
   71        8.374841
   72        8.582377
   73        8.587824
   74        9.018139
   75        9.020901
   76       10.009028
   77       11.367595
   78       12.796107
   79       13.167192
   80       13.168267
   81       13.536538
   82       13.892893
   83       13.928285
   84       13.973009
 
  0.1111111E+00  0.2222222E+00  0.0000000E+00  0.6172840E-02
    1      -13.633836
    2      -13.344187
    3      -13.343374
    4      -13.015015
    5      -11.025067
    6      -10.774178
    7      -10.773459
    8      -10.495215
    9      -10.394432
   10      -10.153802
   11      -10.153106
   12       -9.887714
   13       -8.632821
   14       -8.442983
   15       -8.441914
   16       -8.252597
   17       -7.012656
   18       -6.876655
   19       -6.873952
   20       -6.703181
   21       -5.395552
   22       -5.234149
   23       -5.232176
   24       -5.058957
   25       -4.795679
   26       -4.637917
   27       -4.637427
   28       -4.468303
   29       -2.752490
   30       -2.626943
   31       -2.519085
   32       -2.516716
   33       -2.401275
   34       -1.412136
   35       -1.357702
   36       -1.355179
   37       -1.324352
   38       -1.321868
   39       -1.229927
   40       -0.587910
   41       -0.514195
   42       -0.513780
   43       -0.437951
   44        0.332734
   45        0.396440
   46        0.827935
   47        0.883265
   48        0.886300
   49        0.938686