 vasp.5.3.5 31Mar14 (build Nov 02 2014 15:17:37) complex                        
  
 executed on        ion-Intel-MKL date 2016.08.14  01:29:05
 running on    6 total cores
 distrk:  each k-point on    6 cores,    1 groups
 distr:  one band on NCORES_PER_BAND=   1 cores,    6 groups


--------------------------------------------------------------------------------------------------------


 INCAR:
 POTCAR:   PAW_PBE C 08Apr2002                    

 ----------------------------------------------------------------------------- 
|                                                                             |
|           W    W    AA    RRRRR   N    N  II  N    N   GGGG   !!!           |
|           W    W   A  A   R    R  NN   N  II  NN   N  G    G  !!!           |
|           W    W  A    A  R    R  N N  N  II  N N  N  G       !!!           |
|           W WW W  AAAAAA  RRRRR   N  N N  II  N  N N  G  GGG   !            |
|           WW  WW  A    A  R   R   N   NN  II  N   NN  G    G                |
|           W    W  A    A  R    R  N    N  II  N    N   GGGG   !!!           |
|                                                                             |
|      For optimal performance we recommend to set                            |
|        NCORE= 4 - approx SQRT( number of cores)                             |
|      NCORE specifies how many cores store one orbital (NPAR=cpu/NCORE).     |
|      This setting can  greatly improve the performance of VASP for DFT.     |
|      The default, NPAR=number of cores might be grossly inefficient         |
|      on modern multi-core architectures or massively parallel machines.     |
|      Do your own testing !!!!                                               |
|      Unfortunately you need to use the default for GW and RPA calculations. |
|      (for HF NCORE is supported but not extensively tested yet)             |
|                                                                             |
 ----------------------------------------------------------------------------- 

 POTCAR:   PAW_PBE C 08Apr2002                    
   VRHFIN =C: s2p2                                                              
   LEXCH  = PE                                                                  
   EATOM  =   147.1560 eV,   10.8157 Ry                                         
                                                                                
   TITEL  = PAW_PBE C 08Apr2002                                                 
   LULTRA =        F    use ultrasoft PP ?                                      
   IUNSCR =        0    unscreen: 0-lin 1-nonlin 2-no                           
   RPACOR =     .000    partial core radius                                     
   POMASS =   12.011; ZVAL   =    4.000    mass and valenz                      
   RCORE  =    1.500    outmost cutoff radius                                   
   RWIGS  =    1.630; RWIGS  =     .863    wigner-seitz radius (au A)           
   ENMAX  =  400.000; ENMIN  =  300.000 eV                                      
   ICORE  =        2    local potential                                         
   LCOR   =        T    correct aug charges                                     
   LPAW   =        T    paw PP                                                  
   EAUG   =  644.873                                                            
   DEXC   =     .000                                                            
   RMAX   =    2.266    core radius for proj-oper                               
   RAUG   =    1.300    factor for augmentation sphere                          
   RDEP   =    1.501    radius for radial grids                                 
   RDEPT  =    1.300    core radius for aug-charge                              
   QCUT   =   -5.516; QGAM   =   11.032    optimization parameters              
                                                                                
   Description                                                                  
     l     E      TYP  RCUT    TYP  RCUT                                        
     0   .000     23  1.200                                                     
     0   .000     23  1.200                                                     
     1   .000     23  1.500                                                     
     1  2.500     23  1.500                                                     
     2   .000      7  1.500                                                     
  local pseudopotential read in
  atomic valenz-charges read in
  non local Contribution for L=           0  read in
    real space projection operators read in
  non local Contribution for L=           0  read in
    real space projection operators read in
  non local Contribution for L=           1  read in
    real space projection operators read in
  non local Contribution for L=           1  read in
    real space projection operators read in
    PAW grid and wavefunctions read in
 
   number of l-projection  operators is LMAX  =           4
   number of lm-projection operators is LMMAX =           8
 

 ----------------------------------------------------------------------------- 
|                                                                             |
|  ADVICE TO THIS USER RUNNING 'VASP/VAMP'   (HEAR YOUR MASTER'S VOICE ...):  |
|                                                                             |
|      You have a (more or less) 'large supercell' and for larger cells       |
|      it might be more efficient to use real space projection operators      |
|      So try LREAL= Auto  in the INCAR   file.                               |
|      Mind: If you want to do a very accurate calculations keep the          |
|      reciprocal projection scheme          (i.e. LREAL=.FALSE.)             |
|                                                                             |
 ----------------------------------------------------------------------------- 

 PAW_PBE C 08Apr2002                    :
 energy of atom  1       EATOM= -147.1560
 kinetic energy error for atom=    0.0057 (will be added to EATOM!!)
 
 
 POSCAR: C                                       
  positions in direct lattice
  No initial velocities read in
 exchange correlation table for  LEXCH =        8
   RHO(1)=    0.500       N(1)  =     2000
   RHO(2)=  100.500       N(2)  =     4000
 


--------------------------------------------------------------------------------------------------------


 ion  position               nearest neighbor table
   1  0.501  0.000  0.126-  20 1.42  18 1.42  19 1.43
   2  1.000  0.000  0.125-  19 1.42  17 1.42  20 1.42
   3  0.500  0.500  0.125-  18 1.42  20 1.42  17 1.42
   4  1.000  0.500  0.125-  17 1.42  19 1.42  18 1.42
   5  0.500  0.000  0.625-  24 1.42  22 1.42  23 1.42
   6  1.000  0.000  0.625-  23 1.42  21 1.42  24 1.42
   7  0.500  0.500  0.625-  22 1.42  24 1.42  21 1.42
   8  1.000  0.500  0.625-  21 1.42  23 1.42  22 1.42
   9  0.000  0.500  0.375-  28 1.42  27 1.42  26 1.42
  10  0.500  0.500  0.375-  27 1.42  28 1.42  25 1.42
  11  0.000  1.000  0.375-  26 1.42  25 1.42  28 1.42
  12  0.500  1.000  0.375-  25 1.42  26 1.42  27 1.42
  13  0.000  0.500  0.875-  32 1.42  31 1.42  30 1.42
  14  0.500  0.500  0.875-  31 1.42  32 1.42  29 1.42
  15  0.000  1.000  0.875-  30 1.42  29 1.42  32 1.42
  16  0.500  1.000  0.875-  29 1.42  30 1.42  31 1.42
  17  0.167  0.333  0.125-   4 1.42   2 1.42   3 1.42
  18  0.667  0.333  0.125-   3 1.42   4 1.42   1 1.42
  19  0.167  0.833  0.125-   2 1.42   4 1.42   1 1.43
  20  0.667  0.833  0.125-   1 1.42   3 1.42   2 1.42
  21  0.167  0.333  0.625-   8 1.42   6 1.42   7 1.42
  22  0.667  0.333  0.625-   7 1.42   5 1.42   8 1.42
  23  0.167  0.833  0.625-   6 1.42   8 1.42   5 1.42
  24  0.667  0.833  0.625-   5 1.42   7 1.42   6 1.42
  25  0.333  0.167  0.375-  12 1.42  11 1.42  10 1.42
  26  0.833  0.167  0.375-  11 1.42  12 1.42   9 1.42
  27  0.333  0.667  0.375-  10 1.42   9 1.42  12 1.42
  28  0.833  0.667  0.375-   9 1.42  10 1.42  11 1.42
  29  0.333  0.167  0.875-  16 1.42  15 1.42  14 1.42
  30  0.833  0.167  0.875-  15 1.42  16 1.42  13 1.42
  31  0.333  0.667  0.875-  14 1.42  13 1.42  16 1.42
  32  0.833  0.667  0.875-  13 1.42  14 1.42  15 1.42
 
  LATTYP: Found a base centered orthorhombic cell.
 ALAT       =     4.9339256766
 B/A-ratio  =     1.7322311103
 C/A-ratio  =     1.9084274582
  
  Lattice vectors:
  
 A1 = (   4.9343108848,  -0.0002224000,   0.0000000000)
 A2 = (  -2.4673480464,   4.2731273763,   0.0000000000)
 A3 = (   0.0000000000,   0.0000000000,   9.4160392380)


Analysis of symmetry for initial positions (statically):
=====================================================================
 Subroutine PRICEL returns:
 Original cell was already a primitive cell.
 

 Routine SETGRP: Setting up the symmetry group for a 
 base centered orthorhombic supercell.


 Subroutine GETGRP returns: Found  1 space group operations
 (whereof  1 operations were pure point group operations)
 out of a pool of  8 trial point group operations.


The static configuration has the point symmetry C_1 .


Analysis of symmetry for dynamics (positions and initial velocities):
=====================================================================
 Subroutine PRICEL returns:
 Original cell was already a primitive cell.
 

 Routine SETGRP: Setting up the symmetry group for a 
 base centered orthorhombic supercell.


 Subroutine GETGRP returns: Found  1 space group operations
 (whereof  1 operations were pure point group operations)
 out of a pool of  8 trial point group operations.


The dynamic configuration has the point symmetry C_1 .
 
 
 KPOINTS: B4C B11C-CBC                            

Automatic generation of k-mesh.
Space group operators:
 irot       det(A)        alpha          n_x          n_y          n_z        tau_x        tau_y        tau_z
    1     1.000000     0.000001     1.000000     0.000000     0.000000     0.000000     0.000000     0.000000
 
 Subroutine IBZKPT returns following result:
 ===========================================
 
 Found    163 irreducible k-points:
 
 Following reciprocal coordinates:
            Coordinates               Weight
  0.000000  0.000000  0.000000      1.000000
  0.111111  0.000000  0.000000      2.000000
  0.222222  0.000000  0.000000      2.000000
  0.333333  0.000000  0.000000      2.000000
  0.444444  0.000000  0.000000      2.000000
  0.000000  0.111111  0.000000      2.000000
  0.111111  0.111111  0.000000      2.000000
  0.222222  0.111111  0.000000      2.000000
  0.333333  0.111111  0.000000      2.000000
  0.444444  0.111111  0.000000      2.000000
 -0.444444  0.111111  0.000000      2.000000
 -0.333333  0.111111  0.000000      2.000000
 -0.222222  0.111111  0.000000      2.000000
 -0.111111  0.111111  0.000000      2.000000
  0.000000  0.222222  0.000000      2.000000
  0.111111  0.222222  0.000000      2.000000
  0.222222  0.222222  0.000000      2.000000
  0.333333  0.222222  0.000000      2.000000
  0.444444  0.222222  0.000000      2.000000
 -0.444444  0.222222  0.000000      2.000000
 -0.333333  0.222222  0.000000      2.000000
 -0.222222  0.222222  0.000000      2.000000
 -0.111111  0.222222  0.000000      2.000000
  0.000000  0.333333  0.000000      2.000000
  0.111111  0.333333  0.000000      2.000000
  0.222222  0.333333  0.000000      2.000000
  0.333333  0.333333  0.000000      2.000000
  0.444444  0.333333  0.000000      2.000000
 -0.444444  0.333333  0.000000      2.000000
 -0.333333  0.333333  0.000000      2.000000
 -0.222222  0.333333  0.000000      2.000000
 -0.111111  0.333333  0.000000      2.000000
  0.000000  0.444444  0.000000      2.000000
  0.111111  0.444444  0.000000      2.000000
  0.222222  0.444444  0.000000      2.000000
  0.333333  0.444444  0.000000      2.000000
  0.444444  0.444444  0.000000      2.000000
 -0.444444  0.444444  0.000000      2.000000
 -0.333333  0.444444  0.000000      2.000000
 -0.222222  0.444444  0.000000      2.000000
 -0.111111  0.444444  0.000000      2.000000
  0.000000  0.000000  0.250000      2.000000
  0.111111  0.000000  0.250000      2.000000
  0.222222  0.000000  0.250000      2.000000
  0.333333  0.000000  0.250000      2.000000
  0.444444  0.000000  0.250000      2.000000
 -0.444444 -0.000000  0.250000      2.000000
 -0.333333  0.000000  0.250000      2.000000
 -0.222222 -0.000000  0.250000      2.000000
 -0.111111 -0.000000  0.250000      2.000000
  0.000000  0.111111  0.250000      2.000000
  0.111111  0.111111  0.250000      2.000000
  0.222222  0.111111  0.250000      2.000000
  0.333333  0.111111  0.250000      2.000000
  0.444444  0.111111  0.250000      2.000000
 -0.444444  0.111111  0.250000      2.000000
 -0.333333  0.111111  0.250000      2.000000
 -0.222222  0.111111  0.250000      2.000000
 -0.111111  0.111111  0.250000      2.000000
  0.000000  0.222222  0.250000      2.000000
  0.111111  0.222222  0.250000      2.000000
  0.222222  0.222222  0.250000      2.000000
  0.333333  0.222222  0.250000      2.000000
  0.444444  0.222222  0.250000      2.000000
 -0.444444  0.222222  0.250000      2.000000
 -0.333333  0.222222  0.250000      2.000000
 -0.222222  0.222222  0.250000      2.000000
 -0.111111  0.222222  0.250000      2.000000
  0.000000  0.333333  0.250000      2.000000
  0.111111  0.333333  0.250000      2.000000
  0.222222  0.333333  0.250000      2.000000
  0.333333  0.333333  0.250000      2.000000
  0.444444  0.333333  0.250000      2.000000
 -0.444444  0.333333  0.250000      2.000000
 -0.333333  0.333333  0.250000      2.000000
 -0.222222  0.333333  0.250000      2.000000
 -0.111111  0.333333  0.250000      2.000000
  0.000000  0.444444  0.250000      2.000000
  0.111111  0.444444  0.250000      2.000000
  0.222222  0.444444  0.250000      2.000000
  0.333333  0.444444  0.250000      2.000000
  0.444444  0.444444  0.250000      2.000000
 -0.444444  0.444444  0.250000      2.000000
 -0.333333  0.444444  0.250000      2.000000
 -0.222222  0.444444  0.250000      2.000000
 -0.111111  0.444444  0.250000      2.000000
 -0.000000 -0.444444  0.250000      2.000000
  0.111111 -0.444444  0.250000      2.000000
  0.222222 -0.444444  0.250000      2.000000
  0.333333 -0.444444  0.250000      2.000000
  0.444444 -0.444444  0.250000      2.000000
 -0.444444 -0.444444  0.250000      2.000000
 -0.333333 -0.444444  0.250000      2.000000
 -0.222222 -0.444444  0.250000      2.000000
 -0.111111 -0.444444  0.250000      2.000000
 -0.000000 -0.333333  0.250000      2.000000
  0.111111 -0.333333  0.250000      2.000000
  0.222222 -0.333333  0.250000      2.000000
  0.333333 -0.333333  0.250000      2.000000
  0.444444 -0.333333  0.250000      2.000000
 -0.444444 -0.333333  0.250000      2.000000
 -0.333333 -0.333333  0.250000      2.000000
 -0.222222 -0.333333  0.250000      2.000000
 -0.111111 -0.333333  0.250000      2.000000
 -0.000000 -0.222222  0.250000      2.000000
  0.111111 -0.222222  0.250000      2.000000
  0.222222 -0.222222  0.250000      2.000000
  0.333333 -0.222222  0.250000      2.000000
  0.444444 -0.222222  0.250000      2.000000
 -0.444444 -0.222222  0.250000      2.000000
 -0.333333 -0.222222  0.250000      2.000000
 -0.222222 -0.222222  0.250000      2.000000
 -0.111111 -0.222222  0.250000      2.000000
 -0.000000 -0.111111  0.250000      2.000000
  0.111111 -0.111111  0.250000      2.000000
  0.222222 -0.111111  0.250000      2.000000
  0.333333 -0.111111  0.250000      2.000000
  0.444444 -0.111111  0.250000      2.000000
 -0.444444 -0.111111  0.250000      2.000000
 -0.333333 -0.111111  0.250000      2.000000
 -0.222222 -0.111111  0.250000      2.000000
 -0.111111 -0.111111  0.250000      2.000000
  0.000000  0.000000  0.500000      1.000000
  0.111111  0.000000  0.500000      2.000000
  0.222222  0.000000  0.500000      2.000000
  0.333333  0.000000  0.500000      2.000000
  0.444444  0.000000  0.500000      2.000000
  0.000000  0.111111  0.500000      2.000000
  0.111111  0.111111  0.500000      2.000000
  0.222222  0.111111  0.500000      2.000000
  0.333333  0.111111  0.500000      2.000000
  0.444444  0.111111  0.500000      2.000000
 -0.444444  0.111111  0.500000      2.000000
 -0.333333  0.111111  0.500000      2.000000
 -0.222222  0.111111  0.500000      2.000000
 -0.111111  0.111111  0.500000      2.000000
  0.000000  0.222222  0.500000      2.000000
  0.111111  0.222222  0.500000      2.000000
  0.222222  0.222222  0.500000      2.000000
  0.333333  0.222222  0.500000      2.000000
  0.444444  0.222222  0.500000      2.000000
 -0.444444  0.222222  0.500000      2.000000
 -0.333333  0.222222  0.500000      2.000000
 -0.222222  0.222222  0.500000      2.000000
 -0.111111  0.222222  0.500000      2.000000
  0.000000  0.333333  0.500000      2.000000
  0.111111  0.333333  0.500000      2.000000
  0.222222  0.333333  0.500000      2.000000
  0.333333  0.333333  0.500000      2.000000
  0.444444  0.333333  0.500000      2.000000
 -0.444444  0.333333  0.500000      2.000000
 -0.333333  0.333333  0.500000      2.000000
 -0.222222  0.333333  0.500000      2.000000
 -0.111111  0.333333  0.500000      2.000000
  0.000000  0.444444  0.500000      2.000000
  0.111111  0.444444  0.500000      2.000000
  0.222222  0.444444  0.500000      2.000000
  0.333333  0.444444  0.500000      2.000000
  0.444444  0.444444  0.500000      2.000000
 -0.444444  0.444444  0.500000      2.000000
 -0.333333  0.444444  0.500000      2.000000
 -0.222222  0.444444  0.500000      2.000000
 -0.111111  0.444444  0.500000      2.000000
 
 Following cartesian coordinates:
            Coordinates               Weight
  0.000000  0.000000  0.000000      1.000000
  0.022519  0.013002  0.000000      2.000000
  0.045037  0.026005  0.000000      2.000000
  0.067556  0.039007  0.000000      2.000000
  0.090075  0.052010  0.000000      2.000000
  0.000001  0.026003  0.000000      2.000000
  0.022520  0.039005  0.000000      2.000000
  0.045038  0.052008  0.000000      2.000000
  0.067557  0.065010  0.000000      2.000000
  0.090076  0.078013  0.000000      2.000000
 -0.090073 -0.026007  0.000000      2.000000
 -0.067555 -0.013005  0.000000      2.000000
 -0.045036 -0.000002  0.000000      2.000000
 -0.022517  0.013000  0.000000      2.000000
  0.000002  0.052006  0.000000      2.000000
  0.022521  0.065008  0.000000      2.000000
  0.045040  0.078011  0.000000      2.000000
  0.067558  0.091013  0.000000      2.000000
  0.090077  0.104016  0.000000      2.000000
 -0.090072 -0.000004  0.000000      2.000000
 -0.067554  0.012998  0.000000      2.000000
 -0.045035  0.026001  0.000000      2.000000
 -0.022516  0.039003  0.000000      2.000000
  0.000004  0.078009  0.000000      2.000000
  0.022522  0.091011  0.000000      2.000000
  0.045041  0.104014  0.000000      2.000000
  0.067559  0.117016  0.000000      2.000000
  0.090078  0.130019  0.000000      2.000000
 -0.090071  0.025999  0.000000      2.000000
 -0.067552  0.039001  0.000000      2.000000
 -0.045034  0.052004  0.000000      2.000000
 -0.022515  0.065006  0.000000      2.000000
  0.000005  0.104012  0.000000      2.000000
  0.022523  0.117014  0.000000      2.000000
  0.045042  0.130017  0.000000      2.000000
  0.067561  0.143019  0.000000      2.000000
  0.090079  0.156022  0.000000      2.000000
 -0.090070  0.052002  0.000000      2.000000
 -0.067551  0.065004  0.000000      2.000000
 -0.045033  0.078007  0.000000      2.000000
 -0.022514  0.091009  0.000000      2.000000
  0.000000  0.000000  0.026550      2.000000
  0.022519  0.013002  0.026550      2.000000
  0.045037  0.026005  0.026550      2.000000
  0.067556  0.039007  0.026550      2.000000
  0.090075  0.052010  0.026550      2.000000
 -0.090075 -0.052010  0.026550      2.000000
 -0.067556 -0.039007  0.026550      2.000000
 -0.045037 -0.026005  0.026550      2.000000
 -0.022519 -0.013002  0.026550      2.000000
  0.000001  0.026003  0.026550      2.000000
  0.022520  0.039005  0.026550      2.000000
  0.045038  0.052008  0.026550      2.000000
  0.067557  0.065010  0.026550      2.000000
  0.090076  0.078013  0.026550      2.000000
 -0.090073 -0.026007  0.026550      2.000000
 -0.067555 -0.013005  0.026550      2.000000
 -0.045036 -0.000002  0.026550      2.000000
 -0.022517  0.013000  0.026550      2.000000
  0.000002  0.052006  0.026550      2.000000
  0.022521  0.065008  0.026550      2.000000
  0.045040  0.078011  0.026550      2.000000
  0.067558  0.091013  0.026550      2.000000
  0.090077  0.104016  0.026550      2.000000
 -0.090072 -0.000004  0.026550      2.000000
 -0.067554  0.012998  0.026550      2.000000
 -0.045035  0.026001  0.026550      2.000000
 -0.022516  0.039003  0.026550      2.000000
  0.000004  0.078009  0.026550      2.000000
  0.022522  0.091011  0.026550      2.000000
  0.045041  0.104014  0.026550      2.000000
  0.067559  0.117016  0.026550      2.000000
  0.090078  0.130019  0.026550      2.000000
 -0.090071  0.025999  0.026550      2.000000
 -0.067552  0.039001  0.026550      2.000000
 -0.045034  0.052004  0.026550      2.000000
 -0.022515  0.065006  0.026550      2.000000
  0.000005  0.104012  0.026550      2.000000
  0.022523  0.117014  0.026550      2.000000
  0.045042  0.130017  0.026550      2.000000
  0.067561  0.143019  0.026550      2.000000
  0.090079  0.156022  0.026550      2.000000
 -0.090070  0.052002  0.026550      2.000000
 -0.067551  0.065004  0.026550      2.000000
 -0.045033  0.078007  0.026550      2.000000
 -0.022514  0.091009  0.026550      2.000000
 -0.000005 -0.104012  0.026550      2.000000
  0.022514 -0.091009  0.026550      2.000000
  0.045033 -0.078007  0.026550      2.000000
  0.067551 -0.065004  0.026550      2.000000
  0.090070 -0.052002  0.026550      2.000000
 -0.090079 -0.156022  0.026550      2.000000
 -0.067561 -0.143019  0.026550      2.000000
 -0.045042 -0.130017  0.026550      2.000000
 -0.022523 -0.117014  0.026550      2.000000
 -0.000004 -0.078009  0.026550      2.000000
  0.022515 -0.065006  0.026550      2.000000
  0.045034 -0.052004  0.026550      2.000000
  0.067552 -0.039001  0.026550      2.000000
  0.090071 -0.025999  0.026550      2.000000
 -0.090078 -0.130019  0.026550      2.000000
 -0.067559 -0.117016  0.026550      2.000000
 -0.045041 -0.104014  0.026550      2.000000
 -0.022522 -0.091011  0.026550      2.000000
 -0.000002 -0.052006  0.026550      2.000000
  0.022516 -0.039003  0.026550      2.000000
  0.045035 -0.026001  0.026550      2.000000
  0.067554 -0.012998  0.026550      2.000000
  0.090072  0.000004  0.026550      2.000000
 -0.090077 -0.104016  0.026550      2.000000
 -0.067558 -0.091013  0.026550      2.000000
 -0.045040 -0.078011  0.026550      2.000000
 -0.022521 -0.065008  0.026550      2.000000
 -0.000001 -0.026003  0.026550      2.000000
  0.022517 -0.013000  0.026550      2.000000
  0.045036  0.000002  0.026550      2.000000
  0.067555  0.013005  0.026550      2.000000
  0.090073  0.026007  0.026550      2.000000
 -0.090076 -0.078013  0.026550      2.000000
 -0.067557 -0.065010  0.026550      2.000000
 -0.045038 -0.052008  0.026550      2.000000
 -0.022520 -0.039005  0.026550      2.000000
  0.000000  0.000000  0.053101      1.000000
  0.022519  0.013002  0.053101      2.000000
  0.045037  0.026005  0.053101      2.000000
  0.067556  0.039007  0.053101      2.000000
  0.090075  0.052010  0.053101      2.000000
  0.000001  0.026003  0.053101      2.000000
  0.022520  0.039005  0.053101      2.000000
  0.045038  0.052008  0.053101      2.000000
  0.067557  0.065010  0.053101      2.000000
  0.090076  0.078013  0.053101      2.000000
 -0.090073 -0.026007  0.053101      2.000000
 -0.067555 -0.013005  0.053101      2.000000
 -0.045036 -0.000002  0.053101      2.000000
 -0.022517  0.013000  0.053101      2.000000
  0.000002  0.052006  0.053101      2.000000
  0.022521  0.065008  0.053101      2.000000
  0.045040  0.078011  0.053101      2.000000
  0.067558  0.091013  0.053101      2.000000
  0.090077  0.104016  0.053101      2.000000
 -0.090072 -0.000004  0.053101      2.000000
 -0.067554  0.012998  0.053101      2.000000
 -0.045035  0.026001  0.053101      2.000000
 -0.022516  0.039003  0.053101      2.000000
  0.000004  0.078009  0.053101      2.000000
  0.022522  0.091011  0.053101      2.000000
  0.045041  0.104014  0.053101      2.000000
  0.067559  0.117016  0.053101      2.000000
  0.090078  0.130019  0.053101      2.000000
 -0.090071  0.025999  0.053101      2.000000
 -0.067552  0.039001  0.053101      2.000000
 -0.045034  0.052004  0.053101      2.000000
 -0.022515  0.065006  0.053101      2.000000
  0.000005  0.104012  0.053101      2.000000
  0.022523  0.117014  0.053101      2.000000
  0.045042  0.130017  0.053101      2.000000
  0.067561  0.143019  0.053101      2.000000
  0.090079  0.156022  0.053101      2.000000
 -0.090070  0.052002  0.053101      2.000000
 -0.067551  0.065004  0.053101      2.000000
 -0.045033  0.078007  0.053101      2.000000
 -0.022514  0.091009  0.053101      2.000000
 


--------------------------------------------------------------------------------------------------------




 Dimension of arrays:
   k-points           NKPTS =    163   k-points in BZ     NKDIM =    163   number of bands    NBANDS=     84
   number of dos      NEDOS =    301   number of ions     NIONS =     32
   non local maximal  LDIM  =      4   non local SUM 2l+1 LMDIM =      8
   total plane-waves  NPLWV = 128000
   max r-space proj   IRMAX =      1   max aug-charges    IRDMAX=   7807
   dimension x,y,z NGX =    40 NGY =   40 NGZ =   80
   dimension x,y,z NGXF=    80 NGYF=   80 NGZF=  160
   support grid    NGXF=    80 NGYF=   80 NGZF=  160
   ions per type =              32
 NGX,Y,Z   is equivalent  to a cutoff of  13.48, 13.48, 14.12 a.u.
 NGXF,Y,Z  is equivalent  to a cutoff of  26.95, 26.95, 28.25 a.u.


 I would recommend the setting:
   dimension x,y,z NGX =    39 NGY =   39 NGZ =   75
 SYSTEM =  graphite                                
 POSCAR =  C                                       

 Startparameter for this run:
   NWRITE =      2    write-flag & timer
   PREC   = accura    normal or accurate (medium, high low for compatibility)
   ISTART =      0    job   : 0-new  1-cont  2-samecut
   ICHARG =      2    charge: 1-file 2-atom 10-const
   ISPIN  =      1    spin polarized calculation?
   LNONCOLLINEAR =      F non collinear calculations
   LSORBIT =      F    spin-orbit coupling
   INIWAV =      1    electr: 0-lowe 1-rand  2-diag
   LASPH  =      F    aspherical Exc in radial PAW
   METAGGA=      F    non-selfconsistent MetaGGA calc.

 Electronic Relaxation 1
   ENCUT  =  600.0 eV  44.10 Ry    6.64 a.u.   9.86  9.86 18.81*2*pi/ulx,y,z
   ENINI  =  600.0     initial cutoff
   ENAUG  =  644.9 eV  augmentation charge cutoff
   NELM   =    200;   NELMIN=  2; NELMDL=  0     # of ELM steps 
   EDIFF  = 0.1E-05   stopping-criterion for ELM
   LREAL  =      F    real-space projection
   NLSPLINE    = F    spline interpolate recip. space projectors
   LCOMPAT=      F    compatible to vasp.4.4
   GGA_COMPAT  = T    GGA compatible to vasp.4.4-vasp.4.6
   LMAXPAW     = -100 max onsite density
   LMAXMIX     =    2 max onsite mixed and CHGCAR
   VOSKOWN=      0    Vosko Wilk Nusair interpolation
   ROPT   =    0.00000
 Ionic relaxation
   EDIFFG = 0.1E-02   stopping-criterion for IOM
   NSW    =      0    number of steps for IOM
   NBLOCK =      1;   KBLOCK =      1    inner block; outer block 
   IBRION =     -1    ionic relax: 0-MD 1-quasi-New 2-CG
   NFREE  =      0    steps in history (QN), initial steepest desc. (CG)
   ISIF   =      2    stress and relaxation
   IWAVPR =     10    prediction:  0-non 1-charg 2-wave 3-comb
   ISYM   =      2    0-nonsym 1-usesym 2-fastsym
   LCORR  =      T    Harris-Foulkes like correction to forces

   POTIM  = 0.5000    time-step for ionic-motion
   TEIN   =    0.0    initial temperature
   TEBEG  =    0.0;   TEEND  =   0.0 temperature during run
   SMASS  =  -3.00    Nose mass-parameter (am)
   estimated Nose-frequenzy (Omega)   =  0.10E-29 period in steps =****** mass=  -0.556E-27a.u.
   SCALEE = 1.0000    scale energy and forces
   NPACO  =    256;   APACO  = 16.0  distance and # of slots for P.C.
   PSTRESS=    0.0 pullay stress

  Mass of Ions in am
   POMASS =  12.01
  Ionic Valenz
   ZVAL   =   4.00
  Atomic Wigner-Seitz radii
   RWIGS  =  -1.00
  virtual crystal weights 
   VCA    =   1.00
   NELECT =     128.0000    total number of electrons
   NUPDOWN=      -1.0000    fix difference up-down

 DOS related values:
   EMIN   =  10.00;   EMAX   =-10.00  energy-range for DOS
   EFERMI =   0.00
   ISMEAR =     0;   SIGMA  =   0.10  broadening in eV -4-tet -1-fermi 0-gaus

 Electronic relaxation 2 (details)
   IALGO  =     38    algorithm
   LDIAG  =      T    sub-space diagonalisation (order eigenvalues)
   LSUBROT=      F    optimize rotation matrix (better conditioning)
   TURBO    =      0    0=normal 1=particle mesh
   IRESTART =      0    0=no restart 2=restart with 2 vectors
   NREBOOT  =      0    no. of reboots
   NMIN     =      0    reboot dimension
   EREF     =   0.00    reference energy to select bands
   IMIX   =      4    mixing-type and parameters
     AMIX     =   0.40;   BMIX     =  1.00
     AMIX_MAG =   1.60;   BMIX_MAG =  1.00
     AMIN     =   0.10
     WC   =   100.;   INIMIX=   1;  MIXPRE=   1;  MAXMIX= -45

 Intra band minimization:
   WEIMIN = 0.0000     energy-eigenvalue tresh-hold
   EBREAK =  0.30E-08  absolut break condition
   DEPER  =   0.30     relativ break condition  

   TIME   =   0.40     timestep for ELM

  volume/ion in A,a.u.               =       6.20        41.87
  Fermi-wavevector in a.u.,A,eV,Ry     =   1.414279  2.672600 27.214165  2.000185
  Thomas-Fermi vector in A             =   2.535838
 
 Write flags
   LWAVE  =      F    write WAVECAR
   LCHARG =      F    write CHGCAR
   LVTOT  =      F    write LOCPOT, total local potential
   LVHAR  =      F    write LOCPOT, Hartree potential only
   LELF   =      F    write electronic localiz. function (ELF)
   LORBIT =      0    0 simple, 1 ext, 2 COOP (PROOUT)


 Dipole corrections
   LMONO  =      F    monopole corrections only (constant potential shift)
   LDIPOL =      F    correct potential (dipole corrections)
   IDIPOL =      0    1-x, 2-y, 3-z, 4-all directions 
   EPSILON=  1.0000000 bulk dielectric constant

 Exchange correlation treatment:
   GGA     =    PE    GGA type
   LEXCH   =     8    internal setting for exchange type
   VOSKOWN=      0    Vosko Wilk Nusair interpolation
   LHFCALC =     F    Hartree Fock is set to
   LHFONE  =     F    Hartree Fock one center treatment
   AEXX    =    0.0000 exact exchange contribution

 Linear response parameters
   LEPSILON=     F    determine dielectric tensor
   LRPA    =     F    only Hartree local field effects (RPA)
   LNABLA  =     F    use nabla operator in PAW spheres
   LVEL    =     F    velocity operator in full k-point grid
   LINTERFAST=   F  fast interpolation
   KINTER  =     0    interpolate to denser k-point grid
   CSHIFT  =0.1000    complex shift for real part using Kramers Kronig
   OMEGAMAX=  -1.0    maximum frequency
   DEG_THRESHOLD= 0.2000000E-02 threshold for treating states as degnerate
   RTIME   =    0.100 relaxation time in fs

 Orbital magnetization related:
   ORBITALMAG=     F  switch on orbital magnetization
   LCHIMAG   =     F  perturbation theory with respect to B field
   DQ        =  0.001000  dq finite difference perturbation B field



--------------------------------------------------------------------------------------------------------


 Static calculation
 charge density and potential will be updated during run
 non-spin polarized calculation
 Variant of blocked Davidson
 Davidson routine will perform the subspace rotation
 perform sub-space diagonalisation
    after iterative eigenvector-optimisation
 modified Broyden-mixing scheme, WC =      100.0
 initial mixing is a Kerker type mixing with AMIX =  0.4000 and BMIX =      1.0000
 Hartree-type preconditioning will be used
 using additional bands           20
 reciprocal scheme for non local part
 calculate Harris-corrections to forces 
   (improved forces if not selfconsistent)
 use gradient corrections 
 use of overlap-Matrix (Vanderbilt PP)
 Gauss-broadening in eV      SIGMA  =   0.10


--------------------------------------------------------------------------------------------------------


  energy-cutoff  :      600.00
  volume of cell :      198.53
      direct lattice vectors                 reciprocal lattice vectors
     4.934310885 -0.000222400  0.000000000     0.202667819  0.117022500  0.000000000
    -2.467348046  4.273127376  0.000000000     0.000010548  0.234026730  0.000000000
     0.000000000  0.000000000  9.416039238     0.000000000  0.000000000  0.106201766

  length of vectors
     4.934310890  4.934310890  9.416039238     0.234026730  0.234026730  0.106201766


 
 k-points in units of 2pi/SCALE and weight: B4C B11C-CBC                            
   0.00000000  0.00000000  0.00000000       0.003
   0.02251865  0.01300250  0.00000000       0.006
   0.04503729  0.02600500  0.00000000       0.006
   0.06755594  0.03900750  0.00000000       0.006
   0.09007459  0.05201000  0.00000000       0.006
   0.00000117  0.02600297  0.00000000       0.006
   0.02251982  0.03900547  0.00000000       0.006
   0.04503847  0.05200797  0.00000000       0.006
   0.06755711  0.06501047  0.00000000       0.006
   0.09007576  0.07801297  0.00000000       0.006
  -0.09007341 -0.02600703  0.00000000       0.006
  -0.06755477 -0.01300453  0.00000000       0.006
  -0.04503612 -0.00000203  0.00000000       0.006
  -0.02251747  0.01300047  0.00000000       0.006
   0.00000234  0.05200594  0.00000000       0.006
   0.02252099  0.06500844  0.00000000       0.006
   0.04503964  0.07801094  0.00000000       0.006
   0.06755828  0.09101344  0.00000000       0.006
   0.09007693  0.10401594  0.00000000       0.006
  -0.09007224 -0.00000406  0.00000000       0.006
  -0.06755360  0.01299844  0.00000000       0.006
  -0.04503495  0.02600094  0.00000000       0.006
  -0.02251630  0.03900344  0.00000000       0.006
   0.00000352  0.07800891  0.00000000       0.006
   0.02252216  0.09101141  0.00000000       0.006
   0.04504081  0.10401391  0.00000000       0.006
   0.06755946  0.11701641  0.00000000       0.006
   0.09007810  0.13001891  0.00000000       0.006
  -0.09007107  0.02599891  0.00000000       0.006
  -0.06755242  0.03900141  0.00000000       0.006
  -0.04503378  0.05200391  0.00000000       0.006
  -0.02251513  0.06500641  0.00000000       0.006
   0.00000469  0.10401188  0.00000000       0.006
   0.02252333  0.11701438  0.00000000       0.006
   0.04504198  0.13001688  0.00000000       0.006
   0.06756063  0.14301938  0.00000000       0.006
   0.09007927  0.15602188  0.00000000       0.006
  -0.09006990  0.05200188  0.00000000       0.006
  -0.06755125  0.06500438  0.00000000       0.006
  -0.04503261  0.07800688  0.00000000       0.006
  -0.02251396  0.09100938  0.00000000       0.006
   0.00000000  0.00000000  0.02655044       0.006
   0.02251865  0.01300250  0.02655044       0.006
   0.04503729  0.02600500  0.02655044       0.006
   0.06755594  0.03900750  0.02655044       0.006
   0.09007459  0.05201000  0.02655044       0.006
  -0.09007459 -0.05201000  0.02655044       0.006
  -0.06755594 -0.03900750  0.02655044       0.006
  -0.04503729 -0.02600500  0.02655044       0.006
  -0.02251865 -0.01300250  0.02655044       0.006
   0.00000117  0.02600297  0.02655044       0.006
   0.02251982  0.03900547  0.02655044       0.006
   0.04503847  0.05200797  0.02655044       0.006
   0.06755711  0.06501047  0.02655044       0.006
   0.09007576  0.07801297  0.02655044       0.006
  -0.09007341 -0.02600703  0.02655044       0.006
  -0.06755477 -0.01300453  0.02655044       0.006
  -0.04503612 -0.00000203  0.02655044       0.006
  -0.02251747  0.01300047  0.02655044       0.006
   0.00000234  0.05200594  0.02655044       0.006
   0.02252099  0.06500844  0.02655044       0.006
   0.04503964  0.07801094  0.02655044       0.006
   0.06755828  0.09101344  0.02655044       0.006
   0.09007693  0.10401594  0.02655044       0.006
  -0.09007224 -0.00000406  0.02655044       0.006
  -0.06755360  0.01299844  0.02655044       0.006
  -0.04503495  0.02600094  0.02655044       0.006
  -0.02251630  0.03900344  0.02655044       0.006
   0.00000352  0.07800891  0.02655044       0.006
   0.02252216  0.09101141  0.02655044       0.006
   0.04504081  0.10401391  0.02655044       0.006
   0.06755946  0.11701641  0.02655044       0.006
   0.09007810  0.13001891  0.02655044       0.006
  -0.09007107  0.02599891  0.02655044       0.006
  -0.06755242  0.03900141  0.02655044       0.006
  -0.04503378  0.05200391  0.02655044       0.006
  -0.02251513  0.06500641  0.02655044       0.006
   0.00000469  0.10401188  0.02655044       0.006
   0.02252333  0.11701438  0.02655044       0.006
   0.04504198  0.13001688  0.02655044       0.006
   0.06756063  0.14301938  0.02655044       0.006
   0.09007927  0.15602188  0.02655044       0.006
  -0.09006990  0.05200188  0.02655044       0.006
  -0.06755125  0.06500438  0.02655044       0.006
  -0.04503261  0.07800688  0.02655044       0.006
  -0.02251396  0.09100938  0.02655044       0.006
  -0.00000469 -0.10401188  0.02655044       0.006
   0.02251396 -0.09100938  0.02655044       0.006
   0.04503261 -0.07800688  0.02655044       0.006
   0.06755125 -0.06500438  0.02655044       0.006
   0.09006990 -0.05200188  0.02655044       0.006
  -0.09007927 -0.15602188  0.02655044       0.006
  -0.06756063 -0.14301938  0.02655044       0.006
  -0.04504198 -0.13001688  0.02655044       0.006
  -0.02252333 -0.11701438  0.02655044       0.006
  -0.00000352 -0.07800891  0.02655044       0.006
   0.02251513 -0.06500641  0.02655044       0.006
   0.04503378 -0.05200391  0.02655044       0.006
   0.06755242 -0.03900141  0.02655044       0.006
   0.09007107 -0.02599891  0.02655044       0.006
  -0.09007810 -0.13001891  0.02655044       0.006
  -0.06755946 -0.11701641  0.02655044       0.006
  -0.04504081 -0.10401391  0.02655044       0.006
  -0.02252216 -0.09101141  0.02655044       0.006
  -0.00000234 -0.05200594  0.02655044       0.006
   0.02251630 -0.03900344  0.02655044       0.006
   0.04503495 -0.02600094  0.02655044       0.006
   0.06755360 -0.01299844  0.02655044       0.006
   0.09007224  0.00000406  0.02655044       0.006
  -0.09007693 -0.10401594  0.02655044       0.006
  -0.06755828 -0.09101344  0.02655044       0.006
  -0.04503964 -0.07801094  0.02655044       0.006
  -0.02252099 -0.06500844  0.02655044       0.006
  -0.00000117 -0.02600297  0.02655044       0.006
   0.02251747 -0.01300047  0.02655044       0.006
   0.04503612  0.00000203  0.02655044       0.006
   0.06755477  0.01300453  0.02655044       0.006
   0.09007341  0.02600703  0.02655044       0.006
  -0.09007576 -0.07801297  0.02655044       0.006
  -0.06755711 -0.06501047  0.02655044       0.006
  -0.04503847 -0.05200797  0.02655044       0.006
  -0.02251982 -0.03900547  0.02655044       0.006
   0.00000000  0.00000000  0.05310088       0.003
   0.02251865  0.01300250  0.05310088       0.006
   0.04503729  0.02600500  0.05310088       0.006
   0.06755594  0.03900750  0.05310088       0.006
   0.09007459  0.05201000  0.05310088       0.006
   0.00000117  0.02600297  0.05310088       0.006
   0.02251982  0.03900547  0.05310088       0.006
   0.04503847  0.05200797  0.05310088       0.006
   0.06755711  0.06501047  0.05310088       0.006
   0.09007576  0.07801297  0.05310088       0.006
  -0.09007341 -0.02600703  0.05310088       0.006
  -0.06755477 -0.01300453  0.05310088       0.006
  -0.04503612 -0.00000203  0.05310088       0.006
  -0.02251747  0.01300047  0.05310088       0.006
   0.00000234  0.05200594  0.05310088       0.006
   0.02252099  0.06500844  0.05310088       0.006
   0.04503964  0.07801094  0.05310088       0.006
   0.06755828  0.09101344  0.05310088       0.006
   0.09007693  0.10401594  0.05310088       0.006
  -0.09007224 -0.00000406  0.05310088       0.006
  -0.06755360  0.01299844  0.05310088       0.006
  -0.04503495  0.02600094  0.05310088       0.006
  -0.02251630  0.03900344  0.05310088       0.006
   0.00000352  0.07800891  0.05310088       0.006
   0.02252216  0.09101141  0.05310088       0.006
   0.04504081  0.10401391  0.05310088       0.006
   0.06755946  0.11701641  0.05310088       0.006
   0.09007810  0.13001891  0.05310088       0.006
  -0.09007107  0.02599891  0.05310088       0.006
  -0.06755242  0.03900141  0.05310088       0.006
  -0.04503378  0.05200391  0.05310088       0.006
  -0.02251513  0.06500641  0.05310088       0.006
   0.00000469  0.10401188  0.05310088       0.006
   0.02252333  0.11701438  0.05310088       0.006
   0.04504198  0.13001688  0.05310088       0.006
   0.06756063  0.14301938  0.05310088       0.006
   0.09007927  0.15602188  0.05310088       0.006
  -0.09006990  0.05200188  0.05310088       0.006
  -0.06755125  0.06500438  0.05310088       0.006
  -0.04503261  0.07800688  0.05310088       0.006
  -0.02251396  0.09100938  0.05310088       0.006
 
 k-points in reciprocal lattice and weights: B4C B11C-CBC                            
   0.00000000  0.00000000  0.00000000       0.003
   0.11111111  0.00000000  0.00000000       0.006
   0.22222222  0.00000000  0.00000000       0.006
   0.33333333  0.00000000  0.00000000       0.006
   0.44444444  0.00000000  0.00000000       0.006
   0.00000000  0.11111111  0.00000000       0.006
   0.11111111  0.11111111  0.00000000       0.006
   0.22222222  0.11111111  0.00000000       0.006
   0.33333333  0.11111111  0.00000000       0.006
   0.44444444  0.11111111  0.00000000       0.006
  -0.44444444  0.11111111  0.00000000       0.006
  -0.33333333  0.11111111  0.00000000       0.006
  -0.22222222  0.11111111  0.00000000       0.006
  -0.11111111  0.11111111  0.00000000       0.006
   0.00000000  0.22222222  0.00000000       0.006
   0.11111111  0.22222222  0.00000000       0.006
   0.22222222  0.22222222  0.00000000       0.006
   0.33333333  0.22222222  0.00000000       0.006
   0.44444444  0.22222222  0.00000000       0.006
  -0.44444444  0.22222222  0.00000000       0.006
  -0.33333333  0.22222222  0.00000000       0.006
  -0.22222222  0.22222222  0.00000000       0.006
  -0.11111111  0.22222222  0.00000000       0.006
   0.00000000  0.33333333  0.00000000       0.006
   0.11111111  0.33333333  0.00000000       0.006
   0.22222222  0.33333333  0.00000000       0.006
   0.33333333  0.33333333  0.00000000       0.006
   0.44444444  0.33333333  0.00000000       0.006
  -0.44444444  0.33333333  0.00000000       0.006
  -0.33333333  0.33333333  0.00000000       0.006
  -0.22222222  0.33333333  0.00000000       0.006
  -0.11111111  0.33333333  0.00000000       0.006
   0.00000000  0.44444444  0.00000000       0.006
   0.11111111  0.44444444  0.00000000       0.006
   0.22222222  0.44444444  0.00000000       0.006
   0.33333333  0.44444444  0.00000000       0.006
   0.44444444  0.44444444  0.00000000       0.006
  -0.44444444  0.44444444  0.00000000       0.006
  -0.33333333  0.44444444  0.00000000       0.006
  -0.22222222  0.44444444  0.00000000       0.006
  -0.11111111  0.44444444  0.00000000       0.006
   0.00000000  0.00000000  0.25000000       0.006
   0.11111111  0.00000000  0.25000000       0.006
   0.22222222  0.00000000  0.25000000       0.006
   0.33333333  0.00000000  0.25000000       0.006
   0.44444444  0.00000000  0.25000000       0.006
  -0.44444444 -0.00000000  0.25000000       0.006
  -0.33333333  0.00000000  0.25000000       0.006
  -0.22222222 -0.00000000  0.25000000       0.006
  -0.11111111 -0.00000000  0.25000000       0.006
   0.00000000  0.11111111  0.25000000       0.006
   0.11111111  0.11111111  0.25000000       0.006
   0.22222222  0.11111111  0.25000000       0.006
   0.33333333  0.11111111  0.25000000       0.006
   0.44444444  0.11111111  0.25000000       0.006
  -0.44444444  0.11111111  0.25000000       0.006
  -0.33333333  0.11111111  0.25000000       0.006
  -0.22222222  0.11111111  0.25000000       0.006
  -0.11111111  0.11111111  0.25000000       0.006
   0.00000000  0.22222222  0.25000000       0.006
   0.11111111  0.22222222  0.25000000       0.006
   0.22222222  0.22222222  0.25000000       0.006
   0.33333333  0.22222222  0.25000000       0.006
   0.44444444  0.22222222  0.25000000       0.006
  -0.44444444  0.22222222  0.25000000       0.006
  -0.33333333  0.22222222  0.25000000       0.006
  -0.22222222  0.22222222  0.25000000       0.006
  -0.11111111  0.22222222  0.25000000       0.006
   0.00000000  0.33333333  0.25000000       0.006
   0.11111111  0.33333333  0.25000000       0.006
   0.22222222  0.33333333  0.25000000       0.006
   0.33333333  0.33333333  0.25000000       0.006
   0.44444444  0.33333333  0.25000000       0.006
  -0.44444444  0.33333333  0.25000000       0.006
  -0.33333333  0.33333333  0.25000000       0.006
  -0.22222222  0.33333333  0.25000000       0.006
  -0.11111111  0.33333333  0.25000000       0.006
   0.00000000  0.44444444  0.25000000       0.006
   0.11111111  0.44444444  0.25000000       0.006
   0.22222222  0.44444444  0.25000000       0.006
   0.33333333  0.44444444  0.25000000       0.006
   0.44444444  0.44444444  0.25000000       0.006
  -0.44444444  0.44444444  0.25000000       0.006
  -0.33333333  0.44444444  0.25000000       0.006
  -0.22222222  0.44444444  0.25000000       0.006
  -0.11111111  0.44444444  0.25000000       0.006
  -0.00000000 -0.44444444  0.25000000       0.006
   0.11111111 -0.44444444  0.25000000       0.006
   0.22222222 -0.44444444  0.25000000       0.006
   0.33333333 -0.44444444  0.25000000       0.006
   0.44444444 -0.44444444  0.25000000       0.006
  -0.44444444 -0.44444444  0.25000000       0.006
  -0.33333333 -0.44444444  0.25000000       0.006
  -0.22222222 -0.44444444  0.25000000       0.006
  -0.11111111 -0.44444444  0.25000000       0.006
  -0.00000000 -0.33333333  0.25000000       0.006
   0.11111111 -0.33333333  0.25000000       0.006
   0.22222222 -0.33333333  0.25000000       0.006
   0.33333333 -0.33333333  0.25000000       0.006
   0.44444444 -0.33333333  0.25000000       0.006
  -0.44444444 -0.33333333  0.25000000       0.006
  -0.33333333 -0.33333333  0.25000000       0.006
  -0.22222222 -0.33333333  0.25000000       0.006
  -0.11111111 -0.33333333  0.25000000       0.006
  -0.00000000 -0.22222222  0.25000000       0.006
   0.11111111 -0.22222222  0.25000000       0.006
   0.22222222 -0.22222222  0.25000000       0.006
   0.33333333 -0.22222222  0.25000000       0.006
   0.44444444 -0.22222222  0.25000000       0.006
  -0.44444444 -0.22222222  0.25000000       0.006
  -0.33333333 -0.22222222  0.25000000       0.006
  -0.22222222 -0.22222222  0.25000000       0.006
  -0.11111111 -0.22222222  0.25000000       0.006
  -0.00000000 -0.11111111  0.25000000       0.006
   0.11111111 -0.11111111  0.25000000       0.006
   0.22222222 -0.11111111  0.25000000       0.006
   0.33333333 -0.11111111  0.25000000       0.006
   0.44444444 -0.11111111  0.25000000       0.006
  -0.44444444 -0.11111111  0.25000000       0.006
  -0.33333333 -0.11111111  0.25000000       0.006
  -0.22222222 -0.11111111  0.25000000       0.006
  -0.11111111 -0.11111111  0.25000000       0.006
   0.00000000  0.00000000  0.50000000       0.003
   0.11111111  0.00000000  0.50000000       0.006
   0.22222222  0.00000000  0.50000000       0.006
   0.33333333  0.00000000  0.50000000       0.006
   0.44444444  0.00000000  0.50000000       0.006
   0.00000000  0.11111111  0.50000000       0.006
   0.11111111  0.11111111  0.50000000       0.006
   0.22222222  0.11111111  0.50000000       0.006
   0.33333333  0.11111111  0.50000000       0.006
   0.44444444  0.11111111  0.50000000       0.006
  -0.44444444  0.11111111  0.50000000       0.006
  -0.33333333  0.11111111  0.50000000       0.006
  -0.22222222  0.11111111  0.50000000       0.006
  -0.11111111  0.11111111  0.50000000       0.006
   0.00000000  0.22222222  0.50000000       0.006
   0.11111111  0.22222222  0.50000000       0.006
   0.22222222  0.22222222  0.50000000       0.006
   0.33333333  0.22222222  0.50000000       0.006
   0.44444444  0.22222222  0.50000000       0.006
  -0.44444444  0.22222222  0.50000000       0.006
  -0.33333333  0.22222222  0.50000000       0.006
  -0.22222222  0.22222222  0.50000000       0.006
  -0.11111111  0.22222222  0.50000000       0.006
   0.00000000  0.33333333  0.50000000       0.006
   0.11111111  0.33333333  0.50000000       0.006
   0.22222222  0.33333333  0.50000000       0.006
   0.33333333  0.33333333  0.50000000       0.006
   0.44444444  0.33333333  0.50000000       0.006
  -0.44444444  0.33333333  0.50000000       0.006
  -0.33333333  0.33333333  0.50000000       0.006
  -0.22222222  0.33333333  0.50000000       0.006
  -0.11111111  0.33333333  0.50000000       0.006
   0.00000000  0.44444444  0.50000000       0.006
   0.11111111  0.44444444  0.50000000       0.006
   0.22222222  0.44444444  0.50000000       0.006
   0.33333333  0.44444444  0.50000000       0.006
   0.44444444  0.44444444  0.50000000       0.006
  -0.44444444  0.44444444  0.50000000       0.006
  -0.33333333  0.44444444  0.50000000       0.006
  -0.22222222  0.44444444  0.50000000       0.006
  -0.11111111  0.44444444  0.50000000       0.006
 
 position of ions in fractional coordinates (direct lattice) 
   0.50094053  0.00000017  0.12594068
   0.99999985  0.00000017  0.12500000
   0.49999985  0.50000017  0.12500000
   0.99999985  0.50000017  0.12500000
   0.49999985  0.00000017  0.62500000
   0.99999985  0.00000017  0.62500000
   0.49999985  0.50000017  0.62500000
   0.99999985  0.50000017  0.62500000
   0.00000017  0.49999985  0.37500000
   0.50000017  0.49999985  0.37500000
   0.00000017  0.99999985  0.37500000
   0.50000017  0.99999985  0.37500000
   0.00000017  0.49999985  0.87500000
   0.50000017  0.49999985  0.87500000
   0.00000017  0.99999985  0.87500000
   0.50000017  0.99999985  0.87500000
   0.16664946  0.33335053  0.12500000
   0.66664946  0.33335053  0.12500000
   0.16664946  0.83335053  0.12500000
   0.66664946  0.83335053  0.12500000
   0.16664946  0.33335053  0.62500000
   0.66664946  0.33335053  0.62500000
   0.16664946  0.83335053  0.62500000
   0.66664946  0.83335053  0.62500000
   0.33335053  0.16664946  0.37500000
   0.83335053  0.16664946  0.37500000
   0.33335053  0.66664946  0.37500000
   0.83335053  0.66664946  0.37500000
   0.33335053  0.16664946  0.87500000
   0.83335053  0.16664946  0.87500000
   0.33335053  0.66664946  0.87500000
   0.83335053  0.66664946  0.87500000
 
 position of ions in cartesian coordinates  (Angst):
   2.47179588 -0.00011066  1.18586241
   4.93430971 -0.00022165  1.17700490
   1.23348024  2.13645323  1.17700490
   3.70063568  2.13634203  1.17700490
   2.46715426 -0.00011045  5.88502452
   4.93430971 -0.00022165  5.88502452
   1.23348024  2.13645323  5.88502452
   3.70063568  2.13634203  5.88502452
  -1.23367279  2.13656304  3.53101471
   1.23348265  2.13645184  3.53101471
  -2.46734681  4.27312673  3.53101471
  -0.00019137  4.27301553  3.53101471
  -1.23367279  2.13656304  8.23903433
   1.23348265  2.13645184  8.23903433
  -2.46734681  4.27312673  8.23903433
  -0.00019137  4.27301553  8.23903433
  -0.00019150  1.42441220  1.17700490
   2.46696394  1.42430100  1.17700490
  -1.23386552  3.56097589  1.17700490
   1.23328992  3.56086469  1.17700490
  -0.00019150  1.42441220  5.88502452
   2.46696394  1.42430100  5.88502452
  -1.23386552  3.56097589  5.88502452
   1.23328992  3.56086469  5.88502452
   1.23367290  0.71204025  3.53101471
   3.70082834  0.71192905  3.53101471
  -0.00000112  2.84860394  3.53101471
   2.46715432  2.84849274  3.53101471
   1.23367290  0.71204025  8.23903433
   3.70082834  0.71192905  8.23903433
  -0.00000112  2.84860394  8.23903433
   2.46715432  2.84849274  8.23903433
 


--------------------------------------------------------------------------------------------------------


 k-point  1 :   0.0000 0.0000 0.0000  plane waves:    6577
 k-point  2 :   0.1111 0.0000 0.0000  plane waves:    6617
 k-point  3 :   0.2222 0.0000 0.0000  plane waves:    6621
 k-point  4 :   0.3333 0.0000 0.0000  plane waves:    6631
 k-point  5 :   0.4444 0.0000 0.0000  plane waves:    6631
 k-point  6 :   0.0000 0.1111 0.0000  plane waves:    6617
 k-point  7 :   0.1111 0.1111 0.0000  plane waves:    6600
 k-point  8 :   0.2222 0.1111 0.0000  plane waves:    6618
 k-point  9 :   0.3333 0.1111 0.0000  plane waves:    6630
 k-point 10 :   0.4444 0.1111 0.0000  plane waves:    6636
 k-point 11 :  -0.4444 0.1111 0.0000  plane waves:    6628
 k-point 12 :  -0.3333 0.1111 0.0000  plane waves:    6616
 k-point 13 :  -0.2222 0.1111 0.0000  plane waves:    6600
 k-point 14 :  -0.1111 0.1111 0.0000  plane waves:    6617
 k-point 15 :   0.0000 0.2222 0.0000  plane waves:    6621
 k-point 16 :   0.1111 0.2222 0.0000  plane waves:    6618
 k-point 17 :   0.2222 0.2222 0.0000  plane waves:    6632
 k-point 18 :   0.3333 0.2222 0.0000  plane waves:    6648
 k-point 19 :   0.4444 0.2222 0.0000  plane waves:    6646
 k-point 20 :  -0.4444 0.2222 0.0000  plane waves:    6632
 k-point 21 :  -0.3333 0.2222 0.0000  plane waves:    6616
 k-point 22 :  -0.2222 0.2222 0.0000  plane waves:    6621
 k-point 23 :  -0.1111 0.2222 0.0000  plane waves:    6600
 k-point 24 :   0.0000 0.3333 0.0000  plane waves:    6631
 k-point 25 :   0.1111 0.3333 0.0000  plane waves:    6630
 k-point 26 :   0.2222 0.3333 0.0000  plane waves:    6648
 k-point 27 :   0.3333 0.3333 0.0000  plane waves:    6636
 k-point 28 :   0.4444 0.3333 0.0000  plane waves:    6646
 k-point 29 :  -0.4444 0.3333 0.0000  plane waves:    6628
 k-point 30 :  -0.3333 0.3333 0.0000  plane waves:    6631
 k-point 31 :  -0.2222 0.3333 0.0000  plane waves:    6616
 k-point 32 :  -0.1111 0.3333 0.0000  plane waves:    6616
 k-point 33 :   0.0000 0.4444 0.0000  plane waves:    6631
 k-point 34 :   0.1111 0.4444 0.0000  plane waves:    6636
 k-point 35 :   0.2222 0.4444 0.0000  plane waves:    6646
 k-point 36 :   0.3333 0.4444 0.0000  plane waves:    6646
 k-point 37 :   0.4444 0.4444 0.0000  plane waves:    6636
 k-point 38 :  -0.4444 0.4444 0.0000  plane waves:    6631
 k-point 39 :  -0.3333 0.4444 0.0000  plane waves:    6628
 k-point 40 :  -0.2222 0.4444 0.0000  plane waves:    6632
 k-point 41 :  -0.1111 0.4444 0.0000  plane waves:    6628
 k-point 42 :   0.0000 0.0000 0.2500  plane waves:    6608
 k-point 43 :   0.1111 0.0000 0.2500  plane waves:    6608
 k-point 44 :   0.2222 0.0000 0.2500  plane waves:    6626
 k-point 45 :   0.3333 0.0000 0.2500  plane waves:    6632
 k-point 46 :   0.4444 0.0000 0.2500  plane waves:    6637
 k-point 47 :  -0.4444-0.0000 0.2500  plane waves:    6637
 k-point 48 :  -0.3333 0.0000 0.2500  plane waves:    6632
 k-point 49 :  -0.2222-0.0000 0.2500  plane waves:    6626
 k-point 50 :  -0.1111-0.0000 0.2500  plane waves:    6608
 k-point 51 :   0.0000 0.1111 0.2500  plane waves:    6608
 k-point 52 :   0.1111 0.1111 0.2500  plane waves:    6607
 k-point 53 :   0.2222 0.1111 0.2500  plane waves:    6628
 k-point 54 :   0.3333 0.1111 0.2500  plane waves:    6632
 k-point 55 :   0.4444 0.1111 0.2500  plane waves:    6624
 k-point 56 :  -0.4444 0.1111 0.2500  plane waves:    6632
 k-point 57 :  -0.3333 0.1111 0.2500  plane waves:    6628
 k-point 58 :  -0.2222 0.1111 0.2500  plane waves:    6605
 k-point 59 :  -0.1111 0.1111 0.2500  plane waves:    6608
 k-point 60 :   0.0000 0.2222 0.2500  plane waves:    6626
 k-point 61 :   0.1111 0.2222 0.2500  plane waves:    6628
 k-point 62 :   0.2222 0.2222 0.2500  plane waves:    6623
 k-point 63 :   0.3333 0.2222 0.2500  plane waves:    6630
 k-point 64 :   0.4444 0.2222 0.2500  plane waves:    6630
 k-point 65 :  -0.4444 0.2222 0.2500  plane waves:    6623
 k-point 66 :  -0.3333 0.2222 0.2500  plane waves:    6629
 k-point 67 :  -0.2222 0.2222 0.2500  plane waves:    6626
 k-point 68 :  -0.1111 0.2222 0.2500  plane waves:    6605
 k-point 69 :   0.0000 0.3333 0.2500  plane waves:    6632
 k-point 70 :   0.1111 0.3333 0.2500  plane waves:    6632
 k-point 71 :   0.2222 0.3333 0.2500  plane waves:    6630
 k-point 72 :   0.3333 0.3333 0.2500  plane waves:    6636
 k-point 73 :   0.4444 0.3333 0.2500  plane waves:    6629
 k-point 74 :  -0.4444 0.3333 0.2500  plane waves:    6632
 k-point 75 :  -0.3333 0.3333 0.2500  plane waves:    6632
 k-point 76 :  -0.2222 0.3333 0.2500  plane waves:    6629
 k-point 77 :  -0.1111 0.3333 0.2500  plane waves:    6628
 k-point 78 :   0.0000 0.4444 0.2500  plane waves:    6637
 k-point 79 :   0.1111 0.4444 0.2500  plane waves:    6624
 k-point 80 :   0.2222 0.4444 0.2500  plane waves:    6630
 k-point 81 :   0.3333 0.4444 0.2500  plane waves:    6629
 k-point 82 :   0.4444 0.4444 0.2500  plane waves:    6624
 k-point 83 :  -0.4444 0.4444 0.2500  plane waves:    6637
 k-point 84 :  -0.3333 0.4444 0.2500  plane waves:    6632
 k-point 85 :  -0.2222 0.4444 0.2500  plane waves:    6623
 k-point 86 :  -0.1111 0.4444 0.2500  plane waves:    6632
 k-point 87 :  -0.0000-0.4444 0.2500  plane waves:    6637
 k-point 88 :   0.1111-0.4444 0.2500  plane waves:    6632
 k-point 89 :   0.2222-0.4444 0.2500  plane waves:    6623
 k-point 90 :   0.3333-0.4444 0.2500  plane waves:    6632
 k-point 91 :   0.4444-0.4444 0.2500  plane waves:    6637
 k-point 92 :  -0.4444-0.4444 0.2500  plane waves:    6624
 k-point 93 :  -0.3333-0.4444 0.2500  plane waves:    6629
 k-point 94 :  -0.2222-0.4444 0.2500  plane waves:    6630
 k-point 95 :  -0.1111-0.4444 0.2500  plane waves:    6624
 k-point 96 :  -0.0000-0.3333 0.2500  plane waves:    6632
 k-point 97 :   0.1111-0.3333 0.2500  plane waves:    6628
 k-point 98 :   0.2222-0.3333 0.2500  plane waves:    6629
 k-point 99 :   0.3333-0.3333 0.2500  plane waves:    6632
 k-point ** :   0.4444-0.3333 0.2500  plane waves:    6632
 k-point ** :  -0.4444-0.3333 0.2500  plane waves:    6629
 k-point ** :  -0.3333-0.3333 0.2500  plane waves:    6636
 k-point ** :  -0.2222-0.3333 0.2500  plane waves:    6630
 k-point ** :  -0.1111-0.3333 0.2500  plane waves:    6632
 k-point ** :  -0.0000-0.2222 0.2500  plane waves:    6626
 k-point ** :   0.1111-0.2222 0.2500  plane waves:    6605
 k-point ** :   0.2222-0.2222 0.2500  plane waves:    6626
 k-point ** :   0.3333-0.2222 0.2500  plane waves:    6629
 k-point ** :   0.4444-0.2222 0.2500  plane waves:    6623
 k-point ** :  -0.4444-0.2222 0.2500  plane waves:    6630
 k-point ** :  -0.3333-0.2222 0.2500  plane waves:    6630
 k-point ** :  -0.2222-0.2222 0.2500  plane waves:    6623
 k-point ** :  -0.1111-0.2222 0.2500  plane waves:    6628
 k-point ** :  -0.0000-0.1111 0.2500  plane waves:    6608
 k-point ** :   0.1111-0.1111 0.2500  plane waves:    6608
 k-point ** :   0.2222-0.1111 0.2500  plane waves:    6605
 k-point ** :   0.3333-0.1111 0.2500  plane waves:    6628
 k-point ** :   0.4444-0.1111 0.2500  plane waves:    6632
 k-point ** :  -0.4444-0.1111 0.2500  plane waves:    6624
 k-point ** :  -0.3333-0.1111 0.2500  plane waves:    6632
 k-point ** :  -0.2222-0.1111 0.2500  plane waves:    6628
 k-point ** :  -0.1111-0.1111 0.2500  plane waves:    6607
 k-point ** :   0.0000 0.0000 0.5000  plane waves:    6602
 k-point ** :   0.1111 0.0000 0.5000  plane waves:    6598
 k-point ** :   0.2222 0.0000 0.5000  plane waves:    6618
 k-point ** :   0.3333 0.0000 0.5000  plane waves:    6634
 k-point ** :   0.4444 0.0000 0.5000  plane waves:    6652
 k-point ** :   0.0000 0.1111 0.5000  plane waves:    6598
 k-point ** :   0.1111 0.1111 0.5000  plane waves:    6610
 k-point ** :   0.2222 0.1111 0.5000  plane waves:    6628
 k-point ** :   0.3333 0.1111 0.5000  plane waves:    6632
 k-point ** :   0.4444 0.1111 0.5000  plane waves:    6650
 k-point ** :  -0.4444 0.1111 0.5000  plane waves:    6632
 k-point ** :  -0.3333 0.1111 0.5000  plane waves:    6628
 k-point ** :  -0.2222 0.1111 0.5000  plane waves:    6610
 k-point ** :  -0.1111 0.1111 0.5000  plane waves:    6598
 k-point ** :   0.0000 0.2222 0.5000  plane waves:    6618
 k-point ** :   0.1111 0.2222 0.5000  plane waves:    6628
 k-point ** :   0.2222 0.2222 0.5000  plane waves:    6632
 k-point ** :   0.3333 0.2222 0.5000  plane waves:    6626
 k-point ** :   0.4444 0.2222 0.5000  plane waves:    6626
 k-point ** :  -0.4444 0.2222 0.5000  plane waves:    6632
 k-point ** :  -0.3333 0.2222 0.5000  plane waves:    6628
 k-point ** :  -0.2222 0.2222 0.5000  plane waves:    6618
 k-point ** :  -0.1111 0.2222 0.5000  plane waves:    6610
 k-point ** :   0.0000 0.3333 0.5000  plane waves:    6634
 k-point ** :   0.1111 0.3333 0.5000  plane waves:    6632
 k-point ** :   0.2222 0.3333 0.5000  plane waves:    6626
 k-point ** :   0.3333 0.3333 0.5000  plane waves:    6630
 k-point ** :   0.4444 0.3333 0.5000  plane waves:    6626
 k-point ** :  -0.4444 0.3333 0.5000  plane waves:    6632
 k-point ** :  -0.3333 0.3333 0.5000  plane waves:    6634
 k-point ** :  -0.2222 0.3333 0.5000  plane waves:    6628
 k-point ** :  -0.1111 0.3333 0.5000  plane waves:    6628
 k-point ** :   0.0000 0.4444 0.5000  plane waves:    6652
 k-point ** :   0.1111 0.4444 0.5000  plane waves:    6650
 k-point ** :   0.2222 0.4444 0.5000  plane waves:    6626
 k-point ** :   0.3333 0.4444 0.5000  plane waves:    6626
 k-point ** :   0.4444 0.4444 0.5000  plane waves:    6650
 k-point ** :  -0.4444 0.4444 0.5000  plane waves:    6652
 k-point ** :  -0.3333 0.4444 0.5000  plane waves:    6632
 k-point ** :  -0.2222 0.4444 0.5000  plane waves:    6632
 k-point ** :  -0.1111 0.4444 0.5000  plane waves:    6632

 maximum and minimum number of plane-waves per node :      6652     6577

 maximum number of plane-waves:      6652
 maximum index in each direction: 
   IXMAX=   10   IYMAX=   10   IZMAX=   18
   IXMIN=  -10   IYMIN=  -10   IZMIN=  -19

 WARNING: aliasing errors must be expected set NGX to  42 to avoid them
 WARNING: aliasing errors must be expected set NGY to  42 to avoid them
 NGZ is ok and might be reduce to  76
 aliasing errors are usually negligible using standard VASP settings
 and one can safely disregard these warnings

 serial   3D FFT for wavefunctions
 parallel 3D FFT for charge:
    minimum data exchange during FFTs selected (reduces bandwidth)


 total amount of memory used by VASP on root node   375634. kBytes
========================================================================

   base      :      30000. kBytes
   nonl-proj :      72821. kBytes
   fftplans  :       6527. kBytes
   grid      :      13818. kBytes
   one-center:         98. kBytes
   wavefun   :     252370. kBytes
 
     INWAV:  cpu time    0.00: real time    0.00
 Broyden mixing: mesh for mixing (old mesh)
   NGX = 19   NGY = 19   NGZ = 37
  (NGX  = 80   NGY  = 80   NGZ  =160)
  gives a total of  13357 points

 initial charge density was supplied:
 charge density of overlapping atoms calculated
 number of electron     128.0000000 magnetization 
 keeping initial charge density in first step


--------------------------------------------------------------------------------------------------------


 Maximum index for augmentation-charges         1503 (set IRDMAX)


--------------------------------------------------------------------------------------------------------


 First call to EWALD:  gamma=   0.304
 Maximum number of real-space cells 4x 4x 2
 Maximum number of reciprocal cells 2x 2x 4

 FEWALD executed in parallel
    FEWALD:  cpu time    0.00: real time    0.00


----------------------------------------- Iteration    1(   1)  ---------------------------------------


    POTLOK:  cpu time    0.17: real time    0.17
    SETDIJ:  cpu time    0.02: real time    0.02
     EDDAV:  cpu time  112.43: real time  112.50
       DOS:  cpu time    0.01: real time    0.01
    --------------------------------------------
      LOOP:  cpu time  112.62: real time  112.73

 eigenvalue-minimisations  : 27384
 total energy-change (2. order) : 0.4713829E+03  (-0.7548545E+04)
 number of electron     128.0000000 magnetization 
 augmentation part      128.0000000 magnetization 

 Free energy of the ion-electron system (eV)
  ---------------------------------------------------
  alpha Z        PSCENC =       420.26434557
  Ewald energy   TEWEN  =     -5156.44629021
  -Hartree energ DENC   =      -416.00964034
  -exchange      EXHF   =         0.00000000
  -V(xc)+E(xc)   XCENC  =       454.13719455
  PAW double counting   =      1210.60617908    -1247.42152856
  entropy T*S    EENTRO =        -0.01266521
  eigenvalues    EBANDS =       497.45614677
  atomic energy  EATOM  =      4708.80920826
  ---------------------------------------------------
  free energy    TOTEN  =       471.38294992 eV

  energy without entropy =      471.39561513  energy(sigma->0) =      471.38928253


--------------------------------------------------------------------------------------------------------




----------------------------------------- Iteration    1(   2)  ---------------------------------------


     EDDAV:  cpu time  138.10: real time  138.18
       DOS:  cpu time    0.01: real time    0.01
    --------------------------------------------
      LOOP:  cpu time  138.12: real time  138.19

 eigenvalue-minimisations  : 34164
 total energy-change (2. order) :-0.7303518E+03  (-0.6996660E+03)
 number of electron     128.0000000 magnetization 
 augmentation part      128.0000000 magnetization 

 Free energy of the ion-electron system (eV)
  ---------------------------------------------------
  alpha Z        PSCENC =       420.26434557
  Ewald energy   TEWEN  =     -5156.44629021
  -Hartree energ DENC   =      -416.00964034
  -exchange      EXHF   =         0.00000000
  -V(xc)+E(xc)   XCENC  =       454.13719455
  PAW double counting   =      1210.60617908    -1247.42152856
  entropy T*S    EENTRO =        -0.00673087
  eigenvalues    EBANDS =      -232.90158964
  atomic energy  EATOM  =      4708.80920826
  ---------------------------------------------------
  free energy    TOTEN  =      -258.96885215 eV

  energy without entropy =     -258.96212128  energy(sigma->0) =     -258.96548672


--------------------------------------------------------------------------------------------------------




----------------------------------------- Iteration    1(   3)  ---------------------------------------


     EDDAV:  cpu time  136.53: real time  136.60
       DOS:  cpu time    0.01: real time    0.01
    --------------------------------------------
      LOOP:  cpu time  136.54: real time  136.62

 eigenvalue-minimisations  : 33420
 total energy-change (2. order) :-0.3715022E+02  (-0.3667969E+02)
 number of electron     128.0000000 magnetization 
 augmentation part      128.0000000 magnetization 

 Free energy of the ion-electron system (eV)
  ---------------------------------------------------
  alpha Z        PSCENC =       420.26434557
  Ewald energy   TEWEN  =     -5156.44629021
  -Hartree energ DENC   =      -416.00964034
  -exchange      EXHF   =         0.00000000
  -V(xc)+E(xc)   XCENC  =       454.13719455
  PAW double counting   =      1210.60617908    -1247.42152856
  entropy T*S    EENTRO =        -0.00617281
  eigenvalues    EBANDS =      -270.05236665
  atomic energy  EATOM  =      4708.80920826
  ---------------------------------------------------
  free energy    TOTEN  =      -296.11907110 eV

  energy without entropy =     -296.11289829  energy(sigma->0) =     -296.11598470


--------------------------------------------------------------------------------------------------------




----------------------------------------- Iteration    1(   4)  ---------------------------------------


     EDDAV:  cpu time  134.45: real time  134.52
       DOS:  cpu time    0.01: real time    0.01
    --------------------------------------------
      LOOP:  cpu time  134.47: real time  134.54

 eigenvalue-minimisations  : 33060
 total energy-change (2. order) :-0.5809310E+00  (-0.5793706E+00)
 number of electron     128.0000000 magnetization 
 augmentation part      128.0000000 magnetization 

 Free energy of the ion-electron system (eV)
  ---------------------------------------------------
  alpha Z        PSCENC =       420.26434557
  Ewald energy   TEWEN  =     -5156.44629021
  -Hartree energ DENC   =      -416.00964034
  -exchange      EXHF   =         0.00000000
  -V(xc)+E(xc)   XCENC  =       454.13719455
  PAW double counting   =      1210.60617908    -1247.42152856
  entropy T*S    EENTRO =        -0.00615506
  eigenvalues    EBANDS =      -270.63331544
  atomic energy  EATOM  =      4708.80920826
  ---------------------------------------------------
  free energy    TOTEN  =      -296.70000213 eV

  energy without entropy =     -296.69384707  energy(sigma->0) =     -296.69692460


--------------------------------------------------------------------------------------------------------




----------------------------------------- Iteration    1(   5)  ---------------------------------------


     EDDAV:  cpu time  129.70: real time  129.76
       DOS:  cpu time    0.01: real time    0.01
    CHARGE:  cpu time    5.80: real time    5.80
    MIXING:  cpu time    0.00: real time    0.01
    --------------------------------------------
      LOOP:  cpu time  135.51: real time  135.58

 eigenvalue-minimisations  : 33288
 total energy-change (2. order) :-0.1398375E-01  (-0.1397690E-01)
 number of electron     127.9999995 magnetization 
 augmentation part        3.3788115 magnetization 

 Broyden mixing:
  rms(total) = 0.21958E+01    rms(broyden)= 0.21955E+01
  rms(prec ) = 0.28477E+01
  weight for this iteration     100.00

 Free energy of the ion-electron system (eV)
  ---------------------------------------------------
  alpha Z        PSCENC =       420.26434557
  Ewald energy   TEWEN  =     -5156.44629021
  -Hartree energ DENC   =      -416.00964034
  -exchange      EXHF   =         0.00000000
  -V(xc)+E(xc)   XCENC  =       454.13719455
  PAW double counting   =      1210.60617908    -1247.42152856
  entropy T*S    EENTRO =        -0.00615449
  eigenvalues    EBANDS =      -270.64729975
  atomic energy  EATOM  =      4708.80920826
  ---------------------------------------------------
  free energy    TOTEN  =      -296.71398588 eV

  energy without entropy =     -296.70783138  energy(sigma->0) =     -296.71090863


--------------------------------------------------------------------------------------------------------




----------------------------------------- Iteration    1(   6)  ---------------------------------------


    POTLOK:  cpu time    0.16: real time    0.16
    SETDIJ:  cpu time    0.02: real time    0.02
     EDDAV:  cpu time  130.36: real time  130.43
       DOS:  cpu time    0.01: real time    0.01
    CHARGE:  cpu time    5.92: real time    5.92
    MIXING:  cpu time    0.01: real time    0.01
    --------------------------------------------
      LOOP:  cpu time  136.48: real time  136.55

 eigenvalue-minimisations  : 31260
 total energy-change (2. order) : 0.1199025E+02  (-0.1087239E+01)
 number of electron     127.9999995 magnetization 
 augmentation part        3.2429608 magnetization 

 Broyden mixing:
  rms(total) = 0.11556E+01    rms(broyden)= 0.11556E+01
  rms(prec ) = 0.14819E+01
  weight for this iteration     100.00

 eigenvalues of (default mixing * dielectric matrix)
  average eigenvalue GAMMA=   2.0546
  2.0546

 Free energy of the ion-electron system (eV)
  ---------------------------------------------------
  alpha Z        PSCENC =       420.26434557
  Ewald energy   TEWEN  =     -5156.44629021
  -Hartree energ DENC   =      -499.58955874
  -exchange      EXHF   =         0.00000000
  -V(xc)+E(xc)   XCENC  =       461.15749281
  PAW double counting   =      1640.36642174    -1680.07576356
  entropy T*S    EENTRO =        -0.00725377
  eigenvalues    EBANDS =      -179.20233970
  atomic energy  EATOM  =      4708.80920826
  ---------------------------------------------------
  free energy    TOTEN  =      -284.72373760 eV

  energy without entropy =     -284.71648383  energy(sigma->0) =     -284.72011072


--------------------------------------------------------------------------------------------------------




----------------------------------------- Iteration    1(   7)  ---------------------------------------


    POTLOK:  cpu time    0.16: real time    0.17
    SETDIJ:  cpu time    0.02: real time    0.02
     EDDAV:  cpu time  131.36: real time  131.42
       DOS:  cpu time    0.01: real time    0.01
    CHARGE:  cpu time    5.91: real time    5.92
    MIXING:  cpu time    0.01: real time    0.01
    --------------------------------------------
      LOOP:  cpu time  137.47: real time  137.54

 eigenvalue-minimisations  : 30456
 total energy-change (2. order) : 0.3782519E+01  (-0.1090720E+01)
 number of electron     127.9999996 magnetization 
 augmentation part        3.1022659 magnetization 

 Broyden mixing:
  rms(total) = 0.16264E+00    rms(broyden)= 0.16253E+00
  rms(prec ) = 0.18374E+00
  weight for this iteration     100.00

 eigenvalues of (default mixing * dielectric matrix)
  average eigenvalue GAMMA=   1.9382
  1.7419  2.1345

 Free energy of the ion-electron system (eV)
  ---------------------------------------------------
  alpha Z        PSCENC =       420.26434557
  Ewald energy   TEWEN  =     -5156.44629021
  -Hartree energ DENC   =      -594.94850381
  -exchange      EXHF   =         0.00000000
  -V(xc)+E(xc)   XCENC  =       469.28122077
  PAW double counting   =      2192.52472801    -2234.71456291
  entropy T*S    EENTRO =        -0.01051628
  eigenvalues    EBANDS =       -85.70084781
  atomic energy  EATOM  =      4708.80920826
  ---------------------------------------------------
  free energy    TOTEN  =      -280.94121840 eV

  energy without entropy =     -280.93070211  energy(sigma->0) =     -280.93596026


--------------------------------------------------------------------------------------------------------




----------------------------------------- Iteration    1(   8)  ---------------------------------------


    POTLOK:  cpu time    0.17: real time    0.17
    SETDIJ:  cpu time    0.02: real time    0.02
     EDDAV:  cpu time  131.52: real time  131.59
       DOS:  cpu time    0.01: real time    0.01
    CHARGE:  cpu time    5.70: real time    5.70
    MIXING:  cpu time    0.01: real time    0.01
    --------------------------------------------
      LOOP:  cpu time  137.43: real time  137.50

 eigenvalue-minimisations  : 31680
 total energy-change (2. order) :-0.2677895E-01  (-0.2192192E-01)
 number of electron     127.9999996 magnetization 
 augmentation part        3.0965990 magnetization 

 Broyden mixing:
  rms(total) = 0.50372E-01    rms(broyden)= 0.50358E-01
  rms(prec ) = 0.57338E-01
  weight for this iteration     100.00

 eigenvalues of (default mixing * dielectric matrix)
  average eigenvalue GAMMA=   1.8711
  1.1084  1.9660  2.5389

 Free energy of the ion-electron system (eV)
  ---------------------------------------------------
  alpha Z        PSCENC =       420.26434557
  Ewald energy   TEWEN  =     -5156.44629021
  -Hartree energ DENC   =      -594.61305218
  -exchange      EXHF   =         0.00000000
  -V(xc)+E(xc)   XCENC  =       469.29549650
  PAW double counting   =      2235.56623178    -2277.31111837
  entropy T*S    EENTRO =        -0.01049894
  eigenvalues    EBANDS =       -86.52231977
  atomic energy  EATOM  =      4708.80920826
  ---------------------------------------------------
  free energy    TOTEN  =      -280.96799735 eV

  energy without entropy =     -280.95749842  energy(sigma->0) =     -280.96274788


--------------------------------------------------------------------------------------------------------




----------------------------------------- Iteration    1(   9)  ---------------------------------------


    POTLOK:  cpu time    0.36: real time    0.36
    SETDIJ:  cpu time    0.02: real time    0.02
     EDDAV:  cpu time  130.02: real time  130.08
       DOS:  cpu time    0.01: real time    0.01
    CHARGE:  cpu time    5.67: real time    5.67
    MIXING:  cpu time    0.01: real time    0.01
    --------------------------------------------
      LOOP:  cpu time  136.08: real time  136.15

 eigenvalue-minimisations  : 33336
 total energy-change (2. order) :-0.2880845E-02  (-0.5582958E-03)
 number of electron     127.9999996 magnetization 
 augmentation part        3.0963274 magnetization 

 Broyden mixing:
  rms(total) = 0.69680E-02    rms(broyden)= 0.69667E-02
  rms(prec ) = 0.80560E-02
  weight for this iteration     100.00

 eigenvalues of (default mixing * dielectric matrix)
  average eigenvalue GAMMA=   1.8252
  1.0611  2.4874  1.6398  2.1124

 Free energy of the ion-electron system (eV)
  ---------------------------------------------------
  alpha Z        PSCENC =       420.26434557
  Ewald energy   TEWEN  =     -5156.44629021
  -Hartree energ DENC   =      -594.88729343
  -exchange      EXHF   =         0.00000000
  -V(xc)+E(xc)   XCENC  =       469.34258409
  PAW double counting   =      2255.42725216    -2296.97903284
  entropy T*S    EENTRO =        -0.01039762
  eigenvalues    EBANDS =       -86.49125418
  atomic energy  EATOM  =      4708.80920826
  ---------------------------------------------------
  free energy    TOTEN  =      -280.97087820 eV

  energy without entropy =     -280.96048058  energy(sigma->0) =     -280.96567939


--------------------------------------------------------------------------------------------------------




----------------------------------------- Iteration    1(  10)  ---------------------------------------


    POTLOK:  cpu time    0.16: real time    0.16
    SETDIJ:  cpu time    0.01: real time    0.02
     EDDAV:  cpu time  136.33: real time  136.40
       DOS:  cpu time    0.01: real time    0.01
    CHARGE:  cpu time    5.36: real time    5.36
    MIXING:  cpu time    0.01: real time    0.01
    --------------------------------------------
      LOOP:  cpu time  141.88: real time  141.95

 eigenvalue-minimisations  : 33396
 total energy-change (2. order) :-0.1747574E-03  (-0.2389238E-04)
 number of electron     127.9999996 magnetization 
 augmentation part        3.0965277 magnetization 

 Broyden mixing:
  rms(total) = 0.26399E-02    rms(broyden)= 0.26396E-02
  rms(prec ) = 0.34106E-02
  weight for this iteration     100.00

 eigenvalues of (default mixing * dielectric matrix)
  average eigenvalue GAMMA=   1.8836
  2.7676  2.5664  1.9659  0.9418  1.1762

 Free energy of the ion-electron system (eV)
  ---------------------------------------------------
  alpha Z        PSCENC =       420.26434557
  Ewald energy   TEWEN  =     -5156.44629021
  -Hartree energ DENC   =      -594.75945640
  -exchange      EXHF   =         0.00000000
  -V(xc)+E(xc)   XCENC  =       469.33373128
  PAW double counting   =      2253.57009415    -2295.11360019
  entropy T*S    EENTRO =        -0.01036896
  eigenvalues    EBANDS =       -86.61871647
  atomic energy  EATOM  =      4708.80920826
  ---------------------------------------------------
  free energy    TOTEN  =      -280.97105295 eV

  energy without entropy =     -280.96068399  energy(sigma->0) =     -280.96586847


--------------------------------------------------------------------------------------------------------




----------------------------------------- Iteration    1(  11)  ---------------------------------------


    POTLOK:  cpu time    0.15: real time    0.15
    SETDIJ:  cpu time    0.01: real time    0.02
     EDDAV:  cpu time  114.84: real time  114.90
       DOS:  cpu time    0.01: real time    0.01
    CHARGE:  cpu time    5.76: real time    5.76
    MIXING:  cpu time    0.01: real time    0.01
    --------------------------------------------
      LOOP:  cpu time  120.79: real time  120.85

 eigenvalue-minimisations  : 31212
[...]
     76      14.8521      0.00000
     77      15.3417      0.00000
     78      15.3494      0.00000
     79      15.8569      0.00000
     80      15.8613      0.00000
     81      16.3210      0.00000
     82      16.3287      0.00000
     83      17.0951      0.00000
     84      17.1036      0.00000

 k-point   162 :      -0.2222    0.4444    0.5000
  band No.  band energies     occupation 
      1     -11.2504      2.00000
      2     -11.2461      2.00000
      3      -9.4308      2.00000
      4      -9.4301      2.00000
      5      -9.2418      2.00000
      6      -9.2372      2.00000
      7      -9.2359      2.00000
      8      -9.2319      2.00000
      9      -7.5570      2.00000
     10      -7.5534      2.00000
     11      -7.5527      2.00000
     12      -7.5490      2.00000
     13      -5.7954      2.00000
     14      -5.7911      2.00000
     15      -5.1681      2.00000
     16      -5.1651      2.00000
     17      -4.0199      2.00000
     18      -4.0173      2.00000
     19      -3.7806      2.00000
     20      -3.7767      2.00000
     21      -1.6792      2.00000
     22      -1.6730      2.00000
     23      -1.6717      2.00000
     24      -1.6676      2.00000
     25      -1.2725      2.00000
     26      -1.2687      2.00000
     27      -0.6291      2.00000
     28      -0.6244      2.00000
     29      -0.6227      2.00000
     30      -0.6185      2.00000
     31      -0.3596      2.00000
     32      -0.3569      2.00000
     33      -0.2242      2.00000
     34      -0.2190      2.00000
     35       1.4581      2.00000
     36       1.4617      2.00000
     37       1.4638      2.00000
     38       1.4688      2.00000
     39       2.0607      2.00000
     40       2.0671      2.00000
     41       2.0691      2.00000
     42       2.0737      2.00000
     43       2.1908      2.00000
     44       2.1930      2.00000
     45       2.1960      2.00000
     46       2.2006      2.00000
     47       2.4661      2.00000
     48       2.4717      2.00000
     49       2.8687      2.00000
     50       2.8734      2.00000
     51       3.6583      2.00000
     52       3.6633      2.00000
     53       3.9490      2.00000
     54       3.9552      2.00000
     55       5.3329      2.00000
     56       5.3369      2.00000
     57       5.4575      2.00000
     58       5.4667      2.00000
     59       6.9969      2.00000
     60       7.0007      2.00000
     61       7.0019      2.00000
     62       7.0073      2.00000
     63       7.3424      2.00000
     64       7.3444      2.00000
     65       9.7864      0.00000
     66       9.7909      0.00000
     67      11.1925      0.00000
     68      11.2038      0.00000
     69      11.7653      0.00000
     70      11.7731      0.00000
     71      11.7740      0.00000
     72      11.7808      0.00000
     73      14.1357      0.00000
     74      14.1421      0.00000
     75      14.1437      0.00000
     76      14.1496      0.00000
     77      15.6821      0.00000
     78      15.6894      0.00000
     79      16.4796      0.00000
     80      16.4848      0.00000
     81      16.4884      0.00000
     82      16.4948      0.00000
     83      16.7206      0.00000
     84      16.7290      0.00000

 k-point   163 :      -0.1111    0.4444    0.5000
  band No.  band energies     occupation 
      1     -11.1748      2.00000
      2     -11.1705      2.00000
      3      -9.8280      2.00000
      4      -9.8238      2.00000
      5      -9.3600      2.00000
      6      -9.3593      2.00000
      7      -8.5121      2.00000
      8      -8.5079      2.00000
      9      -8.1014      2.00000
     10      -8.1009      2.00000
     11      -6.8805      2.00000
     12      -6.8801      2.00000
     13      -6.6299      2.00000
     14      -6.6258      2.00000
     15      -5.2124      2.00000
     16      -5.2114      2.00000
     17      -3.9305      2.00000
     18      -3.9257      2.00000
     19      -2.8946      2.00000
     20      -2.8930      2.00000
     21      -2.2599      2.00000
     22      -2.2557      2.00000
     23      -1.2606      2.00000
     24      -1.2590      2.00000
     25      -1.1220      2.00000
     26      -1.1189      2.00000
     27      -0.9966      2.00000
     28      -0.9931      2.00000
     29      -0.2702      2.00000
     30      -0.2677      2.00000
     31      -0.1393      2.00000
     32      -0.1342      2.00000
     33       0.0386      2.00000
     34       0.0397      2.00000
     35       0.3821      2.00000
     36       0.3853      2.00000
     37       1.1352      2.00000
     38       1.1381      2.00000
     39       1.4152      2.00000
     40       1.4210      2.00000
     41       2.0452      2.00000
     42       2.0486      2.00000
     43       2.3615      2.00000
     44       2.3645      2.00000
     45       2.7419      2.00000
     46       2.7455      2.00000
     47       2.8773      2.00000
     48       2.8835      2.00000
     49       3.0112      2.00000
     50       3.0121      2.00000
     51       3.5760      2.00000
     52       3.5807      2.00000
     53       4.0876      2.00000
     54       4.0895      2.00000
     55       4.8416      2.00000
     56       4.8492      2.00000
     57       5.4015      2.00000
     58       5.4054      2.00000
     59       6.5492      2.00000
     60       6.5528      2.00000
     61       7.5109      2.00000
     62       7.5144      2.00000
     63       7.8431      2.00000
     64       7.8473      2.00000
     65       9.6220      0.00000
     66       9.6286      0.00000
     67      10.9198      0.00000
     68      10.9268      0.00000
     69      11.5657      0.00000
     70      11.5746      0.00000
     71      12.5720      0.00000
     72      12.5790      0.00000
     73      13.2169      0.00000
     74      13.2230      0.00000
     75      14.8451      0.00000
     76      14.8515      0.00000
     77      15.3418      0.00000
     78      15.3490      0.00000
     79      15.8530      0.00000
     80      15.8569      0.00000
     81      16.3179      0.00000
     82      16.3250      0.00000
     83      17.0946      0.00000
     84      17.1013      0.00000


--------------------------------------------------------------------------------------------------------


 soft charge-density along one line, spin component           1
         0         1         2         3         4         5         6         7         8         9
 total charge-density along one line
 
 pseudopotential strength for first ion, spin component:           1
  9.545  -0.002  -0.000  -0.000   0.000   0.000   0.000  -0.000
 -0.002  -0.002  -0.000   0.000   0.000   0.000  -0.000  -0.000
 -0.000  -0.000  -3.743  -0.000   0.000  -0.014  -0.000   0.000
 -0.000   0.000  -0.000  -3.739   0.000  -0.000  -0.011   0.000
  0.000   0.000   0.000   0.000  -3.743   0.000   0.000  -0.014
  0.000   0.000  -0.014  -0.000   0.000  -0.759  -0.000   0.000
  0.000  -0.000  -0.000  -0.011   0.000  -0.000  -0.759   0.000
 -0.000  -0.000   0.000   0.000  -0.014   0.000   0.000  -0.759
 total augmentation occupancy for first ion, spin component:           1
  1.489  -1.094  -0.000  -0.000   0.004  -0.000  -0.001   0.001
 -1.094   1.061   0.000   0.006  -0.004   0.000   0.001  -0.001
 -0.000   0.000   1.224   0.000  -0.003   0.224   0.000  -0.001
 -0.000   0.006   0.000   0.921  -0.000   0.000   0.103  -0.000
  0.004  -0.004  -0.003  -0.000   1.224  -0.001  -0.000   0.224
 -0.000   0.000   0.224   0.000  -0.001   0.047   0.000  -0.000
 -0.001   0.001   0.000   0.103  -0.000   0.000   0.015  -0.000
  0.001  -0.001  -0.001  -0.000   0.224  -0.000  -0.000   0.047


------------------------ aborting loop because EDIFF is reached ----------------------------------------


    CHARGE:  cpu time    5.53: real time    5.53
    FORLOC:  cpu time    0.03: real time    0.04
    FORNL :  cpu time   37.51: real time   37.53
    STRESS:  cpu time   70.59: real time   70.62
    FORHAR:  cpu time    0.07: real time    0.07
    MIXING:  cpu time    0.01: real time    0.01
    OFIELD:  cpu time    0.00: real time    0.00

 ---------------------------------------------------------------------------------------------

         DFTD3 V3.0 Rev 1        
 IVDW         = 11
 DF pbe       
 parameters
 VDW_S6       =    1.0000
 VDW_S8       =    0.7220
 VDW_SR       =    1.2170
 rs18     =    1.0000
 alpha6   =   14.0000
 alpha8   =   16.0000
 k1-k3    =   16.0000    1.3333   -4.0000
 VDW_RADIUS   =   50.2022 A
 VDW_CNRADIUS =   21.1671 A
 Edisp (eV)   -3.72047

 E6    (eV) :    -2.2431
 E8    (eV) :    -1.4773
 % E8        : 39.71
    FORVDW:  cpu time    0.72: real time    0.72

  FORCE on cell =-STRESS in cart. coord.  units (eV):
  Direction    XX          YY          ZZ          XY          YZ          ZX
  --------------------------------------------------------------------------------------
  Alpha Z   420.26435   420.26435   420.26435
  Ewald    -839.59203  -839.99175 -3476.88437    -1.33865     0.00007    -0.01100
  Hartree   419.37829   419.33091  -243.75174    -0.17216    -0.00000    -0.00234
  E(xc)    -475.36250  -475.36445  -485.11595    -0.00525    -0.00000    -0.00002
  Local   -1342.13063 -1341.75980  1720.71704     1.25417    -0.00004     0.01105
  n-local  -109.98259  -109.99786  -112.09329    -0.02082    -0.00000     0.00017
  augment   -12.57023   -12.56955   -11.47149     0.00217    -0.00000     0.00001
  Kinetic  1936.93987  1937.08541  2288.27191     0.29051     0.00002    -0.00027
  Fock        0.00000     0.00000     0.00000     0.00000     0.00000     0.00000
  vdW         1.24292     1.24415     1.58038     0.00169     0.00000    -0.00002
  -------------------------------------------------------------------------------------
  Total      -1.81254    -1.75859   101.51684     0.01165     0.00006    -0.00242
  in kB     -14.62749   -14.19207   819.25551     0.09403     0.00045    -0.01953
  external pressure =      263.48 kB  Pullay stress =        0.00 kB


 VOLUME and BASIS-vectors are now :
 -----------------------------------------------------------------------------
  energy-cutoff  :      600.00
  volume of cell :      198.53
      direct lattice vectors                 reciprocal lattice vectors
     4.934310885 -0.000222400  0.000000000     0.202667819  0.117022500  0.000000000
    -2.467348046  4.273127376  0.000000000     0.000010548  0.234026730  0.000000000
     0.000000000  0.000000000  9.416039238     0.000000000  0.000000000  0.106201766

  length of vectors
     4.934310890  4.934310890  9.416039238     0.234026730  0.234026730  0.106201766


 FORCES acting on ions
    electron-ion (+dipol)            ewald-force                    non-local-force                 convergence-correction
 -----------------------------------------------------------------------------------------------
   0.100E+01 -.492E-02 -.435E+00   -.116E+01 0.837E-02 0.410E+00   -.124E+00 0.151E-02 -.114E+00   0.987E-04 0.127E-05 0.116E-04
   -.275E+00 0.253E-03 0.321E+00   0.290E+00 0.162E-02 -.308E+00   0.218E-01 0.126E-02 -.152E-01   -.105E-03 -.311E-05 0.232E-04
   -.393E-01 0.136E+00 0.321E+00   0.225E-01 -.153E+00 -.308E+00   0.571E-02 -.812E-02 -.152E-01   0.793E-05 0.649E-04 0.232E-04
   -.396E-01 -.135E+00 0.321E+00   0.224E-01 0.156E+00 -.308E+00   0.576E-02 0.105E-01 -.152E-01   0.366E-06 -.629E-04 0.251E-04
   0.361E-02 0.413E-03 -.139E+00   -.566E-02 0.163E-02 0.140E+00   -.189E-02 0.118E-02 -.700E-03   -.428E-04 -.110E-05 -.261E-04
   -.363E-02 0.439E-03 -.125E+00   -.102E-03 0.163E-02 0.126E+00   -.143E-02 0.117E-02 0.256E-02   0.433E-04 0.222E-05 -.339E-04
   -.534E-04 0.247E-02 -.125E+00   -.284E-02 0.509E-04 0.126E+00   -.171E-02 0.102E-02 0.257E-02   -.260E-05 -.253E-04 -.348E-04
   -.972E-05 -.168E-02 -.125E+00   -.284E-02 0.322E-02 0.126E+00   -.172E-02 0.135E-02 0.256E-02   0.227E-05 0.243E-04 -.348E-04
   0.132E-02 -.232E-01 -.738E-01   0.435E-02 0.207E-01 0.744E-01   0.149E-02 -.182E-02 -.162E-02   0.477E-05 0.895E-05 0.947E-05
   -.474E-02 0.190E-01 -.725E-01   0.436E-02 -.240E-01 0.744E-01   0.169E-02 -.430E-03 -.592E-02   -.335E-05 -.103E-04 0.994E-05
   -.383E-01 0.311E-02 -.732E-01   0.431E-01 -.166E-02 0.745E-01   0.389E-03 -.130E-02 -.378E-02   0.171E-04 0.331E-05 0.102E-04
   0.525E-01 -.400E-03 -.319E+00   -.520E-01 -.165E-02 0.337E+00   0.160E-02 -.118E-02 -.159E-01   -.185E-04 -.202E-05 0.821E-05
   -.462E-02 -.193E-01 -.731E-01   0.430E-02 0.202E-01 0.751E-01   0.171E-02 -.191E-02 -.591E-02   -.297E-05 0.123E-04 -.281E-06
   0.133E-02 0.220E-01 -.744E-01   0.431E-02 -.235E-01 0.751E-01   0.149E-02 -.574E-03 -.163E-02   0.384E-05 -.214E-05 0.106E-05
   -.374E-01 -.382E-02 -.736E-01   0.422E-01 -.166E-02 0.750E-01   0.443E-03 -.106E-02 -.376E-02   0.131E-04 -.660E-05 0.305E-06
   0.510E-01 -.399E-03 -.317E+00   -.503E-01 -.165E-02 0.334E+00   0.155E-02 -.118E-02 -.149E-01   -.140E-04 -.353E-05 0.130E-05
   -.104E+00 -.426E-03 0.259E+00   0.107E+00 -.160E-02 -.264E+00   0.480E-02 -.123E-02 0.188E-01   -.415E-04 0.203E-05 0.269E-04
   0.323E+00 0.785E-02 0.746E+00   -.309E+00 -.105E-01 -.788E+00   0.355E-01 -.105E-02 0.706E-01   0.328E-04 -.255E-05 0.188E-04
   -.447E+00 -.443E+00 0.741E+00   0.525E+00 0.478E+00 -.783E+00   0.263E-01 -.641E-02 0.702E-01   0.799E-05 -.157E-04 0.194E-04
   -.438E+00 0.441E+00 0.751E+00   0.516E+00 -.480E+00 -.794E+00   0.277E-01 0.339E-02 0.709E-01   0.614E-06 0.157E-04 0.176E-04
   -.207E-02 0.103E-04 -.124E+00   0.490E-02 -.202E-02 0.124E+00   0.191E-02 -.122E-02 -.133E-02   0.203E-04 -.905E-06 -.348E-04
   0.872E-03 -.286E-04 -.130E+00   0.215E-02 -.199E-02 0.131E+00   0.205E-02 -.123E-02 -.250E-02   -.202E-04 0.920E-08 -.304E-04
   -.434E-03 -.738E-03 -.130E+00   0.354E-02 -.123E-02 0.131E+00   0.193E-02 -.129E-02 -.250E-02   -.675E-06 0.122E-04 -.303E-04
   -.498E-03 0.808E-03 -.130E+00   0.359E-02 -.287E-02 0.131E+00   0.192E-02 -.115E-02 -.249E-02   -.897E-07 -.113E-04 -.300E-04
   0.713E-01 -.286E-01 -.985E-01   -.816E-01 0.339E-01 0.101E+00   -.107E-02 0.933E-03 0.605E-02   -.159E-04 0.413E-05 0.237E-04
   -.803E-01 -.591E-01 -.183E+00   0.853E-01 0.667E-01 0.189E+00   -.113E-02 0.148E-02 0.464E-02   0.175E-04 0.145E-04 -.676E-05
   0.219E-01 0.876E-01 -.141E+00   -.266E-01 -.943E-01 0.145E+00   -.158E-02 0.126E-02 0.534E-02   -.843E-05 -.187E-04 0.826E-05
   -.151E-01 0.111E-04 -.572E-01   0.143E-01 0.200E-02 0.614E-01   -.303E-02 0.123E-02 -.471E-02   0.731E-05 -.611E-07 0.984E-05
   -.795E-01 0.581E-01 -.182E+00   0.842E-01 -.615E-01 0.188E+00   -.113E-02 0.968E-03 0.461E-02   0.179E-04 -.155E-04 -.143E-04
   0.710E-01 0.285E-01 -.995E-01   -.810E-01 -.296E-01 0.102E+00   -.111E-02 0.150E-02 0.597E-02   -.170E-04 -.101E-04 0.152E-04
   0.214E-01 -.868E-01 -.141E+00   -.260E-01 0.974E-01 0.145E+00   -.158E-02 0.121E-02 0.529E-02   -.403E-05 0.232E-04 0.637E-06
   -.147E-01 0.275E-04 -.579E-01   0.140E-01 0.199E-02 0.621E-01   -.303E-02 0.123E-02 -.461E-02   0.323E-05 0.220E-05 0.212E-05
 -----------------------------------------------------------------------------------------------
   -.866E-03 -.212E-05 -.377E-01   -.999E-14 -.256E-13 -.319E-13   0.866E-03 0.379E-05 0.378E-01   0.161E-05 -.688E-06 -.104E-04
 
 
 POSITION                                       TOTAL-FORCE (eV/Angst)
 -----------------------------------------------------------------------------------
      2.47180     -0.00011      1.18586        -0.282433      0.004960     -0.145671
      4.93431     -0.00022      1.17700         0.038948      0.003124     -0.002382
      1.23348      2.13645      1.17700        -0.010802     -0.025564     -0.002300
      3.70064      2.13634      1.17700        -0.011104      0.032063     -0.002480
      2.46715     -0.00011      5.88502        -0.003985      0.003225     -0.000023
      4.93431     -0.00022      5.88502        -0.005123      0.003246      0.002926
      1.23348      2.13645      5.88502        -0.004611      0.003518      0.002927
      3.70064      2.13634      5.88502        -0.004578      0.002908      0.002926
     -1.23367      2.13656      3.53101         0.007170     -0.004301     -0.000845
      1.23348      2.13645      3.53101         0.001317     -0.005538     -0.003887
     -2.46735      4.27313      3.53101         0.005314      0.000154     -0.002375
     -0.00019      4.27302      3.53101         0.001956     -0.003236      0.004557
     -1.23367      2.13656      8.23903         0.001394     -0.000967     -0.003865
      1.23348      2.13645      8.23903         0.007144     -0.002170     -0.000828
     -2.46735      4.27313      8.23903         0.005310     -0.006547     -0.002340
     -0.00019      4.27302      8.23903         0.002028     -0.003236      0.005002
     -0.00019      1.42441      1.17700         0.007635     -0.003251      0.013464
      2.46696      1.42430      1.17700         0.049354     -0.003683      0.028310
     -1.23387      3.56098      1.17700         0.104159      0.028296      0.028825
      1.23329      3.56086      1.17700         0.105980     -0.036045      0.027733
     -0.00019      1.42441      5.88502         0.004765     -0.003238     -0.001325
      2.46696      1.42430      5.88502         0.005050     -0.003252     -0.001319
     -1.23387      3.56098      5.88502         0.005037     -0.003246     -0.001326
      1.23329      3.56086      5.88502         0.005017     -0.003219     -0.001311
      1.23367      0.71204      3.53101        -0.011427      0.006234      0.008446
      3.70083      0.71193      3.53101         0.004045      0.009202      0.010550
     -0.00000      2.84860      3.53101        -0.006261     -0.005684      0.009490
      2.46715      2.84849      3.53101        -0.003765      0.003247     -0.000443
      1.23367      0.71204      8.23903         0.003752     -0.002534      0.010293
      3.70083      0.71193      8.23903        -0.011237      0.000382      0.008342
     -0.00000      2.84860      8.23903        -0.006269      0.011900      0.009320
      2.46715      2.84849      8.23903        -0.003783      0.003250     -0.000391
 -----------------------------------------------------------------------------------
    total drift:                                0.000002      0.000001      0.000054


--------------------------------------------------------------------------------------------------------



  FREE ENERGIE OF THE ION-ELECTRON SYSTEM (eV)
  ---------------------------------------------------
  free  energy   TOTEN  =      -284.69155315 eV

  energy  without entropy=     -284.68117697  energy(sigma->0) =     -284.68636506
 


--------------------------------------------------------------------------------------------------------


    POTLOK:  cpu time    0.18: real time    0.18


--------------------------------------------------------------------------------------------------------


     LOOP+:  cpu time 1783.13: real time 1784.17
    4ORBIT:  cpu time    0.00: real time    0.00

 total amount of memory used by VASP on root node   375634. kBytes
========================================================================

   base      :      30000. kBytes
   nonl-proj :      72821. kBytes
   fftplans  :       6527. kBytes
   grid      :      13818. kBytes
   one-center:         98. kBytes
   wavefun   :     252370. kBytes
 
  
  
 General timing and accounting informations for this job:
 ========================================================
  
                  Total CPU time used (sec):     1814.257
                            User time (sec):     1493.791
                          System time (sec):      320.466
                         Elapsed time (sec):     1815.709
  
                   Maximum memory used (kb):      497020.
                   Average memory used (kb):           0.
  
                          Minor page faults:     37058476
                          Major page faults:            0
                 Voluntary context switches:          920
