  32  32   0   0
  0.9341735E+01  0.4932875E-09  0.4932875E-09  0.1419195E-08  0.5000000E-15
  1.000000000000000E-004
  CAR 
 graphite                                
     14.53051792    -17.38646801  301      4.20040023      1.00000000
    -17.386  0.0000E+00  0.0000E+00
    -17.280  0.0000E+00  0.0000E+00
    -17.174  0.0000E+00  0.0000E+00
    -17.067  0.0000E+00  0.0000E+00
    -16.961  0.0000E+00  0.0000E+00
    -16.855  0.0000E+00  0.0000E+00
    -16.748  0.0000E+00  0.0000E+00
    -16.642  0.0000E+00  0.0000E+00
    -16.535  0.0000E+00  0.0000E+00
    -16.429  0.0000E+00  0.0000E+00
    -16.323  0.0000E+00  0.0000E+00
    -16.216  0.0000E+00  0.0000E+00
    -16.110  0.0000E+00  0.0000E+00
    -16.003  0.0000E+00  0.0000E+00
    -15.897  0.0000E+00  0.0000E+00
    -15.791  0.0000E+00  0.0000E+00
    -15.684  0.0000E+00  0.0000E+00
    -15.578  0.0000E+00  0.0000E+00
    -15.471  0.0000E+00  0.0000E+00
    -15.365  0.1410E+00  0.1142E-02
    -15.259  0.2379E+01  0.1174E+00
    -15.152  0.4348E+01  0.4905E+00
    -15.046  0.5018E+01  0.1014E+01
    -14.939  0.4852E+01  0.1512E+01
    -14.833  0.5163E+01  0.2049E+01
    -14.727  0.5043E+01  0.2595E+01
    -14.620  0.4778E+01  0.3116E+01
    -14.514  0.4829E+01  0.3623E+01
    -14.408  0.5043E+01  0.4148E+01
    -14.301  0.5256E+01  0.4696E+01
    -14.195  0.6992E+01  0.5310E+01
    -14.088  0.8177E+01  0.6124E+01
    -13.982  0.6407E+01  0.6985E+01
    -13.876  0.2662E+01  0.7452E+01
    -13.769  0.1891E+01  0.7677E+01
    -13.663  0.2158E+01  0.7889E+01
    -13.556  0.2509E+01  0.8137E+01
    -13.450  0.2860E+01  0.8423E+01
    -13.344  0.5626E+01  0.8795E+01
    -13.237  0.1048E+02  0.9879E+01
    -13.131  0.7534E+01  0.1087E+02
    -13.024  0.3973E+01  0.1137E+02
    -12.918  0.4069E+01  0.1179E+02
    -12.812  0.4166E+01  0.1223E+02
    -12.705  0.4280E+01  0.1268E+02
    -12.599  0.4408E+01  0.1314E+02
    -12.493  0.4531E+01  0.1362E+02
    -12.386  0.4653E+01  0.1411E+02
    -12.280  0.5256E+01  0.1462E+02
    -12.173  0.6235E+01  0.1523E+02
    -12.067  0.6267E+01  0.1592E+02
    -11.961  0.5699E+01  0.1655E+02
    -11.854  0.5363E+01  0.1714E+02
    -11.748  0.5515E+01  0.1772E+02
    -11.641  0.5677E+01  0.1831E+02
    -11.535  0.5839E+01  0.1892E+02
    -11.429  0.6001E+01  0.1955E+02
    -11.322  0.5668E+01  0.2018E+02
    -11.216  0.5280E+01  0.2076E+02
    -11.109  0.5328E+01  0.2133E+02
    -11.003  0.4722E+01  0.2188E+02
    -10.897  0.4265E+01  0.2234E+02
    -10.790  0.4981E+01  0.2283E+02
    -10.684  0.5157E+01  0.2337E+02
    -10.578  0.5331E+01  0.2393E+02
    -10.471  0.6893E+01  0.2454E+02
    -10.365  0.1187E+02  0.2551E+02
    -10.258  0.9612E+01  0.2665E+02
    -10.152  0.7351E+01  0.2755E+02
    -10.046  0.5164E+01  0.2822E+02
     -9.939  0.4464E+01  0.2872E+02
     -9.833  0.4023E+01  0.2917E+02
     -9.726  0.3581E+01  0.2958E+02
     -9.620  0.7748E+01  0.3015E+02
     -9.514  0.2101E+01  0.3082E+02
     -9.407  0.1902E+01  0.3103E+02
     -9.301  0.1704E+01  0.3122E+02
     -9.194  0.1506E+01  0.3139E+02
     -9.088  0.1308E+01  0.3154E+02
     -8.982  0.1303E+01  0.3167E+02
     -8.875  0.1798E+01  0.3184E+02
     -8.769  0.2294E+01  0.3206E+02
     -8.662  0.2791E+01  0.3233E+02
     -8.556  0.5057E+01  0.3270E+02
     -8.450  0.9491E+01  0.3347E+02
     -8.343  0.5258E+01  0.3447E+02
     -8.237  0.5061E+01  0.3499E+02
     -8.131  0.6178E+01  0.3559E+02
     -8.024  0.7295E+01  0.3630E+02
     -7.918  0.8412E+01  0.3714E+02
     -7.811  0.9529E+01  0.3809E+02
     -7.705  0.7337E+01  0.3906E+02
     -7.599  0.5557E+01  0.3968E+02
     -7.492  0.5591E+01  0.4027E+02
     -7.386  0.5594E+01  0.4087E+02
     -7.279  0.5447E+01  0.4146E+02
     -7.173  0.5286E+01  0.4203E+02
     -7.067  0.5144E+01  0.4259E+02
     -6.960  0.5026E+01  0.4313E+02
     -6.854  0.4908E+01  0.4366E+02
     -6.747  0.4790E+01  0.4417E+02
     -6.641  0.4671E+01  0.4467E+02
     -6.535  0.4553E+01  0.4516E+02
     -6.428  0.4435E+01  0.4564E+02
     -6.322  0.4422E+01  0.4611E+02
     -6.216  0.5034E+01  0.4662E+02
     -6.109  0.5606E+01  0.4718E+02
     -6.003  0.6178E+01  0.4781E+02
     -5.896  0.6751E+01  0.4850E+02
     -5.790  0.7323E+01  0.4924E+02
     -5.684  0.7895E+01  0.5005E+02
     -5.577  0.8468E+01  0.5092E+02
     -5.471  0.9040E+01  0.5186E+02
     -5.364  0.3852E+01  0.5248E+02
     -5.258  0.6378E+01  0.5298E+02
     -5.152  0.6644E+01  0.5374E+02
     -5.045  0.5238E+01  0.5437E+02
     -4.939  0.3832E+01  0.5485E+02
     -4.832  0.2426E+01  0.5518E+02
     -4.726  0.1078E+01  0.5537E+02
     -4.620  0.2233E+01  0.5553E+02
     -4.513  0.3646E+01  0.5585E+02
     -4.407  0.5058E+01  0.5631E+02
     -4.301  0.7506E+01  0.5693E+02
     -4.194  0.1141E+02  0.5803E+02
     -4.088  0.1053E+02  0.5920E+02
     -3.981  0.1086E+02  0.6030E+02
     -3.875  0.1078E+02  0.6149E+02
     -3.769  0.5389E+01  0.6223E+02
     -3.662  0.5647E+01  0.6281E+02
     -3.556  0.6482E+01  0.6345E+02
     -3.449  0.1023E+02  0.6429E+02
     -3.343  0.1538E+02  0.6565E+02
     -3.237  0.2821E+02  0.6774E+02
     -3.130  0.6542E+01  0.6902E+02
     -3.024  0.6681E+01  0.6972E+02
     -2.917  0.7004E+01  0.7044E+02
     -2.811  0.7579E+01  0.7121E+02
     -2.705  0.9309E+01  0.7210E+02
     -2.598  0.1685E+02  0.7369E+02
     -2.492  0.1451E+02  0.7535E+02
     -2.385  0.1176E+02  0.7680E+02
     -2.279  0.1573E+02  0.7807E+02
     -2.173  0.1564E+02  0.8129E+02
     -2.066  0.2050E+02  0.8309E+02
     -1.960  0.1249E+02  0.8497E+02
     -1.854  0.1394E+02  0.8636E+02
     -1.747  0.1494E+02  0.8793E+02
     -1.641  0.9222E+01  0.8925E+02
     -1.534  0.6498E+01  0.9007E+02
     -1.428  0.8292E+01  0.9085E+02
     -1.322  0.8370E+01  0.9176E+02
     -1.215  0.9254E+01  0.9269E+02
     -1.109  0.9839E+01  0.9372E+02
     -1.002  0.9538E+01  0.9475E+02
     -0.896  0.1099E+02  0.9583E+02
     -0.790  0.1195E+02  0.9763E+02
     -0.683  0.1120E+02  0.9888E+02
     -0.577  0.1156E+02  0.1001E+03
     -0.470  0.1179E+02  0.1013E+03
     -0.364  0.1038E+02  0.1025E+03
     -0.258  0.1007E+02  0.1036E+03
     -0.151  0.9816E+01  0.1047E+03
     -0.045  0.9588E+01  0.1057E+03
      0.061  0.9504E+01  0.1067E+03
      0.168  0.9538E+01  0.1077E+03
      0.274  0.9151E+01  0.1087E+03
      0.381  0.8995E+01  0.1097E+03
      0.487  0.9024E+01  0.1106E+03
      0.593  0.9796E+01  0.1116E+03
      0.700  0.9854E+01  0.1127E+03
      0.806  0.1019E+02  0.1137E+03
      0.913  0.1064E+02  0.1149E+03
      1.019  0.9598E+01  0.1160E+03
      1.125  0.8152E+01  0.1169E+03
      1.232  0.6644E+01  0.1177E+03
      1.338  0.5575E+01  0.1183E+03
      1.445  0.4966E+01  0.1189E+03
      1.551  0.3955E+01  0.1194E+03
      1.657  0.2937E+01  0.1197E+03
      1.764  0.3539E+01  0.1201E+03
      1.870  0.5342E+01  0.1205E+03
      1.977  0.7913E+01  0.1213E+03
      2.083  0.1428E+02  0.1224E+03
      2.189  0.7492E+01  0.1233E+03
      2.296  0.6407E+01  0.1240E+03
      2.402  0.5687E+01  0.1247E+03
      2.508  0.4656E+01  0.1252E+03
      2.615  0.3750E+01  0.1257E+03
      2.721  0.3281E+01  0.1260E+03
      2.828  0.2938E+01  0.1264E+03
      2.934  0.2582E+01  0.1267E+03
      3.040  0.2245E+01  0.1269E+03
      3.147  0.1920E+01  0.1271E+03
      3.253  0.1557E+01  0.1273E+03
      3.360  0.1356E+01  0.1275E+03
      3.466  0.1155E+01  0.1276E+03
      3.572  0.9545E+00  0.1277E+03
      3.679  0.7534E+00  0.1278E+03
      3.785  0.5565E+00  0.1279E+03
      3.892  0.3899E+00  0.1279E+03
      3.998  0.2417E+00  0.1280E+03
      4.104  0.1079E+00  0.1280E+03
      4.211  0.3590E-02  0.1280E+03
      4.317  0.1114E+00  0.1280E+03
      4.423  0.2337E+00  0.1280E+03
      4.530  0.3727E+00  0.1281E+03
      4.636  0.5325E+00  0.1281E+03
      4.743  0.7313E+00  0.1282E+03
      4.849  0.9474E+00  0.1283E+03
      4.955  0.1164E+01  0.1284E+03
      5.062  0.1380E+01  0.1285E+03
      5.168  0.1597E+01  0.1287E+03
      5.275  0.1814E+01  0.1288E+03
      5.381  0.2977E+01  0.1291E+03
      5.487  0.3856E+01  0.1295E+03
      5.594  0.4003E+01  0.1299E+03
      5.700  0.5452E+01  0.1304E+03
      5.807  0.8097E+01  0.1311E+03
      5.913  0.1270E+02  0.1322E+03
      6.019  0.9126E+01  0.1333E+03
      6.126  0.7173E+01  0.1342E+03
      6.232  0.6367E+01  0.1349E+03
      6.338  0.5975E+01  0.1356E+03
      6.445  0.5456E+01  0.1362E+03
      6.551  0.4668E+01  0.1367E+03
      6.658  0.4508E+01  0.1372E+03
      6.764  0.4028E+01  0.1376E+03
      6.870  0.3792E+01  0.1381E+03
      6.977  0.3996E+01  0.1385E+03
      7.083  0.4472E+01  0.1389E+03
      7.190  0.4789E+01  0.1394E+03
      7.296  0.4744E+01  0.1399E+03
      7.402  0.4651E+01  0.1404E+03
      7.509  0.4479E+01  0.1409E+03
      7.615  0.4307E+01  0.1414E+03
      7.722  0.4176E+01  0.1418E+03
      7.828  0.4091E+01  0.1423E+03
      7.934  0.4038E+01  0.1427E+03
      8.041  0.4003E+01  0.1431E+03
      8.147  0.4020E+01  0.1435E+03
      8.254  0.4303E+01  0.1440E+03
      8.360  0.4572E+01  0.1445E+03
      8.466  0.4274E+01  0.1449E+03
      8.573  0.4129E+01  0.1454E+03
      8.679  0.4056E+01  0.1458E+03
      8.785  0.3983E+01  0.1462E+03
      8.892  0.3867E+01  0.1467E+03
      8.998  0.3913E+01  0.1471E+03
      9.105  0.3968E+01  0.1475E+03
      9.211  0.4018E+01  0.1479E+03
      9.317  0.4069E+01  0.1484E+03
      9.424  0.4102E+01  0.1488E+03
      9.530  0.4151E+01  0.1492E+03
      9.637  0.4585E+01  0.1497E+03
      9.743  0.4756E+01  0.1502E+03
      9.849  0.4759E+01  0.1507E+03
      9.956  0.6497E+01  0.1513E+03
     10.062  0.5313E+01  0.1519E+03
     10.169  0.6101E+01  0.1525E+03
     10.275  0.5732E+01  0.1532E+03
     10.381  0.6023E+01  0.1537E+03
     10.488  0.5111E+01  0.1544E+03
     10.594  0.3392E+01  0.1548E+03
     10.700  0.4121E+01  0.1552E+03
     10.807  0.3209E+01  0.1557E+03
     10.913  0.2951E+01  0.1560E+03
     11.020  0.3052E+01  0.1563E+03
     11.126  0.3227E+01  0.1566E+03
     11.232  0.3341E+01  0.1570E+03
     11.339  0.4020E+01  0.1574E+03
     11.445  0.4637E+01  0.1578E+03
     11.552  0.8645E+01  0.1585E+03
     11.658  0.8604E+01  0.1594E+03
     11.764  0.9815E+01  0.1603E+03
     11.871  0.1181E+02  0.1615E+03
     11.977  0.1280E+02  0.1628E+03
     12.084  0.1271E+02  0.1641E+03
     12.190  0.1305E+02  0.1655E+03
     12.296  0.1150E+02  0.1669E+03
     12.403  0.5216E+01  0.1678E+03
     12.509  0.4904E-01  0.1680E+03
     12.615  0.0000E+00  0.1680E+03
     12.722  0.0000E+00  0.1680E+03
     12.828  0.0000E+00  0.1680E+03
     12.935  0.0000E+00  0.1680E+03
     13.041  0.0000E+00  0.1680E+03
     13.147  0.0000E+00  0.1680E+03
     13.254  0.0000E+00  0.1680E+03
     13.360  0.0000E+00  0.1680E+03
     13.467  0.0000E+00  0.1680E+03
     13.573  0.0000E+00  0.1680E+03
     13.679  0.0000E+00  0.1680E+03
     13.786  0.0000E+00  0.1680E+03
     13.892  0.0000E+00  0.1680E+03
     13.999  0.0000E+00  0.1680E+03
     14.105  0.0000E+00  0.1680E+03
     14.211  0.0000E+00  0.1680E+03
     14.318  0.0000E+00  0.1680E+03
     14.424  0.0000E+00  0.1680E+03
     14.531  0.0000E+00  0.1680E+03
