   32   32    1    1
  0.9341735E+01  0.4932875E-09  0.4932875E-09  0.1419195E-08  0.5000000E-15
  1.000000000000000E-004
  CAR 
 graphite                                
    128     76     84
 
  0.0000000E+00  0.0000000E+00  0.0000000E+00  0.6944444E-02
    1      -15.386468
    2      -15.293755
    3      -15.291370
    4      -15.194379
    5      -10.093845
    6      -10.082713
    7      -10.079669
    8      -10.058252
    9      -10.056441
   10      -10.047748
   11      -10.042482
   12      -10.042394
   13      -10.042345
   14      -10.024675
   15      -10.011541
   16      -10.009187
   17       -9.029123
   18       -9.027084
   19       -9.026463
   20       -9.008353
   21       -9.005357
   22       -9.004316
   23       -9.004302
   24       -9.003131
   25       -9.001312
   26       -8.975375
   27       -8.973403
   28       -8.972565
   29       -4.085996
   30       -3.417332
   31       -3.414940
   32       -2.621790
   33       -2.202671
   34       -2.199599
   35       -2.188901
   36       -2.186035
   37       -2.183807
   38       -2.183118
   39       -2.183114
   40       -2.170356
   41       -2.169440
   42       -2.169395
   43       -2.167057
   44       -2.153364
   45        1.183923
   46        1.194668
   47        1.195365
   48        1.199273
   49        1.200383
   50        1.201871
   51        1.202570
   52        1.210459
   53        1.560473
   54        1.565328
   55        1.567883
   56        1.839216
   57        1.839441
   58        1.846827
   59        1.851457
   60        1.852258
   61        1.852293
   62        2.053871
   63        2.071065
   64        2.072946
   65        5.706729
   66        5.708868
   67        5.715417
   68        5.859899
   69        5.863959
   70        5.865249
   71        5.865460
   72        5.867668
   73        5.869994
   74        6.245724
   75        6.249628
   76        6.252410
   77        8.091605
   78       10.316718
   79       10.319401
   80       11.457991
   81       11.461765
   82       11.493102
   83       11.587651
   84       11.589358
 
  0.1666667E+00  0.0000000E+00  0.0000000E+00  0.1388889E-01
    1      -15.221156
    2      -15.129472
    3      -15.127093
    4      -15.031200
    5      -11.377343
    6      -11.308833
    7      -11.306431
    8      -11.235569
    9      -10.509872
   10      -10.502214
   11      -10.450445
   12      -10.447829
   13      -10.441966
   14      -10.440069
   15      -10.386895
   16      -10.378747
   17       -8.392465
   18       -8.388405
   19       -8.345996
   20       -8.341471
   21       -8.340510
   22       -8.338374
   23       -8.292606
   24       -8.288380
   25       -7.547666
   26       -7.498557
   27       -7.497771
   28       -7.447108
   29       -3.885933
   30       -3.221519
   31       -3.219110
   32       -2.690132
   33       -2.676130
   34       -2.671086
   35       -2.668779
   36       -2.655876
   37       -2.655629
   38       -2.649524
   39       -2.635390
   40       -2.431676
   41       -2.039234
   42       -2.025508
   43       -2.020801
   44       -2.007157
   45        0.520008
   46        0.539880
   47        0.549001
   48        0.551111
   49        0.561152
   50        0.845948
   51        0.854988
   52        0.860494
   53        0.866027
   54        1.001119
   55        1.004568
   56        1.356413
   57        1.363304
   58        1.522996
   59        1.732167
   60        1.732680
   61        1.741646
   62        1.743229
   63        2.089670
   64        2.103829
   65        5.927296
   66        5.932446
   67        6.139900
   68        6.144696
   69        6.146385
   70        6.147828
   71        6.523115
   72        6.526606
   73        6.662366
   74        6.966098
   75        6.968329
   76        7.397921
   77        8.296187
   78       10.503951
   79       10.506616
   80       11.547451
   81       11.668146
   82       11.671591
   83       11.788903
   84       12.197751
 
  0.3333333E+00  0.0000000E+00  0.0000000E+00  0.1388889E-01
    1      -14.727278
    2      -14.638486
    3      -14.636123
    4      -14.543400
    5      -12.783627
    6      -12.706133
    7      -12.703835
    8      -12.623403
    9      -10.929739
   10      -10.926011
   11      -10.864426
   12      -10.861300
   13      -10.859634
   14      -10.857922
   15      -10.793959
   16      -10.790148
   17       -7.220493
   18       -7.213127
   19       -7.178003
   20       -7.173500
   21       -7.169523
   22       -7.166996
   23       -7.129738
   24       -7.122585
   25       -5.436195
   26       -5.396146
   27       -5.395562
   28       -5.354714
   29       -3.843717
   30       -3.831773
   31       -3.818005
   32       -3.815978
   33       -3.804959
   34       -3.804857
   35       -3.789381
   36       -3.777319
   37       -3.289884
   38       -2.639349
   39       -2.636883
   40       -1.868374
   41       -1.565798
   42       -1.552720
   43       -1.547763
   44       -1.534907
   45       -1.109054
   46       -1.090202
   47       -1.089471
   48       -1.070590
   49       -1.000350
   50       -0.422064
   51       -0.419280
   52        0.050764
   53        0.060976
   54        0.066646
   55        0.075664
   56        0.247715
   57        1.074175
   58        1.078471
   59        1.544212
   60        1.545589
   61        1.550153
   62        1.551373
   63        2.055151
   64        2.062433
   65        6.472295
   66        6.474627
   67        6.713506
   68        6.718805
   69        6.720520
   70        6.721024
   71        7.018967
   72        7.021592
   73        8.822768
   74        8.910827
   75        9.104292
   76        9.106692
   77        9.470092
   78       11.056611
   79       11.059338
   80       11.306637
   81       11.829127
   82       11.889451
   83       11.893118
   84       12.096744
 
  0.5000000E+00  0.0000000E+00  0.0000000E+00  0.6944444E-02
    1      -13.912012
    2      -13.909308
    3      -13.829239
    4      -13.824302
    5      -13.824261
    6      -13.823855
    7      -13.738059
    8      -13.735397
    9      -11.077539
   10      -11.075843
   11      -11.011336
   12      -11.008023
   13      -11.007222
   14      -11.007208
   15      -10.938915
   16      -10.937278
   17       -6.321438
   18       -6.318806
   19       -6.300319
   20       -6.296568
   21       -6.293931
   22       -6.293930
   23       -6.273644
   24       -6.272141
   25       -4.736555
   26       -4.735578
   27       -4.721195
   28       -4.719926
   29       -4.719922
   30       -4.718562
   31       -4.701847
   32       -4.700161
   33       -3.221527
   34       -3.218979
   35       -3.193416
   36       -3.190500
   37       -3.190497
   38       -3.187591
   39       -3.161835
   40       -3.158390
   41       -2.315392
   42       -2.313232
   43       -1.691803
   44       -1.687808
   45       -1.687095
   46       -1.686253
   47       -0.955729
   48       -0.953315
   49       -0.836887
   50       -0.828134
   51       -0.821874
   52       -0.814994
   53       -0.814040
   54       -0.814020
   55       -0.803587
   56       -0.800822
   57        0.961935
   58        0.963821
   59        1.460432
   60        1.463131
   61        1.463629
   62        1.465062
   63        2.020844
   64        2.023040
   65        6.806872
   66        6.809533
   67        7.016769
   68        7.021863
   69        7.023718
   70        7.023725
   71        7.235355
   72        7.237796
   73        9.930246
   74        9.931067
   75       11.232308
   76       11.235119
   77       11.337870
   78       11.343799
   79       11.346057
   80       11.353795
   81       11.672837
   82       11.675986
   83       11.967015
   84       11.972574
 
  0.0000000E+00  0.1666667E+00  0.0000000E+00  0.1388889E-01
    1      -15.221159
    2      -15.129479
    3      -15.127093
    4      -15.031204
    5      -11.377351
    6      -11.308845
    7      -11.306430
    8      -11.235573
    9      -10.509948
   10      -10.502319
   11      -10.450663
   12      -10.447830
   13      -10.442023
   14      -10.440073
   15      -10.386910
   16      -10.378843
   17       -8.392738
   18       -8.387266
   19       -8.346516
   20       -8.341470
   21       -8.338380
   22       -8.337993
   23       -8.292758
   24       -8.287116
   25       -7.548491
   26       -7.500206
   27       -7.497780
   28       -7.447941
   29       -3.885923
   30       -3.221497
   31       -3.219108
   32       -2.691471
   33       -2.676084
   34       -2.673240
   35       -2.668782
   36       -2.655966
   37       -2.655631
   38       -2.650630
   39       -2.635544
   40       -2.431662
   41       -2.037617
   42       -2.023154
   43       -2.020798
   44       -2.006193
   45        0.520155
   46        0.538611
   47        0.547005
   48        0.548997
   49        0.557458
   50        0.851374
   51        0.858195
   52        0.860499
   53        0.867233
   54        1.002496
   55        1.004599
   56        1.356287
   57        1.362344
   58        1.523814
   59        1.731962
   60        1.732682
   61        1.739614
   62        1.743193
   63        2.089626
   64        2.102708
   65        5.929053
   66        5.932558
   67        6.140883
   68        6.145763
   69        6.147101
   70        6.149021
   71        6.523336
   72        6.528458
   73        6.660855
   74        6.964214
   75        6.967310
   76        7.396464
   77        8.296195
   78       10.503980
   79       10.506643
   80       11.547945
   81       11.669111
   82       11.671599
   83       11.789379
   84       12.194882
 
  0.1666667E+00  0.1666667E+00  0.0000000E+00  0.1388889E-01
    1      -14.891360
    2      -14.801614
    3      -14.799247
    4      -14.705499
    5      -11.997424
    6      -11.994555
    7      -11.926023
    8      -11.920876
    9      -11.920839
   10      -11.920357
   11      -11.846969
   12      -11.844173
   13       -9.669378
   14       -9.635211
   15       -9.633954
   16       -9.603665
   17       -8.624627
   18       -8.606819
   19       -8.601907
   20       -8.577719
   21       -6.441549
   22       -6.438294
   23       -6.399638
   24       -6.394680
   25       -6.394661
   26       -6.393132
   27       -6.352103
   28       -6.348784
   29       -4.017612
   30       -3.989676
   31       -3.989155
   32       -3.960585
   33       -3.487493
   34       -2.832145
   35       -2.829701
   36       -2.364053
   37       -2.360669
   38       -2.347089
   39       -2.341860
   40       -2.341193
   41       -2.341188
   42       -2.324367
   43       -2.322077
   44       -2.054638
   45       -0.497712
   46       -0.488521
   47       -0.487165
   48       -0.477625
   49       -0.110224
   50       -0.107884
   51        0.171860
   52        0.180107
   53        0.185046
   54        0.189944
   55        0.426206
   56        0.430105
   57        0.430697
   58        0.431361
   59        1.036936
   60        1.039246
   61        2.160067
   62        2.436943
   63        2.437259
   64        2.643768
   65        5.603960
   66        5.646559
   67        5.652502
   68        5.863537
   69        7.622641
   70        7.624889
   71        7.915076
   72        7.918168
   73        7.919283
   74        7.921194
   75        8.286268
   76        8.288697
   77        8.707373
   78       10.879675
   79       10.882338
   80       12.237760
   81       12.240504
   82       12.428797
   83       12.431475
   84       12.479141
 
  0.3333333E+00  0.1666667E+00  0.0000000E+00  0.1388889E-01
    1      -14.235867
    2      -14.149959
    3      -14.147615
    4      -14.058088
    5      -13.265163
    6      -13.184951
    7      -13.182615
    8      -13.099239
    9      -12.311942
   10      -12.237481
   11      -12.235022
   12      -12.157702
   13       -9.643975
   14       -9.589535
   15       -9.587525
   16       -9.532184
   17       -7.756591
   18       -7.721753
   19       -7.717169
   20       -7.681227
   21       -5.451850
   22       -5.423829
   23       -5.423420
   24       -5.393632
   25       -5.287869
   26       -5.258194
   27       -5.254434
   28       -5.224620
   29       -4.302972
   30       -4.270291
   31       -4.269717
   32       -4.236377
   33       -3.261647
   34       -3.240957
   35       -3.240109
   36       -3.218447
   37       -2.700497
   38       -2.220236
   39       -2.200775
   40       -2.199615
   41       -2.179101
   42       -2.064021
   43       -2.061612
   44       -1.726708
   45       -1.711530
   46       -1.706769
   47       -1.691442
   48       -1.552628
   49       -1.314206
   50       -0.951308
   51       -0.948723
   52       -0.831019
   53       -0.819701
   54       -0.813807
   55       -0.803568
   56       -0.440777
   57       -0.249002
   58        0.121595
   59        0.123446
   60        0.768879
   61        2.471892
   62        2.846388
   63        2.846814
   64        3.208935
   65        5.336734
   66        5.500659
   67        5.505938
   68        5.726292
   69        8.416524
   70        8.630923
   71        8.634961
   72        8.862480
   73        9.528651
   74        9.908070
   75       10.125006
   76       10.127778
   77       10.399251
   78       10.747457
   79       11.598887
   80       11.603329
   81       11.963816
   82       12.144512
   83       12.303308
   84       12.306854
 
  0.5000000E+00  0.1666667E+00  0.0000000E+00  0.1388889E-01
    1      -14.237023
    2      -14.151129
    3      -14.148746
    4      -14.059235
    5      -13.263533
    6      -13.183296
    7      -13.181016
    8      -13.097619
    9      -12.313136
   10      -12.238692
   11      -12.236198
   12      -12.158897
   13       -9.640722
   14       -9.586201
   15       -9.583922
   16       -9.528469
   17       -7.753770
   18       -7.718193
   19       -7.714977
   20       -7.678311
   21       -5.458577
   22       -5.431335
   23       -5.429664
   24       -5.400661
   25       -5.295694
   26       -5.266267
   27       -5.261415
   28       -5.231877
   29       -4.307443
   30       -4.274488
   31       -4.274376
   32       -4.240796
   33       -3.252214
   34       -3.231171
   35       -3.230639
   36       -3.208624
   37       -2.701915
   38       -2.216103
   39       -2.196494
   40       -2.195880
   41       -2.175301
   42       -2.065360
   43       -2.063066
   44       -1.722409
   45       -1.707372
   46       -1.702021
   47       -1.687007
   48       -1.550717
   49       -1.315644
   50       -0.949481
   51       -0.946745
   52       -0.834761
   53       -0.823856
   54       -0.819378
   55       -0.808597
   56       -0.442321
   57       -0.247110
   58        0.119967
   59        0.121627
   60        0.766873
   61        2.474483
   62        2.850840
   63        2.852146
   64        3.217737
   65        5.331719
   66        5.499202
   67        5.502856
   68        5.724587
   69        8.413962
   70        8.628392
   71        8.633113
   72        8.861524
   73        9.526887
   74        9.907284
   75       10.123106
   76       10.125575
   77       10.396136
   78       10.749917
   79       11.597436
   80       11.601831
   81       11.962488
   82       12.143383
   83       12.303025
   84       12.306750
 
 -0.3333333E+00  0.1666667E+00  0.0000000E+00  0.1388889E-01
    1      -14.892050
    2      -14.802311
    3      -14.799921
    4      -14.706180
    5      -11.999563
    6      -11.993799
    7      -11.926917
    8      -11.924423
    9      -11.921061
   10      -11.918767
   11      -11.849306
   12      -11.843513
   13       -9.657172
   14       -9.622717
   15       -9.620427
   16       -9.589857
   17       -8.628129
   18       -8.608946
   19       -8.606396
   20       -8.580659
   21       -6.448560
   22       -6.443140
   23       -6.406248
   24       -6.402129
   25       -6.399240
   26       -6.398599
   27       -6.359129
   28       -6.353992
   29       -4.028791
   30       -4.001774
   31       -3.999419
   32       -3.971806
   33       -3.488359
   34       -2.832988
   35       -2.830602
   36       -2.360113
   37       -2.347301
   38       -2.343110
   39       -2.338254
   40       -2.328183
   41       -2.328099
   42       -2.321088
   43       -2.308677
   44       -2.055523
   45       -0.497707
   46       -0.489350
   47       -0.486823
   48       -0.478606
   49       -0.113376
   50       -0.107047
   51        0.174854
   52        0.180169
   53        0.182673
   54        0.188549
   55        0.424019
   56        0.425348
   57        0.429999
   58        0.433058
   59        1.032285
   60        1.039819
   61        2.165942
   62        2.446989
   63        2.449102
   64        2.661405
   65        5.594712
   66        5.644090
   67        5.646913
   68        5.862242
   69        7.620125
   70        7.622829
   71        7.911114
   72        7.915505
   73        7.916378
   74        7.917847
   75        8.283557
   76        8.284789
   77        8.706278
   78       10.878410
   79       10.881063
   80       12.240554
   81       12.247402
   82       12.428505
   83       12.459174
   84       12.478550
 
 -0.1666667E+00  0.1666667E+00  0.0000000E+00  0.1388889E-01
    1      -15.221388
    2      -15.129711
    3      -15.127317
    4      -15.031430
    5      -11.383636
    6      -11.315194
    7      -11.312757
    8      -11.241967
    9      -10.501100
   10      -10.499087
   11      -10.442250
   12      -10.438339
   13      -10.437789
   14      -10.437779
   15      -10.377644
   16      -10.375726
   17       -8.391708
   18       -8.390027
   19       -8.344467
   20       -8.341305
   21       -8.341271
   22       -8.341015
   23       -8.291783
   24       -8.290045
   25       -7.553806
   26       -7.506297
   27       -7.502398
   28       -7.453233
   29       -3.886214
   30       -3.221782
   31       -3.219411
   32       -2.691251
   33       -2.688533
   34       -2.673383
   35       -2.669167
   36       -2.667794
   37       -2.667790
   38       -2.650116
   39       -2.648306
   40       -2.431959
   41       -2.023332
   42       -2.007693
   43       -2.007564
   44       -1.991747
   45        0.512704
   46        0.532185
   47        0.540757
   48        0.546188
   49        0.553531
   50        0.855372
   51        0.863108
   52        0.864689
   53        0.873349
   54        0.994662
   55        0.995634
   56        1.363245
   57        1.365495
   58        1.513385
   59        1.739221
   60        1.743627
   61        1.744666
   62        1.744726
   63        2.102987
   64        2.105077
   65        5.926648
   66        5.928917
   67        6.141230
   68        6.143639
   69        6.144336
   70        6.147634
   71        6.523496
   72        6.526286
   73        6.661391
   74        6.960933
   75        6.966417
   76        7.393622
   77        8.295821
   78       10.503538
   79       10.506198
   80       11.579664
   81       11.701405
   82       11.702952
   83       11.820876
   84       12.192447
 
  0.0000000E+00  0.3333333E+00  0.0000000E+00  0.1388889E-01
    1      -14.727291
    2      -14.638512
    3      -14.636123
    4      -14.543413
    5      -12.783678
    6      -12.706235
    7      -12.703835
    8      -12.623454
    9      -10.930015
   10      -10.925781
   11      -10.865111
   12      -10.861301
   13      -10.858884
   14      -10.857920
   15      -10.794138
   16      -10.789870
   17       -7.220615
   18       -7.212032
   19       -7.178256
   20       -7.173498
   21       -7.167025
   22       -7.166880
   23       -7.129673
   24       -7.121283
   25       -5.437122
   26       -5.398027
   27       -5.395571
   28       -5.355676
   29       -3.845086
   30       -3.832025
   31       -3.820340
   32       -3.815983
   33       -3.805429
   34       -3.804897
   35       -3.790454
   36       -3.777604
   37       -3.289839
   38       -2.639253
   39       -2.636876
   40       -1.868311
   41       -1.563952
   42       -1.550180
   43       -1.547760
   44       -1.533890
   45       -1.110615
   46       -1.092924
   47       -1.090205
   48       -1.072508
   49       -1.000117
   50       -0.421483
   51       -0.419250
   52        0.054083
   53        0.064254
   54        0.066650
   55        0.076897
   56        0.248082
   57        1.073687
   58        1.078044
   59        1.542989
   60        1.545613
   61        1.549485
   62        1.551236
   63        2.054777
   64        2.061681
   65        6.472888
   66        6.476102
   67        6.714158
   68        6.720274
   69        6.720672
   70        6.722800
   71        7.019150
   72        7.023408
   73        8.821698
   74        8.910842
   75        9.102938
   76        9.106133
   77        9.469140
   78       11.056724
   79       11.059446
   80       11.306707
   81       11.829822
   82       11.890799
   83       11.893123
   84       12.097336
 
  0.1666667E+00  0.3333333E+00  0.0000000E+00  0.1388889E-01
    1      -14.235875
    2      -14.149973
    3      -14.147615
    4      -14.058094
    5      -13.265220
    6      -13.185063
    7      -13.182615
    8      -13.099294
    9      -12.311886
   10      -12.237370
   11      -12.235022
   12      -12.157647
   13       -9.644021
   14       -9.589629
   15       -9.587527
   16       -9.532235
   17       -7.756167
   18       -7.721001
   19       -7.717165
   20       -7.680875
   21       -5.452206
   22       -5.424574
   23       -5.423427
   24       -5.394026
   25       -5.286478
   26       -5.255543
   27       -5.254426
   28       -5.223343
   29       -4.304231
   30       -4.272811
   31       -4.269726
   32       -4.237646
   33       -3.263331
   34       -3.244079
   35       -3.240117
   36       -3.219920
   37       -2.700458
   38       -2.221015
   39       -2.201563
   40       -2.200739
   41       -2.180290
   42       -2.063938
   43       -2.061613
   44       -1.724710
   45       -1.708350
   46       -1.706764
   47       -1.690073
   48       -1.552423
   49       -1.314154
   50       -0.950877
   51       -0.948697
   52       -0.828986
   53       -0.818038
   54       -0.813805
   55       -0.802962
   56       -0.441083
   57       -0.248726
   58        0.120938
   59        0.123403
   60        0.768465
   61        2.471453
   62        2.845616
   63        2.846690
   64        3.208516
   65        5.337297
   66        5.501966
   67        5.505947
   68        5.727003
   69        8.417748
   70        8.633077
   71        8.635018
   72        8.863479
   73        9.528649
   74        9.907009
   75       10.123443
   76       10.127496
   77       10.398355
   78       10.747493
   79       11.599038
   80       11.603480
   81       11.963787
   82       12.144195
   83       12.302785
   84       12.306602
 
  0.3333333E+00  0.3333333E+00  0.0000000E+00  0.1388889E-01
    1      -13.429181
    2      -13.426565
    3      -13.424107
    4      -13.349697
    5      -13.345147
    6      -13.343964
    7      -13.343939
    8      -13.341455
    9      -13.341158
   10      -13.261013
   11      -13.258575
   12      -13.256049
   13       -8.426091
   14       -8.374244
   15       -8.372948
   16       -8.367131
   17       -8.364020
   18       -8.360308
   19       -8.356792
   20       -8.307598
   21       -6.323182
   22       -6.321279
   23       -6.320808
   24       -6.318869
   25       -3.552272
   26       -3.550167
   27       -3.546124
   28       -3.536768
   29       -3.534782
   30       -3.534308
   31       -3.529004
   32       -3.528995
   33       -3.528678
   34       -3.518513
   35       -3.515489
   36       -3.512164
   37       -2.196707
   38       -2.190861
   39       -2.189492
   40       -2.184306
   41       -2.179829
   42       -2.179811
   43       -2.179668
   44       -2.176215
   45       -2.174889
   46       -2.169146
   47       -2.165236
   48       -2.162788
   49       -1.740717
   50       -1.738617
   51       -1.735863
   52       -1.133683
   53       -1.129806
   54       -1.128879
   55       -1.128639
   56       -1.126328
   57       -1.124800
   58       -0.419977
   59       -0.417639
   60       -0.414840
   61        3.748297
   62        4.190706
   63        4.196471
   64        4.199169
   65        4.199571
   66        4.212364
   67        4.215349
   68        4.707184
   69       10.411015
   70       10.414457
   71       10.416673
   72       10.539114
   73       10.551383
   74       10.554176
   75       10.576169
   76       10.576921
   77       10.578087
   78       10.579860
   79       10.579976
   80       10.591002
   81       10.744707
   82       10.748314
   83       10.751499
   84       12.518273
 
  0.5000000E+00  0.3333333E+00  0.0000000E+00  0.1388889E-01
    1      -14.237716
    2      -14.151852
    3      -14.149426
    4      -14.059926
    5      -13.267066
    6      -13.186896
    7      -13.184425
    8      -13.101121
    9      -12.308156
   10      -12.233610
   11      -12.231333
   12      -12.153928
   13       -9.633420
   14       -9.579002
   15       -9.576560
   16       -9.521257
   17       -7.762273
   18       -7.726332
   19       -7.724531
   20       -7.687542
   21       -5.456820
   22       -5.430316
   23       -5.427266
   24       -5.399182
   25       -5.294418
   26       -5.263097
   27       -5.262956
   28       -5.231489
   29       -4.313923
   30       -4.283097
   31       -4.278293
   32       -4.246908
   33       -3.257708
   34       -3.238912
   35       -3.233636
   36       -3.214076
   37       -2.702761
   38       -2.224932
   39       -2.206715
   40       -2.202534
   41       -2.183376
   42       -2.066211
   43       -2.064059
   44       -1.712250
   45       -1.695171
   46       -1.694595
   47       -1.677285
   48       -1.554811
   49       -1.316535
   50       -0.953249
   51       -0.951326
   52       -0.824798
   53       -0.812164
   54       -0.811792
   55       -0.798999
   56       -0.436864
   57       -0.251443
   58        0.124939
   59        0.127820
   60        0.772667
   61        2.480031
   62        2.854989
   63        2.858040
   64        3.221311
   65        5.333601
   66        5.496091
   67        5.497308
   68        5.714755
   69        8.417077
   70        8.629925
   71        8.630877
   72        8.856682
   73        9.525958
   74        9.902201
   75       10.118264
   76       10.123200
   77       10.395487
   78       10.745256
   79       11.595227
   80       11.599720
   81       11.969173
   82       12.139944
   83       12.302478
   84       12.307245
 
 -0.3333333E+00  0.3333333E+00  0.0000000E+00  0.1388889E-01
    1      -14.728205
    2      -14.639440
    3      -14.637019
    4      -14.544324
    5      -12.787398
    6      -12.709997
    7      -12.707515
    8      -12.627429
    9      -10.922446
   10      -10.920709
   11      -10.857390
   12      -10.853978
   13      -10.853334
   14      -10.853324
   15      -10.786561
   16      -10.784871
   17       -7.220490
   18       -7.218754
   19       -7.177388
   20       -7.174281
   21       -7.174268
   22       -7.173804
   23       -7.130171
   24       -7.128331
   25       -5.445028
   26       -5.406636
   27       -5.402452
   28       -5.363214
   29       -3.842310
   30       -3.840126
   31       -3.818037
   32       -3.814448
   33       -3.812522
   34       -3.812518
   35       -3.787592
   36       -3.786019
   37       -3.291006
   38       -2.640394
   39       -2.638096
   40       -1.869521
   41       -1.550967
   42       -1.535947
   43       -1.535817
   44       -1.520699
   45       -1.118859
   46       -1.101859
   47       -1.096077
   48       -1.079455
   49       -1.004841
   50       -0.426204
   51       -0.424478
   52        0.061708
   53        0.072827
   54        0.074003
   55        0.085428
   56        0.242648
   57        1.081226
   58        1.083272
   59        1.550287
   60        1.554531
   61        1.555594
   62        1.555777
   63        2.064338
   64        2.066532
   65        6.471533
   66        6.473911
   67        6.713080
   68        6.715582
   69        6.715959
   70        6.718636
   71        7.013692
   72        7.016232
   73        8.817505
   74        8.909478
   75        9.097669
   76        9.102317
   77        9.465814
   78       11.055127
   79       11.057853
   80       11.304425
   81       11.858916
   82       11.919540
   83       11.920665
   84       12.124483
 
 -0.1666667E+00  0.3333333E+00  0.0000000E+00  0.1388889E-01
    1      -14.892061
    2      -14.802331
    3      -14.799921
    4      -14.706190
    5      -11.999941
    6      -11.993559
    7      -11.927994
    8      -11.924425
    9      -11.919977
   10      -11.918763
   11      -11.849534
   12      -11.843157
   13       -9.657921
   14       -9.624083
   15       -9.620436
   16       -9.590477
   17       -8.626752
   18       -8.606388
   19       -8.605936
   20       -8.579079
   21       -6.449149
   22       -6.443550
   23       -6.407458
   24       -6.402128
   25       -6.399425
   26       -6.398605
   27       -6.359370
   28       -6.354242
   29       -4.029949
   30       -4.003790
   31       -3.999423
   32       -3.972712
   33       -3.488327
   34       -2.832922
   35       -2.830597
   36       -2.358909
   37       -2.347698
   38       -2.341085
   39       -2.338251
   40       -2.328212
   41       -2.328119
   42       -2.319953
   43       -2.308548
   44       -2.055480
   45       -0.501926
   46       -0.492556
   47       -0.486829
   48       -0.479786
   49       -0.113610