  32  32   0   0
  0.9749312E+01  0.4934311E-09  0.4934311E-09  0.1479663E-08  0.5000000E-15
  1.000000000000000E-004
  CAR 
 graphite                                
     14.58985756    -17.69961548  301      3.85610822      1.00000000
    -17.700  0.0000E+00  0.0000E+00
    -17.592  0.0000E+00  0.0000E+00
    -17.484  0.0000E+00  0.0000E+00
    -17.377  0.0000E+00  0.0000E+00
    -17.269  0.0000E+00  0.0000E+00
    -17.161  0.0000E+00  0.0000E+00
    -17.054  0.0000E+00  0.0000E+00
    -16.946  0.0000E+00  0.0000E+00
    -16.839  0.0000E+00  0.0000E+00
    -16.731  0.0000E+00  0.0000E+00
    -16.623  0.0000E+00  0.0000E+00
    -16.516  0.0000E+00  0.0000E+00
    -16.408  0.0000E+00  0.0000E+00
    -16.300  0.0000E+00  0.0000E+00
    -16.193  0.0000E+00  0.0000E+00
    -16.085  0.0000E+00  0.0000E+00
    -15.978  0.0000E+00  0.0000E+00
    -15.870  0.0000E+00  0.0000E+00
    -15.762  0.0000E+00  0.0000E+00
    -15.655  0.1254E+01  0.2191E-01
    -15.547  0.4397E+01  0.3298E+00
    -15.439  0.4986E+01  0.8594E+00
    -15.332  0.4862E+01  0.1393E+01
    -15.224  0.4973E+01  0.1915E+01
    -15.116  0.5018E+01  0.2457E+01
    -15.009  0.4844E+01  0.2986E+01
    -14.901  0.4936E+01  0.3511E+01
    -14.794  0.5079E+01  0.4051E+01
    -14.686  0.4956E+01  0.4592E+01
    -14.578  0.4988E+01  0.5124E+01
    -14.471  0.5830E+01  0.5699E+01
    -14.363  0.5916E+01  0.6355E+01
    -14.255  0.6556E+01  0.7011E+01
    -14.148  0.2541E+01  0.7615E+01
    -14.040  0.2240E+01  0.7813E+01
    -13.933  0.4356E+01  0.8168E+01
    -13.825  0.4660E+01  0.8684E+01
    -13.717  0.4286E+01  0.9141E+01
    -13.610  0.8559E+01  0.1003E+02
    -13.502  0.4287E+01  0.1066E+02
    -13.394  0.4358E+01  0.1112E+02
    -13.287  0.4466E+01  0.1159E+02
    -13.179  0.4568E+01  0.1208E+02
    -13.071  0.4671E+01  0.1258E+02
    -12.964  0.5719E+01  0.1313E+02
    -12.856  0.5801E+01  0.1379E+02
    -12.749  0.5403E+01  0.1438E+02
    -12.641  0.5725E+01  0.1497E+02
    -12.533  0.5041E+01  0.1556E+02
    -12.426  0.4792E+01  0.1608E+02
    -12.318  0.4878E+01  0.1660E+02
    -12.210  0.4945E+01  0.1713E+02
    -12.103  0.4986E+01  0.1766E+02
    -11.995  0.5014E+01  0.1820E+02
    -11.888  0.5906E+01  0.1878E+02
    -11.780  0.5762E+01  0.1941E+02
    -11.672  0.5618E+01  0.2002E+02
    -11.565  0.5560E+01  0.2062E+02
    -11.457  0.5709E+01  0.2123E+02
    -11.349  0.5121E+01  0.2184E+02
    -11.242  0.5357E+01  0.2239E+02
    -11.134  0.5487E+01  0.2298E+02
    -11.026  0.5421E+01  0.2356E+02
    -10.919  0.5539E+01  0.2415E+02
    -10.811  0.5760E+01  0.2476E+02
    -10.704  0.5984E+01  0.2539E+02
    -10.596  0.9227E+01  0.2614E+02
    -10.488  0.8756E+01  0.2723E+02
    -10.381  0.5634E+01  0.2799E+02
    -10.273  0.5131E+01  0.2856E+02
    -10.165  0.3872E+01  0.2935E+02
    -10.058  0.3505E+01  0.2975E+02
     -9.950  0.3138E+01  0.3010E+02
     -9.843  0.2771E+01  0.3042E+02
     -9.735  0.2404E+01  0.3070E+02
     -9.627  0.2456E+01  0.3095E+02
     -9.520  0.3432E+01  0.3130E+02
     -9.412  0.1388E+01  0.3153E+02
     -9.304  0.1702E+01  0.3168E+02
     -9.197  0.2638E+01  0.3191E+02
     -9.089  0.7186E+01  0.3239E+02
     -8.981  0.4082E+01  0.3313E+02
     -8.874  0.3968E+01  0.3354E+02
     -8.766  0.4294E+01  0.3399E+02
     -8.659  0.1024E+02  0.3472E+02
     -8.551  0.6478E+01  0.3543E+02
     -8.443  0.7626E+01  0.3619E+02
     -8.336  0.8602E+01  0.3706E+02
     -8.228  0.7672E+01  0.3802E+02
     -8.120  0.6265E+01  0.3871E+02
     -8.013  0.6012E+01  0.3937E+02
     -7.905  0.5760E+01  0.4001E+02
     -7.798  0.5525E+01  0.4061E+02
     -7.690  0.5340E+01  0.4120E+02
     -7.582  0.5158E+01  0.4176E+02
     -7.475  0.4964E+01  0.4231E+02
     -7.367  0.4857E+01  0.4284E+02
     -7.259  0.4826E+01  0.4336E+02
     -7.152  0.4794E+01  0.4387E+02
     -7.044  0.4633E+01  0.4439E+02
     -6.936  0.4401E+01  0.4487E+02
     -6.829  0.4346E+01  0.4534E+02
     -6.721  0.3996E+01  0.4576E+02
     -6.614  0.4277E+01  0.4620E+02
     -6.506  0.4903E+01  0.4669E+02
     -6.398  0.5850E+01  0.4726E+02
     -6.291  0.6509E+01  0.4793E+02
     -6.183  0.1057E+02  0.4887E+02
     -6.075  0.8401E+01  0.4989E+02
     -5.968  0.6235E+01  0.5068E+02
     -5.860  0.4069E+01  0.5124E+02
     -5.753  0.2791E+01  0.5158E+02
     -5.645  0.3124E+01  0.5189E+02
     -5.537  0.4365E+01  0.5229E+02
     -5.430  0.5617E+01  0.5283E+02
     -5.322  0.7161E+01  0.5351E+02
     -5.214  0.7915E+01  0.5435E+02
     -5.107  0.6750E+01  0.5514E+02
     -4.999  0.5548E+01  0.5581E+02
     -4.891  0.7688E+01  0.5649E+02
     -4.784  0.7189E+01  0.5729E+02
     -4.676  0.6691E+01  0.5803E+02
     -4.569  0.6193E+01  0.5873E+02
     -4.461  0.5694E+01  0.5937E+02
     -4.353  0.5196E+01  0.5995E+02
     -4.246  0.7806E+01  0.6092E+02
     -4.138  0.9640E+01  0.6188E+02
     -4.030  0.8948E+01  0.6288E+02
     -3.923  0.7182E+01  0.6377E+02
     -3.815  0.6512E+01  0.6448E+02
     -3.708  0.7070E+01  0.6521E+02
     -3.600  0.8419E+01  0.6604E+02
     -3.492  0.1015E+02  0.6702E+02
     -3.385  0.1459E+02  0.6834E+02
     -3.277  0.1330E+02  0.6992E+02
     -3.169  0.1302E+02  0.7131E+02
     -3.062  0.1393E+02  0.7284E+02
     -2.954  0.1645E+02  0.7432E+02
     -2.846  0.1436E+02  0.7603E+02
     -2.739  0.2015E+02  0.7745E+02
     -2.631  0.1166E+02  0.7914E+02
     -2.524  0.1384E+02  0.8044E+02
     -2.416  0.1700E+02  0.8249E+02
     -2.308  0.1717E+02  0.8446E+02
     -2.201  0.1577E+02  0.8634E+02
     -2.093  0.1218E+02  0.8786E+02
     -1.985  0.7194E+01  0.8889E+02
     -1.878  0.1068E+02  0.8970E+02
     -1.770  0.8926E+01  0.9090E+02
     -1.663  0.9219E+01  0.9185E+02
     -1.555  0.1288E+02  0.9314E+02
     -1.447  0.1353E+02  0.9451E+02
     -1.340  0.9685E+01  0.9593E+02
     -1.232  0.1029E+02  0.9701E+02
     -1.124  0.1142E+02  0.9818E+02
     -1.017  0.1098E+02  0.9937E+02
     -0.909  0.1129E+02  0.1006E+03
     -0.801  0.1025E+02  0.1017E+03
     -0.694  0.9833E+01  0.1028E+03
     -0.586  0.9359E+01  0.1038E+03
     -0.479  0.9066E+01  0.1048E+03
     -0.371  0.8953E+01  0.1058E+03
     -0.263  0.9041E+01  0.1067E+03
     -0.156  0.9697E+01  0.1077E+03
     -0.048  0.9447E+01  0.1088E+03
      0.060  0.9368E+01  0.1098E+03
      0.167  0.9291E+01  0.1108E+03
      0.275  0.9181E+01  0.1118E+03
      0.382  0.9353E+01  0.1128E+03
      0.490  0.9216E+01  0.1138E+03
      0.598  0.9765E+01  0.1148E+03
      0.705  0.1108E+02  0.1159E+03
      0.813  0.7871E+01  0.1169E+03
      0.921  0.6520E+01  0.1176E+03
      1.028  0.5769E+01  0.1183E+03
      1.136  0.4804E+01  0.1189E+03
      1.244  0.4868E+01  0.1194E+03
      1.351  0.3807E+01  0.1199E+03
      1.459  0.5056E+01  0.1203E+03
      1.566  0.9429E+01  0.1211E+03
      1.674  0.1512E+02  0.1222E+03
      1.782  0.7513E+01  0.1233E+03
      1.889  0.5591E+01  0.1239E+03
      1.997  0.4812E+01  0.1245E+03
      2.105  0.4222E+01  0.1250E+03
      2.212  0.3535E+01  0.1254E+03
      2.320  0.3278E+01  0.1258E+03
      2.427  0.2977E+01  0.1261E+03
      2.535  0.2691E+01  0.1264E+03
      2.643  0.2473E+01  0.1267E+03
      2.750  0.2174E+01  0.1269E+03
      2.858  0.1919E+01  0.1272E+03
      2.966  0.1670E+01  0.1274E+03
      3.073  0.1414E+01  0.1275E+03
      3.181  0.1144E+01  0.1277E+03
      3.289  0.9055E+00  0.1278E+03
      3.396  0.6970E+00  0.1279E+03
      3.504  0.4886E+00  0.1279E+03
      3.611  0.3103E+00  0.1280E+03
      3.719  0.1611E+00  0.1280E+03
      3.827  0.3076E-01  0.1280E+03
      3.934  0.7579E-01  0.1280E+03
      4.042  0.2000E+00  0.1280E+03
      4.150  0.3476E+00  0.1280E+03
      4.257  0.5385E+00  0.1281E+03
      4.365  0.7598E+00  0.1282E+03
      4.472  0.9815E+00  0.1283E+03
      4.580  0.1204E+01  0.1284E+03
      4.688  0.1687E+01  0.1285E+03
      4.795  0.2131E+01  0.1287E+03
      4.903  0.2759E+01  0.1290E+03
      5.011  0.2499E+01  0.1293E+03
      5.118  0.3008E+01  0.1296E+03
      5.226  0.3792E+01  0.1299E+03
      5.334  0.4700E+01  0.1304E+03
      5.441  0.9275E+01  0.1312E+03
      5.549  0.9613E+01  0.1322E+03
      5.656  0.9812E+01  0.1333E+03
      5.764  0.7274E+01  0.1341E+03
      5.872  0.6620E+01  0.1349E+03
      5.979  0.5921E+01  0.1356E+03
      6.087  0.5766E+01  0.1362E+03
      6.195  0.5479E+01  0.1368E+03
      6.302  0.4984E+01  0.1374E+03
      6.410  0.4443E+01  0.1379E+03
      6.517  0.3852E+01  0.1383E+03
      6.625  0.3754E+01  0.1387E+03
      6.733  0.4340E+01  0.1392E+03
      6.840  0.4717E+01  0.1396E+03
      6.948  0.4615E+01  0.1401E+03
      7.056  0.4380E+01  0.1406E+03
      7.163  0.4239E+01  0.1411E+03
      7.271  0.4085E+01  0.1415E+03
      7.379  0.3959E+01  0.1420E+03
      7.486  0.3829E+01  0.1424E+03
      7.594  0.3949E+01  0.1428E+03
      7.701  0.4095E+01  0.1432E+03
      7.809  0.4177E+01  0.1437E+03
      7.917  0.4203E+01  0.1441E+03
      8.024  0.4276E+01  0.1446E+03
      8.132  0.4348E+01  0.1451E+03
      8.240  0.4499E+01  0.1455E+03
      8.347  0.4424E+01  0.1460E+03
      8.455  0.4439E+01  0.1465E+03
      8.562  0.4534E+01  0.1470E+03
      8.670  0.4706E+01  0.1475E+03
      8.778  0.4909E+01  0.1480E+03
      8.885  0.4670E+01  0.1485E+03
      8.993  0.4597E+01  0.1490E+03
      9.101  0.4574E+01  0.1495E+03
      9.208  0.4572E+01  0.1500E+03
      9.316  0.4829E+01  0.1505E+03
      9.424  0.5101E+01  0.1510E+03
      9.531  0.5093E+01  0.1516E+03
      9.639  0.4963E+01  0.1521E+03
      9.746  0.4827E+01  0.1526E+03
      9.854  0.4662E+01  0.1532E+03
      9.962  0.5056E+01  0.1537E+03
     10.069  0.5651E+01  0.1543E+03
     10.177  0.5928E+01  0.1549E+03
     10.285  0.3643E+01  0.1555E+03
     10.392  0.3616E+01  0.1559E+03
     10.500  0.4178E+01  0.1563E+03
     10.607  0.4526E+01  0.1567E+03
     10.715  0.4686E+01  0.1572E+03
     10.823  0.4755E+01  0.1577E+03
     10.930  0.4566E+01  0.1582E+03
     11.038  0.4390E+01  0.1587E+03
     11.146  0.5340E+01  0.1592E+03
     11.253  0.9138E+01  0.1600E+03
     11.361  0.1121E+02  0.1611E+03
     11.469  0.1341E+02  0.1625E+03
     11.576  0.1185E+02  0.1639E+03
     11.684  0.1125E+02  0.1651E+03
     11.791  0.8009E+01  0.1662E+03
     11.899  0.5920E+01  0.1669E+03
     12.007  0.3650E+01  0.1675E+03
     12.114  0.1721E+01  0.1677E+03
     12.222  0.8668E+00  0.1679E+03
     12.330  0.4938E+00  0.1679E+03
     12.437  0.2177E+00  0.1680E+03
     12.545  0.3852E-01  0.1680E+03
     12.652  0.0000E+00  0.1680E+03
     12.760  0.0000E+00  0.1680E+03
     12.868  0.0000E+00  0.1680E+03
     12.975  0.0000E+00  0.1680E+03
     13.083  0.0000E+00  0.1680E+03
     13.191  0.0000E+00  0.1680E+03
     13.298  0.0000E+00  0.1680E+03
     13.406  0.0000E+00  0.1680E+03
     13.514  0.0000E+00  0.1680E+03
     13.621  0.0000E+00  0.1680E+03
     13.729  0.0000E+00  0.1680E+03
     13.836  0.0000E+00  0.1680E+03
     13.944  0.0000E+00  0.1680E+03
     14.052  0.0000E+00  0.1680E+03
     14.159  0.0000E+00  0.1680E+03
     14.267  0.0000E+00  0.1680E+03
     14.375  0.0000E+00  0.1680E+03
     14.482  0.0000E+00  0.1680E+03
     14.590  0.0000E+00  0.1680E+03
