 vasp.5.3.5 31Mar14 (build Nov 02 2014 15:17:37) complex                        
  
 executed on        ion-Intel-MKL date 2016.08.28  01:05:25
 running on    6 total cores
 distrk:  each k-point on    6 cores,    1 groups
 distr:  one band on NCORES_PER_BAND=   1 cores,    6 groups


--------------------------------------------------------------------------------------------------------


 INCAR:
 POTCAR:   PAW_PBE C 08Apr2002                    

 ----------------------------------------------------------------------------- 
|                                                                             |
|           W    W    AA    RRRRR   N    N  II  N    N   GGGG   !!!           |
|           W    W   A  A   R    R  NN   N  II  NN   N  G    G  !!!           |
|           W    W  A    A  R    R  N N  N  II  N N  N  G       !!!           |
|           W WW W  AAAAAA  RRRRR   N  N N  II  N  N N  G  GGG   !            |
|           WW  WW  A    A  R   R   N   NN  II  N   NN  G    G                |
|           W    W  A    A  R    R  N    N  II  N    N   GGGG   !!!           |
|                                                                             |
|      For optimal performance we recommend to set                            |
|        NCORE= 4 - approx SQRT( number of cores)                             |
|      NCORE specifies how many cores store one orbital (NPAR=cpu/NCORE).     |
|      This setting can  greatly improve the performance of VASP for DFT.     |
|      The default, NPAR=number of cores might be grossly inefficient         |
|      on modern multi-core architectures or massively parallel machines.     |
|      Do your own testing !!!!                                               |
|      Unfortunately you need to use the default for GW and RPA calculations. |
|      (for HF NCORE is supported but not extensively tested yet)             |
|                                                                             |
 ----------------------------------------------------------------------------- 

 POTCAR:   PAW_PBE C 08Apr2002                    
   VRHFIN =C: s2p2                                                              
   LEXCH  = PE                                                                  
   EATOM  =   147.1560 eV,   10.8157 Ry                                         
                                                                                
   TITEL  = PAW_PBE C 08Apr2002                                                 
   LULTRA =        F    use ultrasoft PP ?                                      
   IUNSCR =        0    unscreen: 0-lin 1-nonlin 2-no                           
   RPACOR =     .000    partial core radius                                     
   POMASS =   12.011; ZVAL   =    4.000    mass and valenz                      
   RCORE  =    1.500    outmost cutoff radius                                   
   RWIGS  =    1.630; RWIGS  =     .863    wigner-seitz radius (au A)           
   ENMAX  =  400.000; ENMIN  =  300.000 eV                                      
   ICORE  =        2    local potential                                         
   LCOR   =        T    correct aug charges                                     
   LPAW   =        T    paw PP                                                  
   EAUG   =  644.873                                                            
   DEXC   =     .000                                                            
   RMAX   =    2.266    core radius for proj-oper                               
   RAUG   =    1.300    factor for augmentation sphere                          
   RDEP   =    1.501    radius for radial grids                                 
   RDEPT  =    1.300    core radius for aug-charge                              
   QCUT   =   -5.516; QGAM   =   11.032    optimization parameters              
                                                                                
   Description                                                                  
     l     E      TYP  RCUT    TYP  RCUT                                        
     0   .000     23  1.200                                                     
     0   .000     23  1.200                                                     
     1   .000     23  1.500                                                     
     1  2.500     23  1.500                                                     
     2   .000      7  1.500                                                     
  local pseudopotential read in
  atomic valenz-charges read in
  non local Contribution for L=           0  read in
    real space projection operators read in
  non local Contribution for L=           0  read in
    real space projection operators read in
  non local Contribution for L=           1  read in
    real space projection operators read in
  non local Contribution for L=           1  read in
    real space projection operators read in
    PAW grid and wavefunctions read in
 
   number of l-projection  operators is LMAX  =           4
   number of lm-projection operators is LMMAX =           8
 

 ----------------------------------------------------------------------------- 
|                                                                             |
|  ADVICE TO THIS USER RUNNING 'VASP/VAMP'   (HEAR YOUR MASTER'S VOICE ...):  |
|                                                                             |
|      You have a (more or less) 'large supercell' and for larger cells       |
|      it might be more efficient to use real space projection operators      |
|      So try LREAL= Auto  in the INCAR   file.                               |
|      Mind: If you want to do a very accurate calculations keep the          |
|      reciprocal projection scheme          (i.e. LREAL=.FALSE.)             |
|                                                                             |
 ----------------------------------------------------------------------------- 

 PAW_PBE C 08Apr2002                    :
 energy of atom  1       EATOM= -147.1560
 kinetic energy error for atom=    0.0057 (will be added to EATOM!!)
 
 
 POSCAR: C                                       
  positions in direct lattice
  No initial velocities read in
 exchange correlation table for  LEXCH =        8
   RHO(1)=    0.500       N(1)  =     2000
   RHO(2)=  100.500       N(2)  =     4000
 


--------------------------------------------------------------------------------------------------------


 ion  position               nearest neighbor table
   1  0.500  0.000  0.126-  20 1.42  18 1.42  19 1.43
   2  1.000  0.000  0.125-  17 1.42  20 1.42  19 1.42
   3  0.500  0.500  0.125-  20 1.42  17 1.42  18 1.42
   4  1.000  0.500  0.125-  19 1.42  18 1.42  17 1.42
   5  0.500  0.000  0.625-  22 1.42  23 1.42  24 1.42
   6  1.000  0.000  0.625-  21 1.42  24 1.42  23 1.42
   7  0.500  0.500  0.625-  24 1.42  21 1.42  22 1.42
   8  1.000  0.500  0.625-  23 1.42  22 1.42  21 1.42
   9  0.000  0.500  0.375-  27 1.42  26 1.42  28 1.42
  10  0.500  0.500  0.375-  28 1.42  25 1.42  27 1.42
  11  0.000  1.000  0.375-  25 1.42  28 1.42  26 1.42
  12  0.500  1.000  0.375-  26 1.42  27 1.42  25 1.42
  13  0.000  0.500  0.875-  31 1.42  30 1.42  32 1.42
  14  0.500  0.500  0.875-  32 1.42  29 1.42  31 1.42
  15  0.000  1.000  0.875-  29 1.42  32 1.42  30 1.42
  16  0.500  1.000  0.875-  30 1.42  31 1.42  29 1.42
  17  0.166  0.334  0.125-   2 1.42   3 1.42   4 1.42
  18  0.666  0.334  0.125-   4 1.42   1 1.42   3 1.42
  19  0.166  0.834  0.125-   4 1.42   2 1.42   1 1.43
  20  0.666  0.834  0.125-   1 1.42   3 1.42   2 1.42
  21  0.166  0.334  0.625-   6 1.42   7 1.42   8 1.42
  22  0.666  0.334  0.625-   5 1.42   8 1.42   7 1.42
  23  0.166  0.834  0.625-   8 1.42   5 1.42   6 1.42
  24  0.666  0.834  0.625-   7 1.42   6 1.42   5 1.42
  25  0.334  0.166  0.375-  11 1.42  10 1.42  12 1.42
  26  0.834  0.166  0.375-  12 1.42   9 1.42  11 1.42
  27  0.334  0.666  0.375-   9 1.42  12 1.42  10 1.42
  28  0.834  0.666  0.375-  10 1.42  11 1.42   9 1.42
  29  0.334  0.166  0.875-  15 1.42  14 1.42  16 1.42
  30  0.834  0.166  0.875-  16 1.42  13 1.42  15 1.42
  31  0.334  0.666  0.875-  13 1.42  16 1.42  14 1.42
  32  0.834  0.666  0.875-  14 1.42  15 1.42  13 1.42
 
  LATTYP: Found a base centered orthorhombic cell.
 ALAT       =     4.9295501972
 B/A-ratio  =     1.7336081796
 C/A-ratio  =     2.7444231105
  
  Lattice vectors:
  
 A1 = (   4.9328744980,  -0.0019192860,   0.0000000000)
 A2 = (  -2.4680993993,   4.2710349859,   0.0000000000)
 A3 = (   0.0000000000,   0.0000000000,  13.5287714854)


Analysis of symmetry for initial positions (statically):
=====================================================================
 Subroutine PRICEL returns:
 Original cell was already a primitive cell.
 

 Routine SETGRP: Setting up the symmetry group for a 
 base centered orthorhombic supercell.


 Subroutine GETGRP returns: Found  1 space group operations
 (whereof  1 operations were pure point group operations)
 out of a pool of  8 trial point group operations.


The static configuration has the point symmetry C_1 .


Analysis of symmetry for dynamics (positions and initial velocities):
=====================================================================
 Subroutine PRICEL returns:
 Original cell was already a primitive cell.
 

 Routine SETGRP: Setting up the symmetry group for a 
 base centered orthorhombic supercell.


 Subroutine GETGRP returns: Found  1 space group operations
 (whereof  1 operations were pure point group operations)
 out of a pool of  8 trial point group operations.


The dynamic configuration has the point symmetry C_1 .
 
 
 KPOINTS: B4C B11C-CBC                            

Automatic generation of k-mesh.
Space group operators:
 irot       det(A)        alpha          n_x          n_y          n_z        tau_x        tau_y        tau_z
    1     1.000000     0.000001     1.000000     0.000000     0.000000     0.000000     0.000000     0.000000
 
 Subroutine IBZKPT returns following result:
 ===========================================
 
 Found    163 irreducible k-points:
 
 Following reciprocal coordinates:
            Coordinates               Weight
  0.000000  0.000000  0.000000      1.000000
  0.111111  0.000000  0.000000      2.000000
  0.222222  0.000000  0.000000      2.000000
  0.333333  0.000000  0.000000      2.000000
  0.444444  0.000000  0.000000      2.000000
 -0.000000  0.111111  0.000000      2.000000
  0.111111  0.111111  0.000000      2.000000
  0.222222  0.111111  0.000000      2.000000
  0.333333  0.111111  0.000000      2.000000
  0.444444  0.111111  0.000000      2.000000
 -0.444444  0.111111  0.000000      2.000000
 -0.333333  0.111111  0.000000      2.000000
 -0.222222  0.111111  0.000000      2.000000
 -0.111111  0.111111  0.000000      2.000000
 -0.000000  0.222222  0.000000      2.000000
  0.111111  0.222222  0.000000      2.000000
  0.222222  0.222222  0.000000      2.000000
  0.333333  0.222222  0.000000      2.000000
  0.444444  0.222222  0.000000      2.000000
 -0.444444  0.222222  0.000000      2.000000
 -0.333333  0.222222  0.000000      2.000000
 -0.222222  0.222222  0.000000      2.000000
 -0.111111  0.222222  0.000000      2.000000
  0.000000  0.333333  0.000000      2.000000
  0.111111  0.333333  0.000000      2.000000
  0.222222  0.333333  0.000000      2.000000
  0.333333  0.333333  0.000000      2.000000
  0.444444  0.333333  0.000000      2.000000
 -0.444444  0.333333  0.000000      2.000000
 -0.333333  0.333333  0.000000      2.000000
 -0.222222  0.333333  0.000000      2.000000
 -0.111111  0.333333  0.000000      2.000000
 -0.000000  0.444444  0.000000      2.000000
  0.111111  0.444444  0.000000      2.000000
  0.222222  0.444444  0.000000      2.000000
  0.333333  0.444444  0.000000      2.000000
  0.444444  0.444444  0.000000      2.000000
 -0.444444  0.444444  0.000000      2.000000
 -0.333333  0.444444  0.000000      2.000000
 -0.222222  0.444444  0.000000      2.000000
 -0.111111  0.444444  0.000000      2.000000
  0.000000  0.000000  0.250000      2.000000
  0.111111  0.000000  0.250000      2.000000
  0.222222  0.000000  0.250000      2.000000
  0.333333  0.000000  0.250000      2.000000
  0.444444  0.000000  0.250000      2.000000
 -0.444444 -0.000000  0.250000      2.000000
 -0.333333  0.000000  0.250000      2.000000
 -0.222222 -0.000000  0.250000      2.000000
 -0.111111 -0.000000  0.250000      2.000000
 -0.000000  0.111111  0.250000      2.000000
  0.111111  0.111111  0.250000      2.000000
  0.222222  0.111111  0.250000      2.000000
  0.333333  0.111111  0.250000      2.000000
  0.444444  0.111111  0.250000      2.000000
 -0.444444  0.111111  0.250000      2.000000
 -0.333333  0.111111  0.250000      2.000000
 -0.222222  0.111111  0.250000      2.000000
 -0.111111  0.111111  0.250000      2.000000
 -0.000000  0.222222  0.250000      2.000000
  0.111111  0.222222  0.250000      2.000000
  0.222222  0.222222  0.250000      2.000000
  0.333333  0.222222  0.250000      2.000000
  0.444444  0.222222  0.250000      2.000000
 -0.444444  0.222222  0.250000      2.000000
 -0.333333  0.222222  0.250000      2.000000
 -0.222222  0.222222  0.250000      2.000000
 -0.111111  0.222222  0.250000      2.000000
  0.000000  0.333333  0.250000      2.000000
  0.111111  0.333333  0.250000      2.000000
  0.222222  0.333333  0.250000      2.000000
  0.333333  0.333333  0.250000      2.000000
  0.444444  0.333333  0.250000      2.000000
 -0.444444  0.333333  0.250000      2.000000
 -0.333333  0.333333  0.250000      2.000000
 -0.222222  0.333333  0.250000      2.000000
 -0.111111  0.333333  0.250000      2.000000
 -0.000000  0.444444  0.250000      2.000000
  0.111111  0.444444  0.250000      2.000000
  0.222222  0.444444  0.250000      2.000000
  0.333333  0.444444  0.250000      2.000000
  0.444444  0.444444  0.250000      2.000000
 -0.444444  0.444444  0.250000      2.000000
 -0.333333  0.444444  0.250000      2.000000
 -0.222222  0.444444  0.250000      2.000000
 -0.111111  0.444444  0.250000      2.000000
  0.000000 -0.444444  0.250000      2.000000
  0.111111 -0.444444  0.250000      2.000000
  0.222222 -0.444444  0.250000      2.000000
  0.333333 -0.444444  0.250000      2.000000
  0.444444 -0.444444  0.250000      2.000000
 -0.444444 -0.444444  0.250000      2.000000
 -0.333333 -0.444444  0.250000      2.000000
 -0.222222 -0.444444  0.250000      2.000000
 -0.111111 -0.444444  0.250000      2.000000
 -0.000000 -0.333333  0.250000      2.000000
  0.111111 -0.333333  0.250000      2.000000
  0.222222 -0.333333  0.250000      2.000000
  0.333333 -0.333333  0.250000      2.000000
  0.444444 -0.333333  0.250000      2.000000
 -0.444444 -0.333333  0.250000      2.000000
 -0.333333 -0.333333  0.250000      2.000000
 -0.222222 -0.333333  0.250000      2.000000
 -0.111111 -0.333333  0.250000      2.000000
  0.000000 -0.222222  0.250000      2.000000
  0.111111 -0.222222  0.250000      2.000000
  0.222222 -0.222222  0.250000      2.000000
  0.333333 -0.222222  0.250000      2.000000
  0.444444 -0.222222  0.250000      2.000000
 -0.444444 -0.222222  0.250000      2.000000
 -0.333333 -0.222222  0.250000      2.000000
 -0.222222 -0.222222  0.250000      2.000000
 -0.111111 -0.222222  0.250000      2.000000
  0.000000 -0.111111  0.250000      2.000000
  0.111111 -0.111111  0.250000      2.000000
  0.222222 -0.111111  0.250000      2.000000
  0.333333 -0.111111  0.250000      2.000000
  0.444444 -0.111111  0.250000      2.000000
 -0.444444 -0.111111  0.250000      2.000000
 -0.333333 -0.111111  0.250000      2.000000
 -0.222222 -0.111111  0.250000      2.000000
 -0.111111 -0.111111  0.250000      2.000000
  0.000000  0.000000  0.500000      1.000000
  0.111111  0.000000  0.500000      2.000000
  0.222222  0.000000  0.500000      2.000000
  0.333333  0.000000  0.500000      2.000000
  0.444444  0.000000  0.500000      2.000000
 -0.000000  0.111111  0.500000      2.000000
  0.111111  0.111111  0.500000      2.000000
  0.222222  0.111111  0.500000      2.000000
  0.333333  0.111111  0.500000      2.000000
  0.444444  0.111111  0.500000      2.000000
 -0.444444  0.111111  0.500000      2.000000
 -0.333333  0.111111  0.500000      2.000000
 -0.222222  0.111111  0.500000      2.000000
 -0.111111  0.111111  0.500000      2.000000
 -0.000000  0.222222  0.500000      2.000000
  0.111111  0.222222  0.500000      2.000000
  0.222222  0.222222  0.500000      2.000000
  0.333333  0.222222  0.500000      2.000000
  0.444444  0.222222  0.500000      2.000000
 -0.444444  0.222222  0.500000      2.000000
 -0.333333  0.222222  0.500000      2.000000
 -0.222222  0.222222  0.500000      2.000000
 -0.111111  0.222222  0.500000      2.000000
  0.000000  0.333333  0.500000      2.000000
  0.111111  0.333333  0.500000      2.000000
  0.222222  0.333333  0.500000      2.000000
  0.333333  0.333333  0.500000      2.000000
  0.444444  0.333333  0.500000      2.000000
 -0.444444  0.333333  0.500000      2.000000
 -0.333333  0.333333  0.500000      2.000000
 -0.222222  0.333333  0.500000      2.000000
 -0.111111  0.333333  0.500000      2.000000
 -0.000000  0.444444  0.500000      2.000000
  0.111111  0.444444  0.500000      2.000000
  0.222222  0.444444  0.500000      2.000000
  0.333333  0.444444  0.500000      2.000000
  0.444444  0.444444  0.500000      2.000000
 -0.444444  0.444444  0.500000      2.000000
 -0.333333  0.444444  0.500000      2.000000
 -0.222222  0.444444  0.500000      2.000000
 -0.111111  0.444444  0.500000      2.000000
 
 Following cartesian coordinates:
            Coordinates               Weight
  0.000000  0.000000  0.000000      1.000000
  0.022530  0.013019  0.000000      2.000000
  0.045059  0.026038  0.000000      2.000000
  0.067589  0.039058  0.000000      2.000000
  0.090119  0.052077  0.000000      2.000000
  0.000010  0.026021  0.000000      2.000000
  0.022540  0.039040  0.000000      2.000000
  0.045069  0.052059  0.000000      2.000000
  0.067599  0.065079  0.000000      2.000000
  0.090129  0.078098  0.000000      2.000000
 -0.090109 -0.026056  0.000000      2.000000
 -0.067579 -0.013037  0.000000      2.000000
 -0.045049 -0.000018  0.000000      2.000000
 -0.022520  0.013002  0.000000      2.000000
  0.000020  0.052042  0.000000      2.000000
  0.022550  0.065061  0.000000      2.000000
  0.045080  0.078080  0.000000      2.000000
  0.067609  0.091099  0.000000      2.000000
  0.090139  0.104119  0.000000      2.000000
 -0.090098 -0.000035  0.000000      2.000000
 -0.067569  0.012984  0.000000      2.000000
 -0.045039  0.026003  0.000000      2.000000
 -0.022509  0.039023  0.000000      2.000000
  0.000030  0.078063  0.000000      2.000000
  0.022560  0.091082  0.000000      2.000000
  0.045090  0.104101  0.000000      2.000000
  0.067619  0.117120  0.000000      2.000000
  0.090149  0.130139  0.000000      2.000000
 -0.090088  0.025986  0.000000      2.000000
 -0.067559  0.039005  0.000000      2.000000
 -0.045029  0.052024  0.000000      2.000000
 -0.022499  0.065043  0.000000      2.000000
  0.000040  0.104084  0.000000      2.000000
  0.022570  0.117103  0.000000      2.000000
  0.045100  0.130122  0.000000      2.000000
  0.067630  0.143141  0.000000      2.000000
  0.090159  0.156160  0.000000      2.000000
 -0.090078  0.052007  0.000000      2.000000
 -0.067549  0.065026  0.000000      2.000000
 -0.045019  0.078045  0.000000      2.000000
 -0.022489  0.091064  0.000000      2.000000
  0.000000  0.000000  0.018479      2.000000
  0.022530  0.013019  0.018479      2.000000
  0.045059  0.026038  0.018479      2.000000
  0.067589  0.039058  0.018479      2.000000
  0.090119  0.052077  0.018479      2.000000
 -0.090119 -0.052077  0.018479      2.000000
 -0.067589 -0.039058  0.018479      2.000000
 -0.045059 -0.026038  0.018479      2.000000
 -0.022530 -0.013019  0.018479      2.000000
  0.000010  0.026021  0.018479      2.000000
  0.022540  0.039040  0.018479      2.000000
  0.045069  0.052059  0.018479      2.000000
  0.067599  0.065079  0.018479      2.000000
  0.090129  0.078098  0.018479      2.000000
 -0.090109 -0.026056  0.018479      2.000000
 -0.067579 -0.013037  0.018479      2.000000
 -0.045049 -0.000018  0.018479      2.000000
 -0.022520  0.013002  0.018479      2.000000
  0.000020  0.052042  0.018479      2.000000
  0.022550  0.065061  0.018479      2.000000
  0.045080  0.078080  0.018479      2.000000
  0.067609  0.091099  0.018479      2.000000
  0.090139  0.104119  0.018479      2.000000
 -0.090098 -0.000035  0.018479      2.000000
 -0.067569  0.012984  0.018479      2.000000
 -0.045039  0.026003  0.018479      2.000000
 -0.022509  0.039023  0.018479      2.000000
  0.000030  0.078063  0.018479      2.000000
  0.022560  0.091082  0.018479      2.000000
  0.045090  0.104101  0.018479      2.000000
  0.067619  0.117120  0.018479      2.000000
  0.090149  0.130139  0.018479      2.000000
 -0.090088  0.025986  0.018479      2.000000
 -0.067559  0.039005  0.018479      2.000000
 -0.045029  0.052024  0.018479      2.000000
 -0.022499  0.065043  0.018479      2.000000
  0.000040  0.104084  0.018479      2.000000
  0.022570  0.117103  0.018479      2.000000
  0.045100  0.130122  0.018479      2.000000
  0.067630  0.143141  0.018479      2.000000
  0.090159  0.156160  0.018479      2.000000
 -0.090078  0.052007  0.018479      2.000000
 -0.067549  0.065026  0.018479      2.000000
 -0.045019  0.078045  0.018479      2.000000
 -0.022489  0.091064  0.018479      2.000000
 -0.000040 -0.104084  0.018479      2.000000
  0.022489 -0.091064  0.018479      2.000000
  0.045019 -0.078045  0.018479      2.000000
  0.067549 -0.065026  0.018479      2.000000
  0.090078 -0.052007  0.018479      2.000000
 -0.090159 -0.156160  0.018479      2.000000
 -0.067630 -0.143141  0.018479      2.000000
 -0.045100 -0.130122  0.018479      2.000000
 -0.022570 -0.117103  0.018479      2.000000
 -0.000030 -0.078063  0.018479      2.000000
  0.022499 -0.065043  0.018479      2.000000
  0.045029 -0.052024  0.018479      2.000000
  0.067559 -0.039005  0.018479      2.000000
  0.090088 -0.025986  0.018479      2.000000
 -0.090149 -0.130139  0.018479      2.000000
 -0.067619 -0.117120  0.018479      2.000000
 -0.045090 -0.104101  0.018479      2.000000
 -0.022560 -0.091082  0.018479      2.000000
 -0.000020 -0.052042  0.018479      2.000000
  0.022509 -0.039023  0.018479      2.000000
  0.045039 -0.026003  0.018479      2.000000
  0.067569 -0.012984  0.018479      2.000000
  0.090098  0.000035  0.018479      2.000000
 -0.090139 -0.104119  0.018479      2.000000
 -0.067609 -0.091099  0.018479      2.000000
 -0.045080 -0.078080  0.018479      2.000000
 -0.022550 -0.065061  0.018479      2.000000
 -0.000010 -0.026021  0.018479      2.000000
  0.022520 -0.013002  0.018479      2.000000
  0.045049  0.000018  0.018479      2.000000
  0.067579  0.013037  0.018479      2.000000
  0.090109  0.026056  0.018479      2.000000
 -0.090129 -0.078098  0.018479      2.000000
 -0.067599 -0.065079  0.018479      2.000000
 -0.045069 -0.052059  0.018479      2.000000
 -0.022540 -0.039040  0.018479      2.000000
  0.000000  0.000000  0.036958      1.000000
  0.022530  0.013019  0.036958      2.000000
  0.045059  0.026038  0.036958      2.000000
  0.067589  0.039058  0.036958      2.000000
  0.090119  0.052077  0.036958      2.000000
  0.000010  0.026021  0.036958      2.000000
  0.022540  0.039040  0.036958      2.000000
  0.045069  0.052059  0.036958      2.000000
  0.067599  0.065079  0.036958      2.000000
  0.090129  0.078098  0.036958      2.000000
 -0.090109 -0.026056  0.036958      2.000000
 -0.067579 -0.013037  0.036958      2.000000
 -0.045049 -0.000018  0.036958      2.000000
 -0.022520  0.013002  0.036958      2.000000
  0.000020  0.052042  0.036958      2.000000
  0.022550  0.065061  0.036958      2.000000
  0.045080  0.078080  0.036958      2.000000
  0.067609  0.091099  0.036958      2.000000
  0.090139  0.104119  0.036958      2.000000
 -0.090098 -0.000035  0.036958      2.000000
 -0.067569  0.012984  0.036958      2.000000
 -0.045039  0.026003  0.036958      2.000000
 -0.022509  0.039023  0.036958      2.000000
  0.000030  0.078063  0.036958      2.000000
  0.022560  0.091082  0.036958      2.000000
  0.045090  0.104101  0.036958      2.000000
  0.067619  0.117120  0.036958      2.000000
  0.090149  0.130139  0.036958      2.000000
 -0.090088  0.025986  0.036958      2.000000
 -0.067559  0.039005  0.036958      2.000000
 -0.045029  0.052024  0.036958      2.000000
 -0.022499  0.065043  0.036958      2.000000
  0.000040  0.104084  0.036958      2.000000
  0.022570  0.117103  0.036958      2.000000
  0.045100  0.130122  0.036958      2.000000
  0.067630  0.143141  0.036958      2.000000
  0.090159  0.156160  0.036958      2.000000
 -0.090078  0.052007  0.036958      2.000000
 -0.067549  0.065026  0.036958      2.000000
 -0.045019  0.078045  0.036958      2.000000
 -0.022489  0.091064  0.036958      2.000000
 
 TETIRR: Found    970 inequivalent tetrahedra from     1944


--------------------------------------------------------------------------------------------------------




 Dimension of arrays:
   k-points           NKPTS =    163   k-points in BZ     NKDIM =    163   number of bands    NBANDS=     84
   number of dos      NEDOS =    301   number of ions     NIONS =     32
   non local maximal  LDIM  =      4   non local SUM 2l+1 LMDIM =      8
   total plane-waves  NPLWV = 172800
   max r-space proj   IRMAX =      1   max aug-charges    IRDMAX=   7355
   dimension x,y,z NGX =    40 NGY =   40 NGZ =  108
   dimension x,y,z NGXF=    80 NGYF=   80 NGZF=  216
   support grid    NGXF=    80 NGYF=   80 NGZF=  216
   ions per type =              32
 NGX,Y,Z   is equivalent  to a cutoff of  13.48, 13.48, 13.27 a.u.
 NGXF,Y,Z  is equivalent  to a cutoff of  26.96, 26.96, 26.54 a.u.


 I would recommend the setting:
   dimension x,y,z NGX =    39 NGY =   39 NGZ =  108
 SYSTEM =  graphite                                
 POSCAR =  C                                       

 Startparameter for this run:
   NWRITE =      2    write-flag & timer
   PREC   = accura    normal or accurate (medium, high low for compatibility)
   ISTART =      0    job   : 0-new  1-cont  2-samecut
   ICHARG =      2    charge: 1-file 2-atom 10-const
   ISPIN  =      1    spin polarized calculation?
   LNONCOLLINEAR =      F non collinear calculations
   LSORBIT =      F    spin-orbit coupling
   INIWAV =      1    electr: 0-lowe 1-rand  2-diag
   LASPH  =      F    aspherical Exc in radial PAW
   METAGGA=      F    non-selfconsistent MetaGGA calc.

 Electronic Relaxation 1
   ENCUT  =  600.0 eV  44.10 Ry    6.64 a.u.   9.85  9.85 27.02*2*pi/ulx,y,z
   ENINI  =  600.0     initial cutoff
   ENAUG  =  644.9 eV  augmentation charge cutoff
   NELM   =    200;   NELMIN=  2; NELMDL=  0     # of ELM steps 
   EDIFF  = 0.1E-05   stopping-criterion for ELM
   LREAL  =      F    real-space projection
   NLSPLINE    = F    spline interpolate recip. space projectors
   LCOMPAT=      F    compatible to vasp.4.4
   GGA_COMPAT  = T    GGA compatible to vasp.4.4-vasp.4.6
   LMAXPAW     = -100 max onsite density
   LMAXMIX     =    2 max onsite mixed and CHGCAR
   VOSKOWN=      0    Vosko Wilk Nusair interpolation
   ROPT   =    0.00000
 Ionic relaxation
   EDIFFG = 0.1E-02   stopping-criterion for IOM
   NSW    =      0    number of steps for IOM
   NBLOCK =      1;   KBLOCK =      1    inner block; outer block 
   IBRION =     -1    ionic relax: 0-MD 1-quasi-New 2-CG
   NFREE  =      0    steps in history (QN), initial steepest desc. (CG)
   ISIF   =      2    stress and relaxation
   IWAVPR =     10    prediction:  0-non 1-charg 2-wave 3-comb
   ISYM   =      2    0-nonsym 1-usesym 2-fastsym
   LCORR  =      T    Harris-Foulkes like correction to forces

   POTIM  = 0.5000    time-step for ionic-motion
   TEIN   =    0.0    initial temperature
   TEBEG  =    0.0;   TEEND  =   0.0 temperature during run
   SMASS  =  -3.00    Nose mass-parameter (am)
   estimated Nose-frequenzy (Omega)   =  0.10E-29 period in steps =****** mass=  -0.556E-27a.u.
   SCALEE = 1.0000    scale energy and forces
   NPACO  =    256;   APACO  = 16.0  distance and # of slots for P.C.
   PSTRESS=    0.0 pullay stress

  Mass of Ions in am
   POMASS =  12.01
  Ionic Valenz
   ZVAL   =   4.00
  Atomic Wigner-Seitz radii
   RWIGS  =  -1.00
  virtual crystal weights 
   VCA    =   1.00
   NELECT =     128.0000    total number of electrons
   NUPDOWN=      -1.0000    fix difference up-down

 DOS related values:
   EMIN   =  10.00;   EMAX   =-10.00  energy-range for DOS
   EFERMI =   0.00
   ISMEAR =    -5;   SIGMA  =   0.20  broadening in eV -4-tet -1-fermi 0-gaus

 Electronic relaxation 2 (details)
   IALGO  =     38    algorithm
   LDIAG  =      T    sub-space diagonalisation (order eigenvalues)
   LSUBROT=      F    optimize rotation matrix (better conditioning)
   TURBO    =      0    0=normal 1=particle mesh
   IRESTART =      0    0=no restart 2=restart with 2 vectors
   NREBOOT  =      0    no. of reboots
   NMIN     =      0    reboot dimension
   EREF     =   0.00    reference energy to select bands
   IMIX   =      4    mixing-type and parameters
     AMIX     =   0.40;   BMIX     =  1.00
     AMIX_MAG =   1.60;   BMIX_MAG =  1.00
     AMIN     =   0.10
     WC   =   100.;   INIMIX=   1;  MIXPRE=   1;  MAXMIX= -45

 Intra band minimization:
   WEIMIN = 0.0000     energy-eigenvalue tresh-hold
   EBREAK =  0.30E-08  absolut break condition
   DEPER  =   0.30     relativ break condition  

   TIME   =   0.40     timestep for ELM

  volume/ion in A,a.u.               =       8.91        60.10
  Fermi-wavevector in a.u.,A,eV,Ry     =   1.253757  2.369258 21.387103  1.571908
  Thomas-Fermi vector in A             =   2.387595
 
 Write flags
   LWAVE  =      F    write WAVECAR
   LCHARG =      F    write CHGCAR
   LVTOT  =      F    write LOCPOT, total local potential
   LVHAR  =      F    write LOCPOT, Hartree potential only
   LELF   =      F    write electronic localiz. function (ELF)
   LORBIT =      0    0 simple, 1 ext, 2 COOP (PROOUT)


 Dipole corrections
   LMONO  =      F    monopole corrections only (constant potential shift)
   LDIPOL =      F    correct potential (dipole corrections)
   IDIPOL =      0    1-x, 2-y, 3-z, 4-all directions 
   EPSILON=  1.0000000 bulk dielectric constant

 Exchange correlation treatment:
   GGA     =    PE    GGA type
   LEXCH   =     8    internal setting for exchange type
   VOSKOWN=      0    Vosko Wilk Nusair interpolation
   LHFCALC =     F    Hartree Fock is set to
   LHFONE  =     F    Hartree Fock one center treatment
   AEXX    =    0.0000 exact exchange contribution

 Linear response parameters
   LEPSILON=     F    determine dielectric tensor
   LRPA    =     F    only Hartree local field effects (RPA)
   LNABLA  =     F    use nabla operator in PAW spheres
   LVEL    =     F    velocity operator in full k-point grid
   LINTERFAST=   F  fast interpolation
   KINTER  =     0    interpolate to denser k-point grid
   CSHIFT  =0.1000    complex shift for real part using Kramers Kronig
   OMEGAMAX=  -1.0    maximum frequency
   DEG_THRESHOLD= 0.2000000E-02 threshold for treating states as degnerate
   RTIME   =    0.100 relaxation time in fs

 Orbital magnetization related:
   ORBITALMAG=     F  switch on orbital magnetization
   LCHIMAG   =     F  perturbation theory with respect to B field
   DQ        =  0.001000  dq finite difference perturbation B field



--------------------------------------------------------------------------------------------------------


 Static calculation
 charge density and potential will be updated during run
 non-spin polarized calculation
 Variant of blocked Davidson
 Davidson routine will perform the subspace rotation
 perform sub-space diagonalisation
    after iterative eigenvector-optimisation
 modified Broyden-mixing scheme, WC =      100.0
 initial mixing is a Kerker type mixing with AMIX =  0.4000 and BMIX =      1.0000
 Hartree-type preconditioning will be used
 using additional bands           20
 reciprocal scheme for non local part
 calculate Harris-corrections to forces 
   (improved forces if not selfconsistent)
 use gradient corrections 
 use of overlap-Matrix (Vanderbilt PP)
 Fermi weights with tetrahedron method with Bloechl corrections


--------------------------------------------------------------------------------------------------------


  energy-cutoff  :      600.00
  volume of cell :      284.97
      direct lattice vectors                 reciprocal lattice vectors
     4.932874498 -0.001919286  0.000000000     0.202767147  0.117172881  0.000000000
    -2.468099399  4.271034986  0.000000000     0.000091118  0.234187941  0.000000000
     0.000000000  0.000000000 13.528771485     0.000000000  0.000000000  0.073916542

  length of vectors
     4.932874871  4.932874871 13.528771485     0.234187958  0.234187958  0.073916542


 
 k-points in units of 2pi/SCALE and weight: B4C B11C-CBC                            
   0.00000000  0.00000000  0.00000000       0.003
   0.02252968  0.01301921  0.00000000       0.006
   0.04505937  0.02603842  0.00000000       0.006
   0.06758905  0.03905763  0.00000000       0.006
   0.09011873  0.05207684  0.00000000       0.006
   0.00001012  0.02602088  0.00000000       0.006
   0.02253981  0.03904009  0.00000000       0.006
   0.04506949  0.05205930  0.00000000       0.006
   0.06759917  0.06507851  0.00000000       0.006
   0.09012886  0.07809772  0.00000000       0.006
  -0.09010861 -0.02605595  0.00000000       0.006
  -0.06757892 -0.01303674  0.00000000       0.006
  -0.04504924 -0.00001754  0.00000000       0.006
  -0.02251956  0.01300167  0.00000000       0.006
   0.00002025  0.05204176  0.00000000       0.006
   0.02254993  0.06506097  0.00000000       0.006
   0.04507961  0.07808018  0.00000000       0.006
   0.06760930  0.09109939  0.00000000       0.006
   0.09013898  0.10411860  0.00000000       0.006
  -0.09009848 -0.00003507  0.00000000       0.006
  -0.06756880  0.01298414  0.00000000       0.006
  -0.04503912  0.02600335  0.00000000       0.006
  -0.02250943  0.03902256  0.00000000       0.006
   0.00003037  0.07806265  0.00000000       0.006
   0.02256006  0.09108186  0.00000000       0.006
   0.04508974  0.10410106  0.00000000       0.006
   0.06761942  0.11712027  0.00000000       0.006
   0.09014910  0.13013948  0.00000000       0.006
  -0.09008836  0.02598581  0.00000000       0.006
  -0.06755868  0.03900502  0.00000000       0.006
  -0.04502899  0.05202423  0.00000000       0.006
  -0.02249931  0.06504344  0.00000000       0.006
   0.00004050  0.10408353  0.00000000       0.006
   0.02257018  0.11710274  0.00000000       0.006
   0.04509986  0.13012195  0.00000000       0.006
   0.06762955  0.14314116  0.00000000       0.006
   0.09015923  0.15616037  0.00000000       0.006
  -0.09007824  0.05200669  0.00000000       0.006
  -0.06754855  0.06502590  0.00000000       0.006
  -0.04501887  0.07804511  0.00000000       0.006
  -0.02248919  0.09106432  0.00000000       0.006
   0.00000000  0.00000000  0.01847914       0.006
   0.02252968  0.01301921  0.01847914       0.006
   0.04505937  0.02603842  0.01847914       0.006
   0.06758905  0.03905763  0.01847914       0.006
   0.09011873  0.05207684  0.01847914       0.006
  -0.09011873 -0.05207684  0.01847914       0.006
  -0.06758905 -0.03905763  0.01847914       0.006
  -0.04505937 -0.02603842  0.01847914       0.006
  -0.02252968 -0.01301921  0.01847914       0.006
   0.00001012  0.02602088  0.01847914       0.006
   0.02253981  0.03904009  0.01847914       0.006
   0.04506949  0.05205930  0.01847914       0.006
   0.06759917  0.06507851  0.01847914       0.006
   0.09012886  0.07809772  0.01847914       0.006
  -0.09010861 -0.02605595  0.01847914       0.006
  -0.06757892 -0.01303674  0.01847914       0.006
  -0.04504924 -0.00001754  0.01847914       0.006
  -0.02251956  0.01300167  0.01847914       0.006
   0.00002025  0.05204176  0.01847914       0.006
   0.02254993  0.06506097  0.01847914       0.006
   0.04507961  0.07808018  0.01847914       0.006
   0.06760930  0.09109939  0.01847914       0.006
   0.09013898  0.10411860  0.01847914       0.006
  -0.09009848 -0.00003507  0.01847914       0.006
  -0.06756880  0.01298414  0.01847914       0.006
  -0.04503912  0.02600335  0.01847914       0.006
  -0.02250943  0.03902256  0.01847914       0.006
   0.00003037  0.07806265  0.01847914       0.006
   0.02256006  0.09108186  0.01847914       0.006
   0.04508974  0.10410106  0.01847914       0.006
   0.06761942  0.11712027  0.01847914       0.006
   0.09014910  0.13013948  0.01847914       0.006
  -0.09008836  0.02598581  0.01847914       0.006
  -0.06755868  0.03900502  0.01847914       0.006
  -0.04502899  0.05202423  0.01847914       0.006
  -0.02249931  0.06504344  0.01847914       0.006
   0.00004050  0.10408353  0.01847914       0.006
   0.02257018  0.11710274  0.01847914       0.006
   0.04509986  0.13012195  0.01847914       0.006
   0.06762955  0.14314116  0.01847914       0.006
   0.09015923  0.15616037  0.01847914       0.006
  -0.09007824  0.05200669  0.01847914       0.006
  -0.06754855  0.06502590  0.01847914       0.006
  -0.04501887  0.07804511  0.01847914       0.006
  -0.02248919  0.09106432  0.01847914       0.006
  -0.00004050 -0.10408353  0.01847914       0.006
   0.02248919 -0.09106432  0.01847914       0.006
   0.04501887 -0.07804511  0.01847914       0.006
   0.06754855 -0.06502590  0.01847914       0.006
   0.09007824 -0.05200669  0.01847914       0.006
  -0.09015923 -0.15616037  0.01847914       0.006
  -0.06762955 -0.14314116  0.01847914       0.006
  -0.04509986 -0.13012195  0.01847914       0.006
  -0.02257018 -0.11710274  0.01847914       0.006
  -0.00003037 -0.07806265  0.01847914       0.006
   0.02249931 -0.06504344  0.01847914       0.006
   0.04502899 -0.05202423  0.01847914       0.006
   0.06755868 -0.03900502  0.01847914       0.006
   0.09008836 -0.02598581  0.01847914       0.006
  -0.09014910 -0.13013948  0.01847914       0.006
  -0.06761942 -0.11712027  0.01847914       0.006
  -0.04508974 -0.10410106  0.01847914       0.006
  -0.02256006 -0.09108186  0.01847914       0.006
  -0.00002025 -0.05204176  0.01847914       0.006
   0.02250943 -0.03902256  0.01847914       0.006
   0.04503912 -0.02600335  0.01847914       0.006
   0.06756880 -0.01298414  0.01847914       0.006
   0.09009848  0.00003507  0.01847914       0.006
  -0.09013898 -0.10411860  0.01847914       0.006
  -0.06760930 -0.09109939  0.01847914       0.006
  -0.04507961 -0.07808018  0.01847914       0.006
  -0.02254993 -0.06506097  0.01847914       0.006
  -0.00001012 -0.02602088  0.01847914       0.006
   0.02251956 -0.01300167  0.01847914       0.006
   0.04504924  0.00001754  0.01847914       0.006
   0.06757892  0.01303674  0.01847914       0.006
   0.09010861  0.02605595  0.01847914       0.006
  -0.09012886 -0.07809772  0.01847914       0.006
  -0.06759917 -0.06507851  0.01847914       0.006
  -0.04506949 -0.05205930  0.01847914       0.006
  -0.02253981 -0.03904009  0.01847914       0.006
   0.00000000  0.00000000  0.03695827       0.003
   0.02252968  0.01301921  0.03695827       0.006
   0.04505937  0.02603842  0.03695827       0.006
   0.06758905  0.03905763  0.03695827       0.006
   0.09011873  0.05207684  0.03695827       0.006
   0.00001012  0.02602088  0.03695827       0.006
   0.02253981  0.03904009  0.03695827       0.006
   0.04506949  0.05205930  0.03695827       0.006
   0.06759917  0.06507851  0.03695827       0.006
   0.09012886  0.07809772  0.03695827       0.006
  -0.09010861 -0.02605595  0.03695827       0.006
  -0.06757892 -0.01303674  0.03695827       0.006
  -0.04504924 -0.00001754  0.03695827       0.006
  -0.02251956  0.01300167  0.03695827       0.006
   0.00002025  0.05204176  0.03695827       0.006
   0.02254993  0.06506097  0.03695827       0.006
   0.04507961  0.07808018  0.03695827       0.006
   0.06760930  0.09109939  0.03695827       0.006
   0.09013898  0.10411860  0.03695827       0.006
  -0.09009848 -0.00003507  0.03695827       0.006
  -0.06756880  0.01298414  0.03695827       0.006
  -0.04503912  0.02600335  0.03695827       0.006
  -0.02250943  0.03902256  0.03695827       0.006
   0.00003037  0.07806265  0.03695827       0.006
   0.02256006  0.09108186  0.03695827       0.006
   0.04508974  0.10410106  0.03695827       0.006
   0.06761942  0.11712027  0.03695827       0.006
   0.09014910  0.13013948  0.03695827       0.006
  -0.09008836  0.02598581  0.03695827       0.006
  -0.06755868  0.03900502  0.03695827       0.006
  -0.04502899  0.05202423  0.03695827       0.006
  -0.02249931  0.06504344  0.03695827       0.006
   0.00004050  0.10408353  0.03695827       0.006
   0.02257018  0.11710274  0.03695827       0.006
   0.04509986  0.13012195  0.03695827       0.006
   0.06762955  0.14314116  0.03695827       0.006
   0.09015923  0.15616037  0.03695827       0.006
  -0.09007824  0.05200669  0.03695827       0.006
  -0.06754855  0.06502590  0.03695827       0.006
  -0.04501887  0.07804511  0.03695827       0.006
  -0.02248919  0.09106432  0.03695827       0.006
 
 k-points in reciprocal lattice and weights: B4C B11C-CBC                            
   0.00000000  0.00000000  0.00000000       0.003
   0.11111111  0.00000000  0.00000000       0.006
   0.22222222  0.00000000  0.00000000       0.006
   0.33333333  0.00000000  0.00000000       0.006
   0.44444444  0.00000000  0.00000000       0.006
  -0.00000000  0.11111111  0.00000000       0.006
   0.11111111  0.11111111  0.00000000       0.006
   0.22222222  0.11111111  0.00000000       0.006
   0.33333333  0.11111111  0.00000000       0.006
   0.44444444  0.11111111  0.00000000       0.006
  -0.44444444  0.11111111  0.00000000       0.006
  -0.33333333  0.11111111  0.00000000       0.006
  -0.22222222  0.11111111  0.00000000       0.006
  -0.11111111  0.11111111  0.00000000       0.006
  -0.00000000  0.22222222  0.00000000       0.006
   0.11111111  0.22222222  0.00000000       0.006
   0.22222222  0.22222222  0.00000000       0.006
   0.33333333  0.22222222  0.00000000       0.006
   0.44444444  0.22222222  0.00000000       0.006
  -0.44444444  0.22222222  0.00000000       0.006
  -0.33333333  0.22222222  0.00000000       0.006
  -0.22222222  0.22222222  0.00000000       0.006
  -0.11111111  0.22222222  0.00000000       0.006
   0.00000000  0.33333333  0.00000000       0.006
   0.11111111  0.33333333  0.00000000       0.006
   0.22222222  0.33333333  0.00000000       0.006
   0.33333333  0.33333333  0.00000000       0.006
   0.44444444  0.33333333  0.00000000       0.006
  -0.44444444  0.33333333  0.00000000       0.006
  -0.33333333  0.33333333  0.00000000       0.006
  -0.22222222  0.33333333  0.00000000       0.006
  -0.11111111  0.33333333  0.00000000       0.006
  -0.00000000  0.44444444  0.00000000       0.006
   0.11111111  0.44444444  0.00000000       0.006
   0.22222222  0.44444444  0.00000000       0.006
   0.33333333  0.44444444  0.00000000       0.006
   0.44444444  0.44444444  0.00000000       0.006
  -0.44444444  0.44444444  0.00000000       0.006
  -0.33333333  0.44444444  0.00000000       0.006
  -0.22222222  0.44444444  0.00000000       0.006
  -0.11111111  0.44444444  0.00000000       0.006
   0.00000000  0.00000000  0.25000000       0.006
   0.11111111  0.00000000  0.25000000       0.006
   0.22222222  0.00000000  0.25000000       0.006
   0.33333333  0.00000000  0.25000000       0.006
   0.44444444  0.00000000  0.25000000       0.006
  -0.44444444 -0.00000000  0.25000000       0.006
  -0.33333333  0.00000000  0.25000000       0.006
  -0.22222222 -0.00000000  0.25000000       0.006
  -0.11111111 -0.00000000  0.25000000       0.006
  -0.00000000  0.11111111  0.25000000       0.006
   0.11111111  0.11111111  0.25000000       0.006
   0.22222222  0.11111111  0.25000000       0.006
   0.33333333  0.11111111  0.25000000       0.006
   0.44444444  0.11111111  0.25000000       0.006
  -0.44444444  0.11111111  0.25000000       0.006
  -0.33333333  0.11111111  0.25000000       0.006
  -0.22222222  0.11111111  0.25000000       0.006
  -0.11111111  0.11111111  0.25000000       0.006
  -0.00000000  0.22222222  0.25000000       0.006
   0.11111111  0.22222222  0.25000000       0.006
   0.22222222  0.22222222  0.25000000       0.006
   0.33333333  0.22222222  0.25000000       0.006
   0.44444444  0.22222222  0.25000000       0.006
  -0.44444444  0.22222222  0.25000000       0.006
  -0.33333333  0.22222222  0.25000000       0.006
  -0.22222222  0.22222222  0.25000000       0.006
  -0.11111111  0.22222222  0.25000000       0.006
   0.00000000  0.33333333  0.25000000       0.006
   0.11111111  0.33333333  0.25000000       0.006
   0.22222222  0.33333333  0.25000000       0.006
   0.33333333  0.33333333  0.25000000       0.006
   0.44444444  0.33333333  0.25000000       0.006
  -0.44444444  0.33333333  0.25000000       0.006
  -0.33333333  0.33333333  0.25000000       0.006
  -0.22222222  0.33333333  0.25000000       0.006
  -0.11111111  0.33333333  0.25000000       0.006
  -0.00000000  0.44444444  0.25000000       0.006
   0.11111111  0.44444444  0.25000000       0.006
   0.22222222  0.44444444  0.25000000       0.006
   0.33333333  0.44444444  0.25000000       0.006
   0.44444444  0.44444444  0.25000000       0.006
  -0.44444444  0.44444444  0.25000000       0.006
  -0.33333333  0.44444444  0.25000000       0.006
  -0.22222222  0.44444444  0.25000000       0.006
  -0.11111111  0.44444444  0.25000000       0.006
   0.00000000 -0.44444444  0.25000000       0.006
   0.11111111 -0.44444444  0.25000000       0.006
   0.22222222 -0.44444444  0.25000000       0.006
   0.33333333 -0.44444444  0.25000000       0.006
   0.44444444 -0.44444444  0.25000000       0.006
  -0.44444444 -0.44444444  0.25000000       0.006
  -0.33333333 -0.44444444  0.25000000       0.006
  -0.22222222 -0.44444444  0.25000000       0.006
  -0.11111111 -0.44444444  0.25000000       0.006
  -0.00000000 -0.33333333  0.25000000       0.006
   0.11111111 -0.33333333  0.25000000       0.006
   0.22222222 -0.33333333  0.25000000       0.006
   0.33333333 -0.33333333  0.25000000       0.006
   0.44444444 -0.33333333  0.25000000       0.006
  -0.44444444 -0.33333333  0.25000000       0.006
  -0.33333333 -0.33333333  0.25000000       0.006
  -0.22222222 -0.33333333  0.25000000       0.006
  -0.11111111 -0.33333333  0.25000000       0.006
   0.00000000 -0.22222222  0.25000000       0.006
   0.11111111 -0.22222222  0.25000000       0.006
   0.22222222 -0.22222222  0.25000000       0.006
   0.33333333 -0.22222222  0.25000000       0.006
   0.44444444 -0.22222222  0.25000000       0.006
  -0.44444444 -0.22222222  0.25000000       0.006
  -0.33333333 -0.22222222  0.25000000       0.006
  -0.22222222 -0.22222222  0.25000000       0.006
  -0.11111111 -0.22222222  0.25000000       0.006
   0.00000000 -0.11111111  0.25000000       0.006
   0.11111111 -0.11111111  0.25000000       0.006
   0.22222222 -0.11111111  0.25000000       0.006
   0.33333333 -0.11111111  0.25000000       0.006
   0.44444444 -0.11111111  0.25000000       0.006
  -0.44444444 -0.11111111  0.25000000       0.006
  -0.33333333 -0.11111111  0.25000000       0.006
  -0.22222222 -0.11111111  0.25000000       0.006
  -0.11111111 -0.11111111  0.25000000       0.006
   0.00000000  0.00000000  0.50000000       0.003
   0.11111111  0.00000000  0.50000000       0.006
   0.22222222  0.00000000  0.50000000       0.006
   0.33333333  0.00000000  0.50000000       0.006
   0.44444444  0.00000000  0.50000000       0.006
  -0.00000000  0.11111111  0.50000000       0.006
   0.11111111  0.11111111  0.50000000       0.006
   0.22222222  0.11111111  0.50000000       0.006
   0.33333333  0.11111111  0.50000000       0.006
   0.44444444  0.11111111  0.50000000       0.006
  -0.44444444  0.11111111  0.50000000       0.006
  -0.33333333  0.11111111  0.50000000       0.006
  -0.22222222  0.11111111  0.50000000       0.006
  -0.11111111  0.11111111  0.50000000       0.006
  -0.00000000  0.22222222  0.50000000       0.006
   0.11111111  0.22222222  0.50000000       0.006
   0.22222222  0.22222222  0.50000000       0.006
   0.33333333  0.22222222  0.50000000       0.006
   0.44444444  0.22222222  0.50000000       0.006
  -0.44444444  0.22222222  0.50000000       0.006
  -0.33333333  0.22222222  0.50000000       0.006
  -0.22222222  0.22222222  0.50000000       0.006
  -0.11111111  0.22222222  0.50000000       0.006
   0.00000000  0.33333333  0.50000000       0.006
   0.11111111  0.33333333  0.50000000       0.006
   0.22222222  0.33333333  0.50000000       0.006
   0.33333333  0.33333333  0.50000000       0.006
   0.44444444  0.33333333  0.50000000       0.006
  -0.44444444  0.33333333  0.50000000       0.006
  -0.33333333  0.33333333  0.50000000       0.006
  -0.22222222  0.33333333  0.50000000       0.006
  -0.11111111  0.33333333  0.50000000       0.006
  -0.00000000  0.44444444  0.50000000       0.006
   0.11111111  0.44444444  0.50000000       0.006
   0.22222222  0.44444444  0.50000000       0.006
   0.33333333  0.44444444  0.50000000       0.006
   0.44444444  0.44444444  0.50000000       0.006
  -0.44444444  0.44444444  0.50000000       0.006
  -0.33333333  0.44444444  0.50000000       0.006
  -0.22222222  0.44444444  0.50000000       0.006
  -0.11111111  0.44444444  0.50000000       0.006
 
 position of ions in fractional coordinates (direct lattice) 
   0.50036775  0.00032672  0.12569444
   0.99967330  0.00032672  0.12500000
   0.49967330  0.50032672  0.12500000
   0.99967330  0.50032672  0.12500000
   0.49967330  0.00032672  0.62500000
   0.99967330  0.00032672  0.62500000
   0.49967330  0.50032672  0.62500000
   0.99967330  0.50032672  0.62500000
   0.00032672  0.49967330  0.37500000
   0.50032672  0.49967330  0.37500000
   0.00032672  0.99967330  0.37500000
   0.50032672  0.99967330  0.37500000
   0.00032672  0.49967330  0.87500000
   0.50032672  0.49967330  0.87500000
   0.00032672  0.99967330  0.87500000
   0.50032672  0.99967330  0.87500000
   0.16629246  0.33370753  0.12500000
   0.66629246  0.33370753  0.12500000
   0.16629246  0.83370753  0.12500000
   0.66629246  0.83370753  0.12500000
   0.16629246  0.33370753  0.62500000
   0.66629246  0.33370753  0.62500000
   0.16629246  0.83370753  0.62500000
   0.66629246  0.83370753  0.62500000
   0.33370753  0.16629246  0.37500000
   0.83370753  0.16629246  0.37500000
   0.33370753  0.66629246  0.37500000
   0.83370753  0.66629246  0.37500000
   0.33370753  0.16629246  0.87500000
   0.83370753  0.16629246  0.87500000
   0.33370753  0.66629246  0.87500000
   0.83370753  0.66629246  0.87500000
 
 position of ions in cartesian coordinates  (Angst):
   2.46744493  0.00043508  1.70049140
   4.93045658 -0.00052323  1.69109644
   1.22996963  2.13595390  1.69109644
   3.69640688  2.13499426  1.69109644
   2.46401933  0.00043641  8.45548218
   4.93045658 -0.00052323  8.45548218
   1.22996963  2.13595390  8.45548218
   3.69640688  2.13499426  8.45548218
  -1.23163172  2.13412154  5.07328931
   1.23480553  2.13316189  5.07328931
  -2.46568142  4.26963903  5.07328931
   0.00075583  4.26867939  5.07328931
  -1.23163172  2.13412154 11.83767505
   1.23480553  2.13316189 11.83767505
  -2.46568142  4.26963903 11.83767505
   0.00075583  4.26867939 11.83767505
  -0.00332350  1.42495737  1.69109644
   2.46311374  1.42399773  1.69109644
  -1.23737320  3.56047486  1.69109644
   1.22906405  3.55951522  1.69109644
  -0.00332350  1.42495737  8.45548218
   2.46311374  1.42399773  8.45548218
  -1.23737320  3.56047486  8.45548218
   1.22906405  3.55951522  8.45548218
   1.23571103  0.70960044  5.07328931
   3.70214828  0.70864080  5.07328931
   0.00166133  2.84511794  5.07328931
   2.46809858  2.84415829  5.07328931
   1.23571103  0.70960044 11.83767505
   3.70214828  0.70864080 11.83767505
   0.00166133  2.84511794 11.83767505
   2.46809858  2.84415829 11.83767505
 


--------------------------------------------------------------------------------------------------------


 k-point  1 :   0.0000 0.0000 0.0000  plane waves:    9427
 k-point  2 :   0.1111 0.0000 0.0000  plane waves:    9481
 k-point  3 :   0.2222 0.0000 0.0000  plane waves:    9505
 k-point  4 :   0.3333 0.0000 0.0000  plane waves:    9509
 k-point  5 :   0.4444 0.0000 0.0000  plane waves:    9527
 k-point  6 :  -0.0000 0.1111 0.0000  plane waves:    9481
 k-point  7 :   0.1111 0.1111 0.0000  plane waves:    9490
 k-point  8 :   0.2222 0.1111 0.0000  plane waves:    9508
 k-point  9 :   0.3333 0.1111 0.0000  plane waves:    9518
 k-point 10 :   0.4444 0.1111 0.0000  plane waves:    9534
 k-point 11 :  -0.4444 0.1111 0.0000  plane waves:    9520
 k-point 12 :  -0.3333 0.1111 0.0000  plane waves:    9508
 k-point 13 :  -0.2222 0.1111 0.0000  plane waves:    9488
 k-point 14 :  -0.1111 0.1111 0.0000  plane waves:    9481
 k-point 15 :  -0.0000 0.2222 0.0000  plane waves:    9505
 k-point 16 :   0.1111 0.2222 0.0000  plane waves:    9508
 k-point 17 :   0.2222 0.2222 0.0000  plane waves:    9508
 k-point 18 :   0.3333 0.2222 0.0000  plane waves:    9502
 k-point 19 :   0.4444 0.2222 0.0000  plane waves:    9500
 k-point 20 :  -0.4444 0.2222 0.0000  plane waves:    9508
 k-point 21 :  -0.3333 0.2222 0.0000  plane waves:    9510
 k-point 22 :  -0.2222 0.2222 0.0000  plane waves:    9503
 k-point 23 :  -0.1111 0.2222 0.0000  plane waves:    9488
 k-point 24 :   0.0000 0.3333 0.0000  plane waves:    9509
 k-point 25 :   0.1111 0.3333 0.0000  plane waves:    9518
 k-point 26 :   0.2222 0.3333 0.0000  plane waves:    9502
 k-point 27 :   0.3333 0.3333 0.0000  plane waves:    9508
 k-point 28 :   0.4444 0.3333 0.0000  plane waves:    9504
 k-point 29 :  -0.4444 0.3333 0.0000  plane waves:    9518
 k-point 30 :  -0.3333 0.3333 0.0000  plane waves:    9507
 k-point 31 :  -0.2222 0.3333 0.0000  plane waves:    9510
 k-point 32 :  -0.1111 0.3333 0.0000  plane waves:    9508
 k-point 33 :  -0.0000 0.4444 0.0000  plane waves:    9527
 k-point 34 :   0.1111 0.4444 0.0000  plane waves:    9534
 k-point 35 :   0.2222 0.4444 0.0000  plane waves:    9500
 k-point 36 :   0.3333 0.4444 0.0000  plane waves:    9504
 k-point 37 :   0.4444 0.4444 0.0000  plane waves:    9538
 k-point 38 :  -0.4444 0.4444 0.0000  plane waves:    9531
 k-point 39 :  -0.3333 0.4444 0.0000  plane waves:    9518
 k-point 40 :  -0.2222 0.4444 0.0000  plane waves:    9508
 k-point 41 :  -0.1111 0.4444 0.0000  plane waves:    9520
 k-point 42 :   0.0000 0.0000 0.2500  plane waves:    9466
 k-point 43 :   0.1111 0.0000 0.2500  plane waves:    9488
 k-point 44 :   0.2222 0.0000 0.2500  plane waves:    9508
 k-point 45 :   0.3333 0.0000 0.2500  plane waves:    9521
 k-point 46 :   0.4444 0.0000 0.2500  plane waves:    9528
 k-point 47 :  -0.4444-0.0000 0.2500  plane waves:    9528
 k-point 48 :  -0.3333 0.0000 0.2500  plane waves:    9521
 k-point 49 :  -0.2222-0.0000 0.2500  plane waves:    9508
 k-point 50 :  -0.1111-0.0000 0.2500  plane waves:    9488
 k-point 51 :  -0.0000 0.1111 0.2500  plane waves:    9488
 k-point 52 :   0.1111 0.1111 0.2500  plane waves:    9488
 k-point 53 :   0.2222 0.1111 0.2500  plane waves:    9511
 k-point 54 :   0.3333 0.1111 0.2500  plane waves:    9511
 k-point 55 :   0.4444 0.1111 0.2500  plane waves:    9518
 k-point 56 :  -0.4444 0.1111 0.2500  plane waves:    9510
 k-point 57 :  -0.3333 0.1111 0.2500  plane waves:    9513
 k-point 58 :  -0.2222 0.1111 0.2500  plane waves:    9493
 k-point 59 :  -0.1111 0.1111 0.2500  plane waves:    9481
 k-point 60 :  -0.0000 0.2222 0.2500  plane waves:    9508
 k-point 61 :   0.1111 0.2222 0.2500  plane waves:    9511
 k-point 62 :   0.2222 0.2222 0.2500  plane waves:    9523
 k-point 63 :   0.3333 0.2222 0.2500  plane waves:    9521
 k-point 64 :   0.4444 0.2222 0.2500  plane waves:    9515
 k-point 65 :  -0.4444 0.2222 0.2500  plane waves:    9520
 k-point 66 :  -0.3333 0.2222 0.2500  plane waves:    9513
 k-point 67 :  -0.2222 0.2222 0.2500  plane waves:    9501
 k-point 68 :  -0.1111 0.2222 0.2500  plane waves:    9493
 k-point 69 :   0.0000 0.3333 0.2500  plane waves:    9521
 k-point 70 :   0.1111 0.3333 0.2500  plane waves:    9511
 k-point 71 :   0.2222 0.3333 0.2500  plane waves:    9521
 k-point 72 :   0.3333 0.3333 0.2500  plane waves:    9517
 k-point 73 :   0.4444 0.3333 0.2500  plane waves:    9520
 k-point 74 :  -0.4444 0.3333 0.2500  plane waves:    9516
 k-point 75 :  -0.3333 0.3333 0.2500  plane waves:    9524
 k-point 76 :  -0.2222 0.3333 0.2500  plane waves:    9513
 k-point 77 :  -0.1111 0.3333 0.2500  plane waves:    9513
 k-point 78 :  -0.0000 0.4444 0.2500  plane waves:    9528
 k-point 79 :   0.1111 0.4444 0.2500  plane waves:    9518
 k-point 80 :   0.2222 0.4444 0.2500  plane waves:    9515
 k-point 81 :   0.3333 0.4444 0.2500  plane waves:    9520
 k-point 82 :   0.4444 0.4444 0.2500  plane waves:    9513
 k-point 83 :  -0.4444 0.4444 0.2500  plane waves:    9530
 k-point 84 :  -0.3333 0.4444 0.2500  plane waves:    9516
 k-point 85 :  -0.2222 0.4444 0.2500  plane waves:    9520
 k-point 86 :  -0.1111 0.4444 0.2500  plane waves:    9510
 k-point 87 :   0.0000-0.4444 0.2500  plane waves:    9528
 k-point 88 :   0.1111-0.4444 0.2500  plane waves:    9510
 k-point 89 :   0.2222-0.4444 0.2500  plane waves:    9520
 k-point 90 :   0.3333-0.4444 0.2500  plane waves:    9516
 k-point 91 :   0.4444-0.4444 0.2500  plane waves:    9530
 k-point 92 :  -0.4444-0.4444 0.2500  plane waves:    9513
 k-point 93 :  -0.3333-0.4444 0.2500  plane waves:    9520
 k-point 94 :  -0.2222-0.4444 0.2500  plane waves:    9515
 k-point 95 :  -0.1111-0.4444 0.2500  plane waves:    9518
 k-point 96 :  -0.0000-0.3333 0.2500  plane waves:    9521
 k-point 97 :   0.1111-0.3333 0.2500  plane waves:    9513
 k-point 98 :   0.2222-0.3333 0.2500  plane waves:    9513
 k-point 99 :   0.3333-0.3333 0.2500  plane waves:    9524
 k-point ** :   0.4444-0.3333 0.2500  plane waves:    9516
 k-point ** :  -0.4444-0.3333 0.2500  plane waves:    9520
 k-point ** :  -0.3333-0.3333 0.2500  plane waves:    9517
 k-point ** :  -0.2222-0.3333 0.2500  plane waves:    9521
 k-point ** :  -0.1111-0.3333 0.2500  plane waves:    9511
 k-point ** :   0.0000-0.2222 0.2500  plane waves:    9508
 k-point ** :   0.1111-0.2222 0.2500  plane waves:    9493
 k-point ** :   0.2222-0.2222 0.2500  plane waves:    9501
 k-point ** :   0.3333-0.2222 0.2500  plane waves:    9513
 k-point ** :   0.4444-0.2222 0.2500  plane waves:    9520
 k-point ** :  -0.4444-0.2222 0.2500  plane waves:    9515
 k-point ** :  -0.3333-0.2222 0.2500  plane waves:    9521
 k-point ** :  -0.2222-0.2222 0.2500  plane waves:    9523
 k-point ** :  -0.1111-0.2222 0.2500  plane waves:    9511
 k-point ** :   0.0000-0.1111 0.2500  plane waves:    9488
 k-point ** :   0.1111-0.1111 0.2500  plane waves:    9481
 k-point ** :   0.2222-0.1111 0.2500  plane waves:    9493
 k-point ** :   0.3333-0.1111 0.2500  plane waves:    9513
 k-point ** :   0.4444-0.1111 0.2500  plane waves:    9510
 k-point ** :  -0.4444-0.1111 0.2500  plane waves:    9518
 k-point ** :  -0.3333-0.1111 0.2500  plane waves:    9511
 k-point ** :  -0.2222-0.1111 0.2500  plane waves:    9511
 k-point ** :  -0.1111-0.1111 0.2500  plane waves:    9488
 k-point ** :   0.0000 0.0000 0.5000  plane waves:    9402
 k-point ** :   0.1111 0.0000 0.5000  plane waves:    9494
 k-point ** :   0.2222 0.0000 0.5000  plane waves:    9510
 k-point ** :   0.3333 0.0000 0.5000  plane waves:    9532
 k-point ** :   0.4444 0.0000 0.5000  plane waves:    9512
 k-point ** :  -0.0000 0.1111 0.5000  plane waves:    9494
 k-point ** :   0.1111 0.1111 0.5000  plane waves:    9482
 k-point ** :   0.2222 0.1111 0.5000  plane waves:    9502
 k-point ** :   0.3333 0.1111 0.5000  plane waves:    9506
 k-point ** :   0.4444 0.1111 0.5000  plane waves:    9534
 k-point ** :  -0.4444 0.1111 0.5000  plane waves:    9512
 k-point ** :  -0.3333 0.1111 0.5000  plane waves:    9502
 k-point ** :  -0.2222 0.1111 0.5000  plane waves:    9488
 k-point ** :  -0.1111 0.1111 0.5000  plane waves:    9490
 k-point ** :  -0.0000 0.2222 0.5000  plane waves:    9510
 k-point ** :   0.1111 0.2222 0.5000  plane waves:    9502
 k-point ** :   0.2222 0.2222 0.5000  plane waves:    9498
 k-point ** :   0.3333 0.2222 0.5000  plane waves:    9534
 k-point ** :   0.4444 0.2222 0.5000  plane waves:    9530
 k-point ** :  -0.4444 0.2222 0.5000  plane waves:    9508
 k-point ** :  -0.3333 0.2222 0.5000  plane waves:    9504
 k-point ** :  -0.2222 0.2222 0.5000  plane waves:    9512
 k-point ** :  -0.1111 0.2222 0.5000  plane waves:    9488
 k-point ** :   0.0000 0.3333 0.5000  plane waves:    9532
 k-point ** :   0.1111 0.3333 0.5000  plane waves:    9506
 k-point ** :   0.2222 0.3333 0.5000  plane waves:    9534
 k-point ** :   0.3333 0.3333 0.5000  plane waves:    9540
 k-point ** :   0.4444 0.3333 0.5000  plane waves:    9528
 k-point ** :  -0.4444 0.3333 0.5000  plane waves:    9512
 k-point ** :  -0.3333 0.3333 0.5000  plane waves:    9538
 k-point ** :  -0.2222 0.3333 0.5000  plane waves:    9504
 k-point ** :  -0.1111 0.3333 0.5000  plane waves:    9502
 k-point ** :  -0.0000 0.4444 0.5000  plane waves:    9512
 k-point ** :   0.1111 0.4444 0.5000  plane waves:    9534
 k-point ** :   0.2222 0.4444 0.5000  plane waves:    9530
 k-point ** :   0.3333 0.4444 0.5000  plane waves:    9528
 k-point ** :   0.4444 0.4444 0.5000  plane waves:    9544
 k-point ** :  -0.4444 0.4444 0.5000  plane waves:    9518
 k-point ** :  -0.3333 0.4444 0.5000  plane waves:    9512
 k-point ** :  -0.2222 0.4444 0.5000  plane waves:    9508
 k-point ** :  -0.1111 0.4444 0.5000  plane waves:    9512

 maximum and minimum number of plane-waves per node :      9544     9402

 maximum number of plane-waves:      9544
 maximum index in each direction: 
   IXMAX=   10   IYMAX=   10   IZMAX=   27
   IXMIN=  -10   IYMIN=  -10   IZMIN=  -27

 WARNING: aliasing errors must be expected set NGX to  42 to avoid them
 WARNING: aliasing errors must be expected set NGY to  42 to avoid them
 WARNING: aliasing errors must be expected set NGZ to 110 to avoid them
 aliasing errors are usually negligible using standard VASP settings
 and one can safely disregard these warnings

 serial   3D FFT for wavefunctions
 parallel 3D FFT for charge:
    minimum data exchange during FFTs selected (reduces bandwidth)


 total amount of memory used by VASP on root node   519936. kBytes
========================================================================

   base      :      30000. kBytes
   nonl-proj :     104471. kBytes
   fftplans  :       8783. kBytes
   grid      :      18621. kBytes
   one-center:         98. kBytes
   wavefun   :     357963. kBytes
 
     INWAV:  cpu time    0.00: real time    0.00
 Broyden mixing: mesh for mixing (old mesh)
   NGX = 19   NGY = 19   NGZ = 55
  (NGX  = 80   NGY  = 80   NGZ  =216)
  gives a total of  19855 points

 initial charge density was supplied:
 charge density of overlapping atoms calculated
 number of electron     128.0000000 magnetization 
 keeping initial charge density in first step


--------------------------------------------------------------------------------------------------------


 Maximum index for augmentation-charges         1410 (set IRDMAX)


--------------------------------------------------------------------------------------------------------


 First call to EWALD:  gamma=   0.269
 Maximum number of real-space cells 4x 4x 2
 Maximum number of reciprocal cells 2x 2x 5

 FEWALD executed in parallel
    FEWALD:  cpu time    0.00: real time    0.00


----------------------------------------- Iteration    1(   1)  ---------------------------------------


    POTLOK:  cpu time    0.15: real time    0.15
    SETDIJ:  cpu time    0.01: real time    0.01
     EDDAV:  cpu time   92.97: real time   93.02
 BZINTS: Fermi energy: 15.815158;128.000000 electrons
         Band energy:  48.121363;  BLOECHL correction: -0.115113
       DOS:  cpu time    0.13: real time    0.13
    --------------------------------------------
      LOOP:  cpu time   93.26: real time   93.33

 eigenvalue-minimisations  : 27384
 total energy-change (2. order) : 0.5958371E+03  (-0.7166035E+04)
 number of electron     128.0000000 magnetization 
 augmentation part      128.0000000 magnetization 

 Free energy of the ion-electron system (eV)
  ---------------------------------------------------
  alpha Z        PSCENC =       292.79115404
  Ewald energy   TEWEN  =     -3645.74778869
  -Hartree energ DENC   =     -1214.31312035
  -exchange      EXHF   =         0.00000000
  -V(xc)+E(xc)   XCENC  =       442.99164862
  PAW double counting   =      1210.60617908    -1247.42152856
  entropy T*S    EENTRO =         0.00000000
  eigenvalues    EBANDS =        48.12136331
  atomic energy  EATOM  =      4708.80920826
  ---------------------------------------------------
  free energy    TOTEN  =       595.83711571 eV

  energy without entropy =      595.83711571  energy(sigma->0) =      595.83711571


--------------------------------------------------------------------------------------------------------




----------------------------------------- Iteration    1(   2)  ---------------------------------------


     EDDAV:  cpu time  111.94: real time  112.00
 BZINTS: Fermi energy:  3.671613;128.000000 electrons
         Band energy:-810.610212;  BLOECHL correction: -0.000000
       DOS:  cpu time    0.06: real time    0.06
    --------------------------------------------
      LOOP:  cpu time  112.00: real time  112.06

 eigenvalue-minimisations  : 34260
 total energy-change (2. order) :-0.8587316E+03  (-0.8279531E+03)
 number of electron     128.0000000 magnetization 
 augmentation part      128.0000000 magnetization 

 Free energy of the ion-electron system (eV)
  ---------------------------------------------------
  alpha Z        PSCENC =       292.79115404
  Ewald energy   TEWEN  =     -3645.74778869
  -Hartree energ DENC   =     -1214.31312035
  -exchange      EXHF   =         0.00000000
  -V(xc)+E(xc)   XCENC  =       442.99164862
  PAW double counting   =      1210.60617908    -1247.42152856
  entropy T*S    EENTRO =         0.00000000
  eigenvalues    EBANDS =      -810.61021234
  atomic energy  EATOM  =      4708.80920826
  ---------------------------------------------------
  free energy    TOTEN  =      -262.89445994 eV

  energy without entropy =     -262.89445994  energy(sigma->0) =     -262.89445994


--------------------------------------------------------------------------------------------------------




----------------------------------------- Iteration    1(   3)  ---------------------------------------


     EDDAV:  cpu time  108.53: real time  108.59
 BZINTS: Fermi energy:  3.101913;128.000000 electrons
         Band energy:-860.479076;  BLOECHL correction: -0.000002
       DOS:  cpu time    0.07: real time    0.08
    --------------------------------------------
      LOOP:  cpu time  108.61: real time  108.67

 eigenvalue-minimisations  : 33312
 total energy-change (2. order) :-0.4986886E+02  (-0.4940318E+02)
 number of electron     128.0000000 magnetization 
 augmentation part      128.0000000 magnetization 

 Free energy of the ion-electron system (eV)
  ---------------------------------------------------
  alpha Z        PSCENC =       292.79115404
  Ewald energy   TEWEN  =     -3645.74778869
  -Hartree energ DENC   =     -1214.31312035
  -exchange      EXHF   =         0.00000000
  -V(xc)+E(xc)   XCENC  =       442.99164862
  PAW double counting   =      1210.60617908    -1247.42152856
  entropy T*S    EENTRO =         0.00000000
  eigenvalues    EBANDS =      -860.47907636
  atomic energy  EATOM  =      4708.80920826
  ---------------------------------------------------
  free energy    TOTEN  =      -312.76332397 eV

  energy without entropy =     -312.76332397  energy(sigma->0) =     -312.76332397


--------------------------------------------------------------------------------------------------------




----------------------------------------- Iteration    1(   4)  ---------------------------------------


     EDDAV:  cpu time  113.52: real time  113.58
 BZINTS: Fermi energy:  3.097494;128.000000 electrons
         Band energy:-861.425008;  BLOECHL correction:  0.000000
       DOS:  cpu time    0.05: real time    0.05
    --------------------------------------------
      LOOP:  cpu time  113.57: real time  113.63

 eigenvalue-minimisations  : 35136
 total energy-change (2. order) :-0.9459318E+00  (-0.9442044E+00)
 number of electron     128.0000000 magnetization 
 augmentation part      128.0000000 magnetization 

 Free energy of the ion-electron system (eV)
  ---------------------------------------------------
  alpha Z        PSCENC =       292.79115404
  Ewald energy   TEWEN  =     -3645.74778869
  -Hartree energ DENC   =     -1214.31312035
  -exchange      EXHF   =         0.00000000
  -V(xc)+E(xc)   XCENC  =       442.99164862
  PAW double counting   =      1210.60617908    -1247.42152856
  entropy T*S    EENTRO =         0.00000000
  eigenvalues    EBANDS =      -861.42500819
  atomic energy  EATOM  =      4708.80920826
  ---------------------------------------------------
  free energy    TOTEN  =      -313.70925579 eV

  energy without entropy =     -313.70925579  energy(sigma->0) =     -313.70925579


--------------------------------------------------------------------------------------------------------




----------------------------------------- Iteration    1(   5)  ---------------------------------------


     EDDAV:  cpu time  112.66: real time  112.71
 BZINTS: Fermi energy:  3.099005;128.000000 electrons
         Band energy:-861.452048;  BLOECHL correction:  0.000000
       DOS:  cpu time    0.04: real time    0.04
    CHARGE:  cpu time    4.16: real time    4.17
    MIXING:  cpu time    0.00: real time    0.00
    --------------------------------------------
      LOOP:  cpu time  116.86: real time  116.93

 eigenvalue-minimisations  : 35124
 total energy-change (2. order) :-0.2704014E-01  (-0.2702869E-01)
 number of electron     128.0000014 magnetization 
 augmentation part        3.4006289 magnetization 

 Broyden mixing:
  rms(total) = 0.22084E+01    rms(broyden)= 0.22081E+01
  rms(prec ) = 0.26040E+01
  weight for this iteration     100.00

 Free energy of the ion-electron system (eV)
  ---------------------------------------------------
  alpha Z        PSCENC =       292.79115404
  Ewald energy   TEWEN  =     -3645.74778869
  -Hartree energ DENC   =     -1214.31312035
  -exchange      EXHF   =         0.00000000
  -V(xc)+E(xc)   XCENC  =       442.99164862
  PAW double counting   =      1210.60617908    -1247.42152856
  entropy T*S    EENTRO =         0.00000000
  eigenvalues    EBANDS =      -861.45204833
  atomic energy  EATOM  =      4708.80920826
  ---------------------------------------------------
  free energy    TOTEN  =      -313.73629593 eV

  energy without entropy =     -313.73629593  energy(sigma->0) =     -313.73629593


--------------------------------------------------------------------------------------------------------




----------------------------------------- Iteration    1(   6)  ---------------------------------------


    POTLOK:  cpu time    0.15: real time    0.15
    SETDIJ:  cpu time    0.01: real time    0.01
     EDDAV:  cpu time  101.33: real time  101.38
 BZINTS: Fermi energy:  3.863056;128.000000 electrons
         Band energy:-720.484216;  BLOECHL correction:  0.000000
       DOS:  cpu time    0.05: real time    0.05
    CHARGE:  cpu time    4.33: real time    4.33
    MIXING:  cpu time    0.00: real time    0.00
    --------------------------------------------
      LOOP:  cpu time  105.87: real time  105.93

 eigenvalue-minimisations  : 31296
 total energy-change (2. order) : 0.1448896E+02  (-0.1494017E+01)
 number of electron     128.0000013 magnetization 
 augmentation part        3.2445576 magnetization 

 Broyden mixing:
  rms(total) = 0.11582E+01    rms(broyden)= 0.11582E+01
  rms(prec ) = 0.13566E+01
  weight for this iteration     100.00

 eigenvalues of (default mixing * dielectric matrix)
  average eigenvalue GAMMA=   2.0335
  2.0335

 Free energy of the ion-electron system (eV)
  ---------------------------------------------------
  alpha Z        PSCENC =       292.79115404
  Ewald energy   TEWEN  =     -3645.74778869
  -Hartree energ DENC   =     -1346.24402118
  -exchange      EXHF   =         0.00000000
  -V(xc)+E(xc)   XCENC  =       451.37511076
  PAW double counting   =      1642.02667829    -1681.77345927
  entropy T*S    EENTRO =         0.00000000
  eigenvalues    EBANDS =      -720.48421608
  atomic energy  EATOM  =      4708.80920826
  ---------------------------------------------------
  free energy    TOTEN  =      -299.24733388 eV

  energy without entropy =     -299.24733388  energy(sigma->0) =     -299.24733388


--------------------------------------------------------------------------------------------------------




----------------------------------------- Iteration    1(   7)  ---------------------------------------


    POTLOK:  cpu time    0.15: real time    0.15
    SETDIJ:  cpu time    0.01: real time    0.01
     EDDAV:  cpu time  100.73: real time  100.79
 BZINTS: Fermi energy:  4.612101;128.000000 electrons
         Band energy:-576.513587;  BLOECHL correction:  0.000000
       DOS:  cpu time    0.03: real time    0.03
    CHARGE:  cpu time    4.14: real time    4.14
    MIXING:  cpu time    0.00: real time    0.00
    --------------------------------------------
      LOOP:  cpu time  105.07: real time  105.12

 eigenvalue-minimisations  : 30852
 total energy-change (2. order) : 0.4598172E+01  (-0.1572224E+01)
 number of electron     128.0000011 magnetization 
 augmentation part        3.0787317 magnetization 

 Broyden mixing:
  rms(total) = 0.19394E+00    rms(broyden)= 0.19380E+00
  rms(prec ) = 0.20741E+00
  weight for this iteration     100.00

 eigenvalues of (default mixing * dielectric matrix)
  average eigenvalue GAMMA=   2.1733
  2.1733  2.1733

 Free energy of the ion-electron system (eV)
  ---------------------------------------------------
  alpha Z        PSCENC =       292.79115404
  Ewald energy   TEWEN  =     -3645.74778869
  -Hartree energ DENC   =     -1492.77104576
  -exchange      EXHF   =         0.00000000
  -V(xc)+E(xc)   XCENC  =       460.91940482
  PAW double counting   =      2180.60932633    -2222.74583400
  entropy T*S    EENTRO =         0.00000000
  eigenvalues    EBANDS =      -576.51358674
  atomic energy  EATOM  =      4708.80920826
  ---------------------------------------------------
  free energy    TOTEN  =      -294.64916174 eV

  energy without entropy =     -294.64916174  energy(sigma->0) =     -294.64916174


--------------------------------------------------------------------------------------------------------




----------------------------------------- Iteration    1(   8)  ---------------------------------------


    POTLOK:  cpu time    0.15: real time    0.15
    SETDIJ:  cpu time    0.01: real time    0.01
     EDDAV:  cpu time  101.45: real time  101.50
 BZINTS: Fermi energy:  4.580004;128.000000 electrons
         Band energy:-579.537263;  BLOECHL correction:  0.000000
       DOS:  cpu time    0.04: real time    0.04
    CHARGE:  cpu time    4.15: real time    4.15
    MIXING:  cpu time    0.00: real time    0.00
    --------------------------------------------
      LOOP:  cpu time  105.80: real time  105.86

 eigenvalue-minimisations  : 30900
 total energy-change (2. order) :-0.6488624E-01  (-0.4029368E-01)
 number of electron     128.0000011 magnetization 
 augmentation part        3.0727398 magnetization 

 Broyden mixing:
  rms(total) = 0.31151E-01    rms(broyden)= 0.31123E-01
  rms(prec ) = 0.44272E-01
  weight for this iteration     100.00

 eigenvalues of (default mixing * dielectric matrix)
  average eigenvalue GAMMA=   1.7227
  2.4219  2.0071  0.7391

 Free energy of the ion-electron system (eV)
  ---------------------------------------------------
  alpha Z        PSCENC =       292.79115404
  Ewald energy   TEWEN  =     -3645.74778869
  -Hartree energ DENC   =     -1490.47332111
  -exchange      EXHF   =         0.00000000
  -V(xc)+E(xc)   XCENC  =       460.79368304
  PAW double counting   =      2211.54129694    -2252.89101697
  entropy T*S    EENTRO =         0.00000000
  eigenvalues    EBANDS =      -579.53726349
  atomic energy  EATOM  =      4708.80920826
  ---------------------------------------------------
  free energy    TOTEN  =      -294.71404797 eV

  energy without entropy =     -294.71404797  energy(sigma->0) =     -294.71404797


--------------------------------------------------------------------------------------------------------




----------------------------------------- Iteration    1(   9)  ---------------------------------------


    POTLOK:  cpu time    0.15: real time    0.15
    SETDIJ:  cpu time    0.01: real time    0.01
     EDDAV:  cpu time  106.63: real time  106.69
 BZINTS: Fermi energy:  4.595409;128.000000 electrons
         Band energy:-577.626156;  BLOECHL correction:  0.000000
       DOS:  cpu time    0.04: real time    0.04
    CHARGE:  cpu time    4.34: real time    4.34
    MIXING:  cpu time    0.00: real time    0.00
    --------------------------------------------
      LOOP:  cpu time  111.18: real time  111.24

 eigenvalue-minimisations  : 32772
 total energy-change (2. order) :-0.1116667E-02  (-0.2624682E-02)
 number of electron     128.0000011 magnetization 
 augmentation part        3.0695745 magnetization 

 Broyden mixing:
  rms(total) = 0.15685E-01    rms(broyden)= 0.15679E-01
  rms(prec ) = 0.22471E-01
  weight for this iteration     100.00

 eigenvalues of (default mixing * dielectric matrix)
  average eigenvalue GAMMA=   1.4774
  2.4703  1.9852  0.8571  0.5969

 Free energy of the ion-electron system (eV)
  ---------------------------------------------------
  alpha Z        PSCENC =       292.79115404
  Ewald energy   TEWEN  =     -3645.74778869
  -Hartree energ DENC   =     -1492.54402463
  -exchange      EXHF   =         0.00000000
  -V(xc)+E(xc)   XCENC  =       460.93785231
  PAW double counting   =      2219.89660519    -2261.23201555
  entropy T*S    EENTRO =         0.00000000
  eigenvalues    EBANDS =      -577.62615556
  atomic energy  EATOM  =      4708.80920826
  ---------------------------------------------------
  free energy    TOTEN  =      -294.71516464 eV

  energy without entropy =     -294.71516464  energy(sigma->0) =     -294.71516464


--------------------------------------------------------------------------------------------------------




----------------------------------------- Iteration    1(  10)  ---------------------------------------


    POTLOK:  cpu time    0.15: real time    0.15
    SETDIJ:  cpu time    0.01: real time    0.01
     EDDAV:  cpu time  105.51: real time  105.56
 BZINTS: Fermi energy:  4.596601;128.000000 electrons
         Band energy:-576.942553;  BLOECHL correction:  0.000000
       DOS:  cpu time    0.05: real time    0.05
    CHARGE:  cpu time    4.12: real time    4.13
    MIXING:  cpu time    0.00: real time    0.01
    --------------------------------------------
      LOOP:  cpu time  109.84: real time  109.90

 eigenvalue-minimisations  : 32496
 total energy-change (2. order) :-0.2836533E-03  (-0.4131541E-03)
 number of electron     128.0000011 magnetization 
 augmentation part        3.0684549 magnetization 

 Broyden mixing:
  rms(total) = 0.99830E-02    rms(broyden)= 0.99819E-02
  rms(prec ) = 0.13122E-01
  weight for this iteration     100.00

 eigenvalues of (default mixing * dielectric matrix)
  average eigenvalue GAMMA=   1.5328
  2.5037  2.0455  1.7013  0.9103  0.5033

 Free energy of the ion-electron system (eV)
[...]
     79      12.2017      0.00000
     80      12.2054      0.00000
     81      12.7011      0.00000
     82      12.7023      0.00000
     83      12.9874      0.00000
     84      13.0035      0.00000

 k-point   162 :      -0.2222    0.4444    0.5000
  band No.  band energies     occupation 
      1     -14.1007      2.00000
      2     -14.1004      2.00000
      3     -13.9121      2.00000
      4     -13.9118      2.00000
      5     -12.1680      2.00000
      6     -12.1666      2.00000
      7     -12.1617      2.00000
      8     -12.1604      2.00000
      9     -12.0027      2.00000
     10     -12.0013      2.00000
     11     -11.9965      2.00000
     12     -11.9950      2.00000
     13      -8.9190      2.00000
     14      -8.9174      2.00000
     15      -8.8492      2.00000
     16      -8.8476      2.00000
     17      -7.9438      2.00000
     18      -7.9408      2.00000
     19      -7.9037      2.00000
     20      -7.9002      2.00000
     21      -4.9453      2.00000
     22      -4.9422      2.00000
     23      -4.9349      2.00000
     24      -4.9333      2.00000
     25      -4.8628      2.00000
     26      -4.8601      2.00000
     27      -4.8530      2.00000
     28      -4.8512      2.00000
     29      -4.6395      2.00000
     30      -4.6375      2.00000
     31      -4.5701      2.00000
     32      -4.5681      2.00000
     33      -2.5692      2.00000
     34      -2.5681      2.00000
     35      -2.0197      2.00000
     36      -2.0183      2.00000
     37      -2.0052      2.00000
     38      -2.0029      2.00000
     39      -1.9741      2.00000
     40      -1.9731      2.00000
     41      -1.9599      2.00000
     42      -1.9569      2.00000
     43      -1.2988      2.00000
     44      -1.2977      2.00000
     45      -1.0786      2.00000
     46      -1.0737      2.00000
     47      -1.0511      2.00000
     48      -1.0476      2.00000
     49      -0.3032      2.00000
     50      -0.3020      2.00000
     51      -0.2979      2.00000
     52      -0.2968      2.00000
     53      -0.1074      2.00000
     54      -0.1038      2.00000
     55      -0.0888      2.00000
     56      -0.0831      2.00000
     57       0.8182      2.00000
     58       0.8196      2.00000
     59       0.8238      2.00000
     60       0.8253      2.00000
     61       3.0451      2.00000
     62       3.0477      2.00000
     63       3.5076      2.00000
     64       3.5104      2.00000
     65       5.8096      0.00000
     66       5.8131      0.00000
     67       5.8379      0.00000
     68       5.8415      0.00000
     69       9.0734      0.00000
     70       9.0763      0.00000
     71       9.0827      0.00000
     72       9.0844      0.00000
     73       9.5927      0.00000
     74       9.5955      0.00000
     75       9.5973      0.00000
     76       9.5994      0.00000
     77      10.6101      0.00000
     78      10.6118      0.00000
     79      12.8806      0.00000
     80      12.8830      0.00000
     81      12.8849      0.00000
     82      12.8880      0.00000
     83      13.2478      0.00000
     84      13.2507      0.00000

 k-point   163 :      -0.1111    0.4444    0.5000
  band No.  band energies     occupation 
      1     -14.0275      2.00000
      2     -14.0272      2.00000
      3     -13.8398      2.00000
      4     -13.8395      2.00000
      5     -12.7293      2.00000
      6     -12.7291      2.00000
      7     -12.5571      2.00000
      8     -12.5569      2.00000
      9     -11.4692      2.00000
     10     -11.4690      2.00000
     11     -11.3125      2.00000
     12     -11.3122      2.00000
     13      -9.6747      2.00000
     14      -9.6744      2.00000
     15      -9.5454      2.00000
     16      -9.5450      2.00000
     17      -7.1801      2.00000
     18      -7.1784      2.00000
     19      -7.0902      2.00000
     20      -7.0885      2.00000
     21      -5.5287      2.00000
     22      -5.5271      2.00000
     23      -5.4484      2.00000
     24      -5.4469      2.00000
     25      -4.5330      2.00000
     26      -4.5313      2.00000
     27      -4.4676      2.00000
     28      -4.4659      2.00000
     29      -4.2711      2.00000
     30      -4.2708      2.00000
     31      -4.1922      2.00000
     32      -4.1918      2.00000
     33      -3.0777      2.00000
     34      -3.0760      2.00000
     35      -3.0243      2.00000
     36      -3.0225      2.00000
     37      -2.4821      2.00000
     38      -2.4810      2.00000
     39      -1.4126      2.00000
     40      -1.4109      2.00000
     41      -1.3662      2.00000
     42      -1.3646      2.00000
     43      -1.2156      2.00000
     44      -1.2142      2.00000
     45      -1.1638      2.00000
     46      -1.1634      2.00000
     47      -1.1271      2.00000
     48      -1.1268      2.00000
     49      -0.9548      2.00000
     50      -0.9537      2.00000
     51      -0.0340      2.00000
     52      -0.0325      2.00000
     53      -0.0057      2.00000
     54      -0.0041      2.00000
     55       0.2162      2.00000
     56       0.2174      2.00000
     57       0.4961      2.00000
     58       0.4972      2.00000
     59       1.5501      2.00000
     60       1.5514      2.00000
     61       2.4259      2.00000
     62       2.4274      2.00000
     63       3.1964      2.00000
     64       3.1983      2.00000
     65       6.1356      0.00000
     66       6.1382      0.00000
     67       6.5412      0.00000
     68       6.5429      0.00000
     69       8.1440      0.00000
     70       8.1459      0.00000
     71       8.6139      0.00000
     72       8.6155      0.00000
     73       9.9803      0.00000
     74       9.9826      0.00000
     75      10.5147      0.00000
     76      10.5159      0.00000
     77      10.6923      0.00000
     78      10.6941      0.00000
     79      12.2015      0.00000
     80      12.2053      0.00000
     81      12.6683      0.00000
     82      12.6694      0.00000
     83      12.9720      0.00000
     84      12.9767      0.00000


--------------------------------------------------------------------------------------------------------


 soft charge-density along one line, spin component           1
         0         1         2         3         4         5         6         7         8         9
 total charge-density along one line
 
 pseudopotential strength for first ion, spin component:           1
  9.777   0.005  -0.000  -0.000   0.000   0.000   0.000  -0.000
  0.005  -0.002   0.000   0.000   0.000   0.000   0.000  -0.000
 -0.000   0.000  -3.948   0.000   0.000  -0.015   0.000   0.000
 -0.000   0.000   0.000  -3.942   0.000   0.000  -0.012   0.000
  0.000   0.000   0.000   0.000  -3.948   0.000   0.000  -0.015
  0.000   0.000  -0.015   0.000   0.000  -0.763   0.000   0.000
  0.000   0.000   0.000  -0.012   0.000   0.000  -0.763  -0.000
 -0.000  -0.000   0.000   0.000  -0.015   0.000  -0.000  -0.763
 total augmentation occupancy for first ion, spin component:           1
  1.470  -1.108   0.000   0.001   0.003   0.000  -0.001   0.001
 -1.108   1.040  -0.000   0.007  -0.002  -0.000   0.002  -0.001
  0.000  -0.000   1.225  -0.000  -0.002   0.225  -0.000  -0.001
  0.001   0.007  -0.000   0.928  -0.000  -0.000   0.103  -0.000
  0.003  -0.002  -0.002  -0.000   1.224  -0.001  -0.000   0.225
  0.000  -0.000   0.225  -0.000  -0.001   0.047  -0.000  -0.000
 -0.001   0.002  -0.000   0.103  -0.000  -0.000   0.013  -0.000
  0.001  -0.001  -0.001  -0.000   0.225  -0.000  -0.000   0.047


------------------------ aborting loop because EDIFF is reached ----------------------------------------


    CHARGE:  cpu time    4.13: real time    4.13
    FORLOC:  cpu time    0.03: real time    0.03
    FORNL :  cpu time   30.41: real time   30.42
    STRESS:  cpu time   72.63: real time   72.66
    FORHAR:  cpu time    0.05: real time    0.06
    MIXING:  cpu time    0.01: real time    0.01
    OFIELD:  cpu time    0.00: real time    0.00

 ---------------------------------------------------------------------------------------------

         DFTD3 V3.0 Rev 1        
 IVDW         = 12
 DF pbe       
 parameters
 VDW_S6       =    1.0000
 VDW_S8       =    0.7875
 VDW_A1       =    0.4289
 VDW_A2       =    4.4407
 k1-k3        =   16.0000    1.3333   -4.0000
 VDW_RADIUS   =   50.2022 A
 VDW_CNRADIUS =   21.1671 A
 Edisp (eV)   -4.95427

 E6    (eV) :    -3.5519
 E8    (eV) :    -1.4024
 % E8        : 28.31
    FORVDW:  cpu time    0.20: real time    0.20

  FORCE on cell =-STRESS in cart. coord.  units (eV):
  Direction    XX          YY          ZZ          XY          YZ          ZX
  --------------------------------------------------------------------------------------
  Alpha Z   292.79115   292.79115   292.79115
  Ewald     657.80622   657.32870 -4960.90184    -1.16376    -0.00059    -0.00706
  Hartree  1314.09831  1314.10345 -1133.68830    -0.09847    -0.00016    -0.00148
  E(xc)    -467.58350  -467.59036  -484.79588    -0.00878    -0.00002     0.00001
  Local   -3593.60239 -3593.22649  4203.05510     1.03469     0.00039     0.00723
  n-local  -112.44038  -112.55090  -102.69086    -0.10146    -0.00028     0.00041
  augment   -12.37555   -12.37470   -11.34039     0.00192     0.00000     0.00001
  Kinetic  1921.57435  1922.39013  2202.69339     0.82609     0.00387    -0.00421
  Fock        0.00000     0.00000     0.00000     0.00000     0.00000     0.00000
  vdW        -0.76913    -0.75936    -5.93808     0.00885     0.00000    -0.00002
  -------------------------------------------------------------------------------------
  Total      -0.50092     0.11161    -0.81572     0.49907     0.00322    -0.00511
  in kB      -2.81633     0.62751    -4.58623     2.80592     0.01812    -0.02874
  external pressure =       -2.26 kB  Pullay stress =        0.00 kB


 VOLUME and BASIS-vectors are now :
 -----------------------------------------------------------------------------
  energy-cutoff  :      600.00
  volume of cell :      284.97
      direct lattice vectors                 reciprocal lattice vectors
     4.932874498 -0.001919286  0.000000000     0.202767147  0.117172881  0.000000000
    -2.468099399  4.271034986  0.000000000     0.000091118  0.234187941  0.000000000
     0.000000000  0.000000000 13.528771485     0.000000000  0.000000000  0.073916542

  length of vectors
     4.932874871  4.932874871 13.528771485     0.234187958  0.234187958  0.073916542


 FORCES acting on ions
    electron-ion (+dipol)            ewald-force                    non-local-force                 convergence-correction
 -----------------------------------------------------------------------------------------------
   0.633E+00 0.624E-01 -.174E+01   -.756E+00 -.579E-01 0.177E+01   -.980E-01 0.280E-02 -.174E+00   -.107E-03 0.201E-04 -.636E-03
   -.311E+00 0.658E-01 0.387E+00   0.324E+00 -.621E-01 -.369E+00   0.136E-01 0.270E-02 -.224E-01   -.315E-04 0.175E-04 -.613E-03
   -.138E+00 0.166E+00 0.387E+00   0.126E+00 -.176E+00 -.369E+00   0.293E-02 -.355E-02 -.224E-01   -.652E-04 -.280E-06 -.614E-03
   -.138E+00 -.343E-01 0.387E+00   0.126E+00 0.524E-01 -.369E+00   0.301E-02 0.876E-02 -.224E-01   -.702E-04 0.441E-04 -.611E-03
   -.115E+00 0.656E-01 -.961E-01   0.107E+00 -.620E-01 0.960E-01   -.490E-02 0.256E-02 0.165E-02   0.600E-04 0.302E-04 0.355E-03
   -.115E+00 0.656E-01 -.954E-01   0.108E+00 -.620E-01 0.953E-01   -.491E-02 0.257E-02 0.167E-02   0.635E-04 0.273E-04 0.354E-03
   -.115E+00 0.657E-01 -.954E-01   0.107E+00 -.621E-01 0.953E-01   -.490E-02 0.257E-02 0.167E-02   0.625E-04 0.257E-04 0.356E-03
   -.115E+00 0.656E-01 -.954E-01   0.107E+00 -.620E-01 0.953E-01   -.490E-02 0.256E-02 0.167E-02   0.590E-04 0.253E-04 0.355E-03
   0.114E+00 -.702E-01 -.856E-01   -.107E+00 0.660E-01 0.822E-01   0.465E-02 -.291E-02 -.175E-02   -.449E-04 0.257E-04 0.324E-02
   0.114E+00 -.626E-01 -.854E-01   -.107E+00 0.581E-01 0.821E-01   0.454E-02 -.275E-02 -.200E-02   -.351E-04 0.239E-04 0.324E-02
   0.107E+00 -.663E-01 -.854E-01   -.100E+00 0.620E-01 0.821E-01   0.446E-02 -.273E-02 -.187E-02   -.382E-04 0.257E-04 0.324E-02
   0.122E+00 -.663E-01 -.141E+00   -.115E+00 0.619E-01 0.138E+00   0.469E-02 -.280E-02 -.150E-02   -.412E-04 0.309E-04 0.324E-02
   0.114E+00 -.692E-01 -.795E-01   -.107E+00 0.659E-01 0.824E-01   0.457E-02 -.255E-02 -.197E-02   -.418E-04 0.125E-04 -.297E-02
   0.114E+00 -.615E-01 -.797E-01   -.107E+00 0.580E-01 0.823E-01   0.468E-02 -.240E-02 -.171E-02   -.315E-04 0.213E-04 -.297E-02
   0.107E+00 -.654E-01 -.796E-01   -.100E+00 0.620E-01 0.824E-01   0.449E-02 -.256E-02 -.184E-02   -.447E-04 0.134E-04 -.297E-02
   0.122E+00 -.655E-01 -.134E+00   -.115E+00 0.621E-01 0.137E+00   0.471E-02 -.250E-02 -.137E-02   -.297E-04 0.197E-04 -.297E-02
   0.352E-01 -.655E-01 0.325E+00   -.309E-01 0.621E-01 -.322E+00   0.492E-02 -.250E-02 0.105E-01   0.961E-04 -.219E-04 -.613E-03
   0.345E+00 -.572E-01 0.847E+00   -.338E+00 0.528E-01 -.879E+00   0.296E-01 -.228E-02 0.800E-01   0.440E-04 -.249E-04 -.604E-03
   -.220E+00 -.390E+00 0.843E+00   0.281E+00 0.418E+00 -.875E+00   0.210E-01 -.732E-02 0.798E-01   0.739E-04 -.825E-05 -.602E-03
   -.210E+00 0.256E+00 0.850E+00   0.269E+00 -.290E+00 -.883E+00   0.221E-01 0.189E-02 0.803E-01   0.668E-04 -.358E-04 -.605E-03
   0.114E+00 -.651E-01 -.954E-01   -.107E+00 0.618E-01 0.952E-01   0.471E-02 -.247E-02 -.421E-03   -.592E-04 -.296E-04 0.359E-03
   0.114E+00 -.651E-01 -.957E-01   -.107E+00 0.618E-01 0.955E-01   0.470E-02 -.247E-02 -.412E-03   -.586E-04 -.267E-04 0.359E-03
   0.114E+00 -.651E-01 -.957E-01   -.107E+00 0.618E-01 0.955E-01   0.471E-02 -.247E-02 -.413E-03   -.633E-04 -.254E-04 0.358E-03
   0.114E+00 -.651E-01 -.957E-01   -.107E+00 0.618E-01 0.955E-01   0.470E-02 -.247E-02 -.411E-03   -.569E-04 -.273E-04 0.360E-03
   -.940E-01 0.567E-01 -.974E-01   0.874E-01 -.526E-01 0.941E-01   -.446E-02 0.276E-02 0.854E-03   0.405E-04 -.255E-04 0.324E-02
   -.133E+00 0.525E-01 -.111E+00   0.127E+00 -.481E-01 0.108E+00   -.443E-02 0.265E-02 0.511E-03   0.352E-04 -.223E-04 0.324E-02
   -.110E+00 0.884E-01 -.104E+00   0.103E+00 -.846E-01 0.101E+00   -.436E-02 0.268E-02 0.684E-03   0.346E-04 -.224E-04 0.324E-02
   -.116E+00 0.658E-01 -.805E-01   0.110E+00 -.617E-01 0.771E-01   -.458E-02 0.270E-02 0.197E-03   0.417E-04 -.266E-04 0.324E-02
   -.133E+00 0.781E-01 -.105E+00   0.127E+00 -.753E-01 0.108E+00   -.432E-02 0.242E-02 0.563E-03   0.362E-04 -.101E-04 -.297E-02
   -.940E-01 0.738E-01 -.912E-01   0.877E-01 -.707E-01 0.940E-01   -.436E-02 0.232E-02 0.885E-03   0.313E-04 -.172E-04 -.297E-02
   -.110E+00 0.425E-01 -.981E-01   0.103E+00 -.393E-01 0.101E+00   -.426E-02 0.241E-02 0.713E-03   0.394E-04 -.155E-04 -.297E-02
   -.116E+00 0.649E-01 -.747E-01   0.110E+00 -.618E-01 0.774E-01   -.448E-02 0.239E-02 0.251E-03   0.271E-04 -.184E-04 -.297E-02
 -----------------------------------------------------------------------------------------------
   0.114E-04 0.332E-05 -.532E-02   -.232E-13 -.306E-13 -.141E-13   -.269E-04 0.548E-05 0.500E-02   -.661E-05 0.505E-05 0.121E-03
 
 
 POSITION                                       TOTAL-FORCE (eV/Angst)
 -----------------------------------------------------------------------------------
      2.46744      0.00044      1.70049        -0.222438      0.007370     -0.134320
      4.93046     -0.00052      1.69110         0.027417      0.006404     -0.005171
      1.22997      2.13595      1.69110        -0.008953     -0.014610     -0.005106
      3.69641      2.13499      1.69110        -0.009044      0.027524     -0.005331
      2.46402      0.00044      8.45548        -0.012600      0.006200      0.001904
      4.93046     -0.00052      8.45548        -0.012578      0.006201      0.001929
      1.22997      2.13595      8.45548        -0.012588      0.006199      0.001928
      3.69641      2.13499      8.45548        -0.012587      0.006211      0.001929
     -1.23163      2.13412      5.07329         0.011491     -0.007183     -0.001950
      1.23481      2.13316      5.07329         0.011321     -0.007267     -0.002009
     -2.46568      4.26964      5.07329         0.011478     -0.007075     -0.001978
      0.00076      4.26868      5.07329         0.011309     -0.007182     -0.001319
     -1.23163      2.13412     11.83768         0.011382     -0.005828     -0.002094
      1.23481      2.13316     11.83768         0.011527     -0.005905     -0.002037
     -2.46568      4.26964     11.83768         0.011521     -0.005995     -0.002066
      0.00076      4.26868     11.83768         0.011352     -0.005913     -0.001328
     -0.00332      1.42496      1.69110         0.009500     -0.005989      0.012172
      2.46311      1.42400      1.69110         0.036597     -0.006712      0.047178
     -1.23737      3.56047      1.69110         0.081906      0.020055      0.047593
      1.22906      3.55952      1.69110         0.082025     -0.032265      0.046712
     -0.00332      1.42496      8.45548         0.011901     -0.005855     -0.000245
      2.46311      1.42400      8.45548         0.011901     -0.005854     -0.000229
     -1.23737      3.56047      8.45548         0.011901     -0.005858     -0.000230
      1.22906      3.55952      8.45548         0.011901     -0.005858     -0.000227
      1.23571      0.70960      5.07329        -0.011105      0.006883      0.000730
      3.70215      0.70864      5.07329        -0.010647      0.006985      0.000754
      0.00166      2.84512      5.07329        -0.010964      0.006547      0.000744
      2.46810      2.84416      5.07329        -0.010804      0.006803      0.000063
      1.23571      0.70960     11.83768        -0.010334      0.005328      0.000690
      3.70215      0.70864     11.83768        -0.010710      0.005437      0.000649
      0.00166      2.84512     11.83768        -0.010618      0.005709      0.000659
      2.46810      2.84416     11.83768        -0.010458      0.005493      0.000006
 -----------------------------------------------------------------------------------
    total drift:                               -0.000022      0.000014     -0.000195


--------------------------------------------------------------------------------------------------------



  FREE ENERGIE OF THE ION-ELECTRON SYSTEM (eV)
  ---------------------------------------------------
  free  energy   TOTEN  =      -299.67068248 eV

  energy  without entropy=     -299.67068248  energy(sigma->0) =     -299.67068248
 


--------------------------------------------------------------------------------------------------------


    POTLOK:  cpu time    0.16: real time    0.16


--------------------------------------------------------------------------------------------------------


     LOOP+:  cpu time 2156.08: real time 2157.27
    4ORBIT:  cpu time    0.00: real time    0.00
 BZINTS: Fermi energy:  4.603906;128.000000 electrons
         Band energy:-575.815543;  BLOECHL correction:  0.000000

 total amount of memory used by VASP on root node   519936. kBytes
========================================================================

   base      :      30000. kBytes
   nonl-proj :     104471. kBytes
   fftplans  :       8783. kBytes
   grid      :      18621. kBytes
   one-center:         98. kBytes
   wavefun   :     357963. kBytes
 
  
  
 General timing and accounting informations for this job:
 ========================================================
  
                  Total CPU time used (sec):     2183.555
                            User time (sec):     1801.365
                          System time (sec):      382.190
                         Elapsed time (sec):     2185.082
  
                   Maximum memory used (kb):      626060.
                   Average memory used (kb):           0.
  
                          Minor page faults:     55527669
                          Major page faults:            0
                 Voluntary context switches:          998
