   4   4   0   0
  0.3102054E+01  0.2467155E-09  0.2467155E-09  0.2354010E-09  0.5000000E-15
  1.000000000000000E-004
  CAR 
 graphite                                
     38.89615361    -13.38072705  301     22.39727293      1.00000000
    -13.381  0.0000E+00  0.0000E+00
    -13.206  0.0000E+00  0.0000E+00
    -13.032  0.0000E+00  0.0000E+00
    -12.858  0.0000E+00  0.0000E+00
    -12.684  0.0000E+00  0.0000E+00
    -12.509  0.0000E+00  0.0000E+00
    -12.335  0.0000E+00  0.0000E+00
    -12.161  0.0000E+00  0.0000E+00
    -11.987  0.0000E+00  0.0000E+00
    -11.812  0.0000E+00  0.0000E+00
    -11.638  0.0000E+00  0.0000E+00
    -11.464  0.0000E+00  0.0000E+00
    -11.290  0.0000E+00  0.0000E+00
    -11.115  0.0000E+00  0.0000E+00
    -10.941  0.5098E-04  0.1077E-05
    -10.767  0.2575E-03  0.2788E-04
    -10.593  0.3944E-03  0.8789E-04
    -10.418  0.4676E-03  0.1635E-03
    -10.244  0.5361E-03  0.2510E-03
    -10.070  0.6073E-03  0.3504E-03
     -9.896  0.6766E-03  0.4623E-03
     -9.721  0.7397E-03  0.5858E-03
     -9.547  0.7883E-03  0.7189E-03
     -9.373  0.8301E-03  0.8600E-03
     -9.199  0.8689E-03  0.1008E-02
     -9.024  0.9157E-03  0.1163E-02
     -8.850  0.9616E-03  0.1327E-02
     -8.676  0.1003E-02  0.1498E-02
     -8.502  0.1046E-02  0.1677E-02
     -8.327  0.1092E-02  0.1863E-02
     -8.153  0.1137E-02  0.2057E-02
     -7.979  0.1169E-02  0.2258E-02
     -7.805  0.1202E-02  0.2465E-02
     -7.630  0.1238E-02  0.2677E-02
     -7.456  0.1277E-02  0.2896E-02
     -7.282  0.1314E-02  0.3122E-02
     -7.108  0.1351E-02  0.3354E-02
     -6.933  0.1390E-02  0.3593E-02
     -6.759  0.1433E-02  0.3839E-02
     -6.585  0.1478E-02  0.4093E-02
     -6.410  0.1528E-02  0.4355E-02
     -6.236  0.1583E-02  0.4626E-02
     -6.062  0.1651E-02  0.4907E-02
     -5.888  0.1741E-02  0.5202E-02
     -5.713  0.1935E-02  0.5522E-02
     -5.539  0.1938E-02  0.5861E-02
     -5.365  0.1904E-02  0.6193E-02
     -5.191  0.1879E-02  0.6523E-02
     -5.016  0.1790E-02  0.6840E-02
     -4.842  0.1744E-02  0.7147E-02
     -4.668  0.1743E-02  0.7452E-02
     -4.494  0.1663E-02  0.7749E-02
     -4.319  0.1538E-02  0.8028E-02
     -4.145  0.1444E-02  0.8287E-02
     -3.971  0.1400E-02  0.8534E-02
     -3.797  0.1390E-02  0.8776E-02
     -3.622  0.1532E-02  0.9027E-02
     -3.448  0.1621E-02  0.9302E-02
     -3.274  0.1638E-02  0.9589E-02
     -3.100  0.1740E-02  0.9882E-02
     -2.925  0.1794E-02  0.1019E-01
     -2.751  0.1820E-02  0.1051E-01
     -2.577  0.1891E-02  0.1083E-01
     -2.403  0.1985E-02  0.1117E-01
     -2.228  0.2116E-02  0.1152E-01
     -2.054  0.2178E-02  0.1190E-01
     -1.880  0.2147E-02  0.1228E-01
     -1.706  0.2138E-02  0.1265E-01
     -1.531  0.2179E-02  0.1302E-01
     -1.357  0.2281E-02  0.1341E-01
     -1.183  0.2360E-02  0.1382E-01
     -1.009  0.2433E-02  0.1423E-01
     -0.834  0.2519E-02  0.1467E-01
     -0.660  0.2640E-02  0.1511E-01
     -0.486  0.2683E-02  0.1558E-01
     -0.312  0.2708E-02  0.1605E-01
     -0.137  0.2616E-02  0.1652E-01
      0.037  0.2337E-02  0.1696E-01
      0.211  0.2199E-02  0.1735E-01
      0.386  0.2071E-02  0.1772E-01
      0.560  0.1867E-02  0.1807E-01
      0.734  0.1746E-02  0.1838E-01
      0.908  0.1811E-02  0.1868E-01
      1.083  0.2149E-02  0.1903E-01
      1.257  0.2446E-02  0.1943E-01
      1.431  0.2600E-02  0.1987E-01
      1.605  0.2487E-02  0.2032E-01
      1.780  0.2410E-02  0.2074E-01
      1.954  0.2588E-02  0.2117E-01
      2.128  0.3065E-02  0.2167E-01
      2.302  0.3453E-02  0.2223E-01
      2.477  0.3262E-02  0.2282E-01
      2.651  0.3167E-02  0.2337E-01
      2.825  0.3257E-02  0.2393E-01
      2.999  0.3427E-02  0.2451E-01
      3.174  0.3532E-02  0.2513E-01
      3.348  0.3458E-02  0.2573E-01
      3.522  0.3821E-02  0.2638E-01
      3.696  0.3497E-02  0.2702E-01
      3.871  0.3365E-02  0.2762E-01
      4.045  0.3624E-02  0.2821E-01
      4.219  0.3647E-02  0.2886E-01
      4.393  0.3260E-02  0.2946E-01
      4.568  0.3423E-02  0.3003E-01
      4.742  0.3758E-02  0.3065E-01
      4.916  0.4131E-02  0.3134E-01
      5.090  0.4500E-02  0.3211E-01
      5.265  0.4233E-02  0.3286E-01
      5.439  0.3800E-02  0.3356E-01
      5.613  0.3314E-02  0.3418E-01
      5.787  0.2901E-02  0.3472E-01
      5.962  0.2502E-02  0.3518E-01
      6.136  0.2282E-02  0.3560E-01
      6.310  0.2201E-02  0.3598E-01
      6.484  0.2196E-02  0.3637E-01
      6.659  0.2155E-02  0.3675E-01
      6.833  0.2125E-02  0.3712E-01
      7.007  0.2108E-02  0.3749E-01
      7.182  0.2132E-02  0.3786E-01
      7.356  0.2190E-02  0.3823E-01
      7.530  0.2215E-02  0.3862E-01
      7.704  0.2200E-02  0.3900E-01
      7.879  0.2199E-02  0.3939E-01
      8.053  0.2185E-02  0.3977E-01
      8.227  0.2158E-02  0.4015E-01
      8.401  0.2135E-02  0.4052E-01
      8.576  0.2083E-02  0.4089E-01
      8.750  0.2004E-02  0.4124E-01
      8.924  0.1935E-02  0.4159E-01
      9.098  0.1892E-02  0.4192E-01
      9.273  0.1842E-02  0.4225E-01
      9.447  0.1808E-02  0.4256E-01
      9.621  0.1768E-02  0.4288E-01
      9.795  0.1728E-02  0.4318E-01
      9.970  0.1702E-02  0.4348E-01
     10.144  0.1683E-02  0.4377E-01
     10.318  0.1670E-02  0.4407E-01
     10.492  0.1659E-02  0.4436E-01
     10.667  0.1640E-02  0.4464E-01
     10.841  0.1627E-02  0.4493E-01
     11.015  0.1618E-02  0.4521E-01
     11.189  0.1618E-02  0.4549E-01
     11.364  0.1609E-02  0.4577E-01
     11.538  0.1598E-02  0.4605E-01
     11.712  0.1590E-02  0.4633E-01
     11.886  0.1596E-02  0.4661E-01
     12.061  0.1600E-02  0.4689E-01
     12.235  0.1600E-02  0.4717E-01
     12.409  0.1596E-02  0.4744E-01
     12.583  0.1606E-02  0.4772E-01
     12.758  0.1619E-02  0.4800E-01
     12.932  0.1632E-02  0.4829E-01
     13.106  0.1649E-02  0.4857E-01
     13.280  0.1726E-02  0.4887E-01
     13.455  0.1801E-02  0.4917E-01
     13.629  0.1897E-02  0.4949E-01
     13.803  0.1971E-02  0.4983E-01
     13.978  0.2056E-02  0.5018E-01
     14.152  0.2162E-02  0.5055E-01
     14.326  0.2267E-02  0.5094E-01
     14.500  0.2341E-02  0.5134E-01
     14.675  0.2458E-02  0.5175E-01
     14.849  0.2852E-02  0.5221E-01
     15.023  0.3596E-02  0.5277E-01
     15.197  0.4121E-02  0.5344E-01
     15.372  0.2980E-02  0.5409E-01
     15.546  0.2894E-02  0.5461E-01
     15.720  0.2682E-02  0.5510E-01
     15.894  0.2313E-02  0.5553E-01
     16.069  0.2136E-02  0.5591E-01
     16.243  0.2090E-02  0.5628E-01
     16.417  0.2471E-02  0.5667E-01
     16.591  0.2987E-02  0.5715E-01
     16.766  0.3338E-02  0.5771E-01
     16.940  0.3516E-02  0.5831E-01
     17.114  0.3954E-02  0.5895E-01
     17.288  0.3760E-02  0.5965E-01
     17.463  0.3685E-02  0.6030E-01
     17.637  0.3798E-02  0.6095E-01
     17.811  0.3872E-02  0.6162E-01
     17.985  0.3863E-02  0.6229E-01
     18.160  0.3733E-02  0.6295E-01
     18.334  0.3551E-02  0.6359E-01
     18.508  0.3505E-02  0.6420E-01
     18.682  0.3714E-02  0.6483E-01
     18.857  0.4689E-02  0.6556E-01
     19.031  0.4138E-02  0.6632E-01
     19.205  0.3934E-02  0.6702E-01
     19.379  0.3546E-02  0.6769E-01
     19.554  0.3513E-02  0.6829E-01
     19.728  0.3177E-02  0.6889E-01
     19.902  0.2972E-02  0.6941E-01
     20.076  0.4006E-02  0.6997E-01
     20.251  0.5543E-02  0.7084E-01
     20.425  0.6113E-02  0.7186E-01
     20.599  0.6597E-02  0.7298E-01
     20.774  0.7329E-02  0.7418E-01
     20.948  0.6378E-02  0.7542E-01
     21.122  0.4203E-02  0.7630E-01
     21.296  0.3366E-02  0.7695E-01
     21.471  0.2978E-02  0.7751E-01
     21.645  0.2679E-02  0.7800E-01
     21.819  0.2272E-02  0.7844E-01
     21.993  0.2016E-02  0.7880E-01
     22.168  0.2980E-02  0.7920E-01
     22.342  0.3674E-02  0.7979E-01
     22.516  0.3811E-02  0.8045E-01
     22.690  0.3747E-02  0.8111E-01
     22.865  0.3821E-02  0.8177E-01
     23.039  0.3805E-02  0.8244E-01
     23.213  0.3612E-02  0.8308E-01
     23.387  0.3662E-02  0.8371E-01
     23.562  0.3557E-02  0.8434E-01
     23.736  0.2854E-02  0.8491E-01
     23.910  0.2780E-02  0.8539E-01
     24.084  0.2677E-02  0.8587E-01
     24.259  0.2602E-02  0.8633E-01
     24.433  0.2579E-02  0.8678E-01
     24.607  0.2651E-02  0.8724E-01
     24.781  0.2888E-02  0.8772E-01
     24.956  0.3152E-02  0.8825E-01
     25.130  0.3154E-02  0.8880E-01
     25.304  0.3184E-02  0.8935E-01
     25.478  0.3308E-02  0.8992E-01
     25.653  0.3479E-02  0.9051E-01
     25.827  0.3704E-02  0.9113E-01
     26.001  0.4031E-02  0.9181E-01
     26.175  0.4241E-02  0.9252E-01
     26.350  0.4687E-02  0.9329E-01
     26.524  0.5252E-02  0.9416E-01
     26.698  0.5518E-02  0.9511E-01
     26.872  0.5263E-02  0.9604E-01
     27.047  0.5372E-02  0.9697E-01
     27.221  0.5902E-02  0.9794E-01
     27.395  0.6112E-02  0.9899E-01
     27.569  0.5879E-02  0.1000E+00
     27.744  0.5052E-02  0.1010E+00
     27.918  0.4200E-02  0.1018E+00
     28.092  0.3892E-02  0.1025E+00
     28.267  0.3730E-02  0.1032E+00
     28.441  0.3635E-02  0.1038E+00
     28.615  0.3732E-02  0.1044E+00
     28.789  0.3917E-02  0.1051E+00
     28.964  0.3806E-02  0.1058E+00
     29.138  0.3520E-02  0.1064E+00
     29.312  0.3062E-02  0.1070E+00
     29.486  0.2656E-02  0.1075E+00
     29.661  0.2374E-02  0.1079E+00
     29.835  0.2065E-02  0.1083E+00
     30.009  0.1973E-02  0.1087E+00
     30.183  0.1878E-02  0.1090E+00
     30.358  0.1893E-02  0.1093E+00
     30.532  0.1908E-02  0.1097E+00
     30.706  0.1909E-02  0.1100E+00
     30.880  0.1926E-02  0.1103E+00
     31.055  0.1948E-02  0.1107E+00
     31.229  0.1981E-02  0.1110E+00
     31.403  0.2047E-02  0.1114E+00
     31.577  0.2147E-02  0.1117E+00
     31.752  0.2246E-02  0.1121E+00
     31.926  0.2323E-02  0.1125E+00
     32.100  0.2608E-02  0.1129E+00
     32.274  0.2926E-02  0.1134E+00
     32.449  0.3023E-02  0.1139E+00
     32.623  0.3077E-02  0.1145E+00
     32.797  0.3603E-02  0.1150E+00
     32.971  0.3692E-02  0.1157E+00
     33.146  0.2991E-02  0.1163E+00
     33.320  0.2634E-02  0.1168E+00
     33.494  0.2527E-02  0.1172E+00
     33.668  0.2453E-02  0.1176E+00
     33.843  0.2263E-02  0.1180E+00
     34.017  0.2066E-02  0.1184E+00
     34.191  0.1786E-02  0.1188E+00
     34.365  0.1546E-02  0.1190E+00
     34.540  0.1278E-02  0.1193E+00
     34.714  0.1015E-02  0.1195E+00
     34.888  0.7812E-03  0.1196E+00
     35.063  0.4929E-03  0.1198E+00
     35.237  0.3772E-03  0.1198E+00
     35.411  0.2714E-03  0.1199E+00
     35.585  0.1866E-03  0.1199E+00
     35.760  0.1384E-03  0.1200E+00
     35.934  0.9419E-04  0.1200E+00
     36.108  0.5405E-04  0.1200E+00
     36.282  0.1983E-04  0.1200E+00
     36.457  0.1207E-05  0.1200E+00
     36.631  0.0000E+00  0.1200E+00
     36.805  0.0000E+00  0.1200E+00
     36.979  0.0000E+00  0.1200E+00
     37.154  0.0000E+00  0.1200E+00
     37.328  0.0000E+00  0.1200E+00
     37.502  0.0000E+00  0.1200E+00
     37.676  0.0000E+00  0.1200E+00
     37.851  0.0000E+00  0.1200E+00
     38.025  0.0000E+00  0.1200E+00
     38.199  0.0000E+00  0.1200E+00
     38.373  0.0000E+00  0.1200E+00
     38.548  0.0000E+00  0.1200E+00
     38.722  0.0000E+00  0.1200E+00
     38.896  0.0000E+00  0.1200E+00
