    4    4  200    1
  0.3102054E+01  0.2467155E-09  0.2467155E-09  0.2354010E-09  0.5000000E-15
  1.000000000000000E-004
  CAR 
 graphite                                
     16    455     12
 
  0.0000000E+00  0.0000000E+00  0.0000000E+00  0.3858025E-03
    1      -11.004505
    2        3.088608
    3        8.627271
    4        8.632894
    5       14.614892
    6       14.616296
    7       16.252372
    8       21.194976
    9       22.540817
   10       27.548989
   11       30.162745
   12       30.165469
 
  0.5555556E-01  0.6938894E-17  0.0000000E+00  0.1543210E-02
    1      -10.928290
    2        3.151268
    3        8.105411
    4        8.324048
    5       14.746538
    6       15.037535
    7       16.318956
    8       21.445308
    9       22.395292
   10       27.545678
   11       29.868642
   12       30.142427
 
  0.1111111E+00  0.1387779E-16  0.0000000E+00  0.1543210E-02
    1      -10.699854
    2        3.336188
    3        6.807513
    4        7.607263
    5       14.915438
    6       16.089068
    7       16.513900
    8       21.980404
    9       22.155342
   10       27.244236
   11       29.275895
   12       29.836783
 
  0.1666667E+00  0.0000000E+00  0.0000000E+00  0.1543210E-02
    1      -10.319987
    2        3.633649
    3        5.150422
    4        6.764771
    5       14.923007
    6       16.797839
    7       17.430107
    8       21.349334
    9       23.121100
   10       26.636420
   11       28.756493
   12       28.922614
 
  0.2222222E+00  0.4163336E-16  0.0000000E+00  0.1543210E-02
    1       -9.790281
    2        3.372553
    3        4.024917
    4        5.954151
    5       14.802630
    6       17.139131
    7       18.798686
    8       20.566782
    9       23.733768
   10       26.465590
   11       27.877937
   12       28.536297
 
  0.2777778E+00  0.5551115E-16  0.0000000E+00  0.1543210E-02
    1       -9.113501
    2        1.594150
    3        4.482241
    4        5.246611
    5       14.629324
    6       17.542205
    7       19.703164
    8       19.967627
    9       23.343125
   10       26.873562
   11       27.429863
   12       28.793848
 
  0.3333333E+00  0.5551115E-16  0.0000000E+00  0.1543210E-02
    1       -8.295948
    2       -0.121944
    3        4.674774
    4        4.960021
    5       14.455782
    6       18.017954
    7       18.842929
    8       20.771427
    9       22.508866
   10       26.029415
   11       28.960619
   12       29.625530
 
  0.3888889E+00  0.2775558E-16  0.0000000E+00  0.1543210E-02
    1       -7.351053
    2       -1.725922
    3        4.259056
    4        5.394146
    5       14.314487
    6       18.092837
    7       18.572416
    8       21.205663
    9       21.612837
   10       25.408174
   11       30.622822
   12       30.906151
 
  0.4444444E+00  0.8326673E-16  0.0000000E+00  0.1543210E-02
    1       -6.335267
    2       -3.143747
    3        4.006515
    4        5.705378
    5       14.223525
    6       17.572720
    7       19.203693
    8       20.756133
    9       21.391503
   10       25.032638
   11       32.137514
   12       32.224340
 
  0.5000000E+00  0.1110223E-15  0.0000000E+00  0.7716049E-03
    1       -5.670079
    2       -3.943214
    3        3.921724
    4        5.819094
    5       14.192238
    6       17.385035
    7       19.785749
    8       20.096784
    9       21.440367
   10       24.907436
   11       32.845255
   12       32.873585
 
  0.5555556E-01  0.5555556E-01  0.0000000E+00  0.7716049E-03
    1      -10.775946
    2        3.275075
    3        7.271664
    4        7.740426
    5       15.024015
    6       15.627635
    7       16.458774
    8       21.929355
    9       22.116186
   10       27.372521
   11       29.437866
   12       30.046476
 
  0.1111111E+00  0.5555556E-01  0.0000000E+00  0.1543210E-02
    1      -10.471788
    2        3.516383
    3        5.901462
    4        6.868765
    5       15.245497
    6       16.581785
    7       16.781838
    8       21.599531
    9       22.781324
   10       26.829435
   11       28.954541
   12       29.247251
 
  0.1666667E+00  0.5555556E-01  0.0000000E+00  0.1543210E-02
    1      -10.016952
    2        3.861199
    3        4.240649
    4        6.001896
    5       15.228342
    6       17.017158
    7       17.970685
    8       20.907397
    9       23.623941
   10       26.245263
   11       28.228240
   12       28.746038
 
  0.2222222E+00  0.5555556E-01  0.0000000E+00  0.1543210E-02
    1       -9.413589
    2        2.488814
    3        4.286654
    4        5.228299
    5       15.094430
    6       17.391345
    7       19.261997
    8       20.105439
    9       23.696495
   10       26.362215
   11       27.157261
   12       29.070672
 
  0.2777778E+00  0.5555556E-01  0.0000000E+00  0.1543210E-02
    1       -8.665631
    2        0.755368
    3        4.585444
    4        4.757046
    5       14.926406
    6       17.827066
    7       19.265278
    8       20.297632
    9       22.999022
   10       26.190005
   11       27.252448
   12       30.018976
 
  0.3333333E+00  0.5555556E-01  0.0000000E+00  0.1543210E-02
    1       -7.782691
    2       -0.899568
    3        4.092251
    4        5.216831
    5       14.771023
    6       18.337859
    7       18.476198
    8       20.938660
    9       22.117111
   10       25.423767
   11       28.572634
   12       31.334345
 
  0.3888889E+00  0.5555556E-01  0.0000000E+00  0.1543210E-02
    1       -6.790426
    2       -2.418708
    3        3.758374
    4        5.595125
    5       14.655777
    6       17.849230
    7       18.925957
    8       21.177564
    9       21.309404
   10       24.903490
   11       30.187202
   12       32.536218
 
  0.4444444E+00  0.5555556E-01  0.0000000E+00  0.1543210E-02
    1       -5.833447
    2       -3.642504
    3        3.590224
    4        5.812426
    5       14.594863
    6       17.497589
    7       19.570049
    8       20.432926
    9       21.369101
   10       24.642578
   11       31.796059
   12       32.844508
 
  0.5000000E+00  0.5555556E-01  0.0000000E+00  0.1543210E-02
    1       -5.833559
    2       -3.642385
    3        3.590171
    4        5.812424
    5       14.594989
    6       17.497515
    7       19.569784
    8       20.433345
    9       21.368986
   10       24.642642
   11       31.802125
   12       32.838828
 
 -0.4444444E+00  0.5555556E-01  0.0000000E+00  0.1543210E-02
    1       -6.790583
    2       -2.418538
    3        3.758220
    4        5.595118
    5       14.656157
    6       17.849006
    7       18.925731
    8       21.179706
    9       21.307661
   10       24.903685
   11       30.193158
   12       32.530581
 
 -0.3888889E+00  0.5555556E-01  0.0000000E+00  0.1543210E-02
    1       -7.782839
    2       -0.899417
    3        4.092014
    4        5.216820
    5       14.771661
    6       18.337686
    7       18.475828
    8       20.939223
    9       22.117209
   10       25.424095
   11       28.577532
   12       31.328988
 
 -0.3333333E+00  0.5555556E-01  0.0000000E+00  0.1543210E-02
    1       -8.665761
    2        0.755451
    3        4.585167
    4        4.757032
    5       14.927310
    6       17.826940
    7       19.264777
    8       20.298472
    9       22.999393
   10       26.190459
   11       27.255286
   12       30.014656
 
 -0.2777778E+00  0.5555556E-01  0.0000000E+00  0.1543210E-02
    1       -9.413698
    2        2.488733
    3        4.286638
    4        5.228082
    5       15.095619
    6       17.391252
    7       19.263155
    8       20.104849
    9       23.697267
   10       26.362046
   11       27.157809
   12       29.068168
 
 -0.2222222E+00  0.5555556E-01  0.0000000E+00  0.1543210E-02
    1      -10.017038
    2        3.861184
    3        4.240180
    4        6.001990
    5       15.229871
    6       17.017054
    7       17.971789
    8       20.906785
    9       23.624492
   10       26.242997
   11       28.228822
   12       28.745308
 
 -0.1666667E+00  0.5555556E-01  0.0000000E+00  0.1543210E-02
    1      -10.471850
    2        3.516370
    3        5.899993
    4        6.869848
    5       15.247533
    6       16.581515
    7       16.782379
    8       21.598988
    9       22.781083
   10       26.826529
   11       28.955042
   12       29.247781
 
 -0.1111111E+00  0.5555556E-01  0.0000000E+00  0.1543210E-02
    1      -10.775983
    2        3.275067
    3        7.268040
    4        7.743778
    5       15.026507
    6       15.626749
    7       16.458757
    8       21.928975
    9       22.115807
   10       27.369448
   11       29.439368
   12       30.033324
 
 -0.5555556E-01  0.5555556E-01  0.0000000E+00  0.7716049E-03
    1      -10.928302
    2        3.151266
    3        8.101372
    4        8.328012
    5       14.747893
    6       15.036753
    7       16.318922
    8       21.445153
    9       22.395155
   10       27.544337
   11       29.870221
   12       30.142204
 
  0.1111111E+00  0.1111111E+00  0.0000000E+00  0.7716049E-03
    1      -10.092711
    2        3.805344
    3        4.750202
    4        5.764194
    5       15.762488
    6       17.149210
    7       17.154941
    8       21.034503
    9       23.548395
   10       26.176285
   11       28.320027
   12       28.893293
 
  0.1666667E+00  0.1111111E+00  0.0000000E+00  0.1543210E-02
    1       -9.564066
    2        3.292847
    3        4.185518
    4        4.772859
    5       15.937041
    6       17.473964
    7       18.236152
    8       20.353007
    9       23.965562
   10       25.599401
   11       27.207684
   12       29.408949
 
  0.2222222E+00  0.1111111E+00  0.0000000E+00  0.1543210E-02
    1       -8.889063
    2        1.660586
    3        4.003244
    4        4.626745
    5       15.896984
    6       17.832417
    7       19.441100
    8       19.616736
    9       23.572796
   10       25.700250
   11       26.095872
   12       30.478039
 
  0.2777778E+00  0.1111111E+00  0.0000000E+00  0.1543210E-02
    1       -8.074179
    2        0.016703
    3        3.415755
    4        5.085601
    5       15.790408
    6       18.268970
    7       18.889907
    8       20.378608
    9       22.751472
   10       25.133849
   11       26.516086
   12       31.777211
 
  0.3333333E+00  0.1111111E+00  0.0000000E+00  0.1543210E-02
    1       -7.134751
    2       -1.547885
    3        2.996706
    4        5.499481
    5       15.683354
    6       18.254442
    7       18.787196
    8       20.898926
    9       21.884699
   10       24.412524
   11       27.909565
   12       32.810273
 
  0.3888889E+00  0.1111111E+00  0.0000000E+00  0.1543210E-02
    1       -6.127853
    2       -2.940040
    3        2.744988
    4        5.794052
    5       15.608768
    6       17.810990
    7       19.364285
    8       20.975328
    9       21.220948
   10       23.972613
   11       29.665129
   12       32.794567
 
  0.4444444E+00  0.1111111E+00  0.0000000E+00  0.1543210E-02
    1       -5.475429
    2       -3.722321
    3        2.661592
    4        5.901739
    5       15.582491
    6       17.650378
    7       19.777756
    8       20.545573
    9       21.214988
   10       23.825617
   11       31.226961
   12       31.747719
 
  0.5000000E+00  0.1111111E+00  0.0000000E+00  0.1543210E-02
    1       -6.128146
    2       -2.939740
    3        2.744850
    4        5.794046
    5       15.609209
    6       17.810634
    7       19.363824
    8       20.977755
    9       21.219171
   10       23.972950
   11       29.671321
   12       32.788731
 
 -0.4444444E+00  0.1111111E+00  0.0000000E+00  0.1543210E-02
    1       -7.135056
    2       -1.547597
    3        2.996462
    4        5.499467
    5       15.684238
    6       18.253743
    7       18.786848
    8       20.899969
    9       21.884626
   10       24.413193
   11       27.914838
   12       32.804814
 
 -0.3888889E+00  0.1111111E+00  0.0000000E+00  0.1543210E-02
    1       -8.074456
    2        0.016853
    3        3.415495
    4        5.085580
    5       15.791742
    6       18.268766
    7       18.888907
    8       20.379888
    9       22.751946
   10       25.134821
   11       26.519448
   12       31.771985
 
 -0.3333333E+00  0.1111111E+00  0.0000000E+00  0.1543210E-02
    1       -8.889301
    2        1.660377
    3        4.003191
    4        4.626719
    5       15.898796
    6       17.832381
    7       19.442903
    8       19.615521
    9       23.573979
   10       25.700663
   11       26.097075
   12       30.473557
 
 -0.2777778E+00  0.1111111E+00  0.0000000E+00  0.1543210E-02
    1       -9.564260
    2        3.291733
    3        4.185490
    4        4.773584
    5       15.939472
    6       17.474126
    7       18.237817
    8       20.351708
    9       23.967441
   10       25.596580
   11       27.209003
   12       29.405925
 
 -0.2222222E+00  0.1111111E+00  0.0000000E+00  0.1543210E-02
    1      -10.092858
    2        3.805319
    3        4.747365
    4        5.766589
    5       15.765894
    6       17.148958
    7       17.155955
    8       21.033281
    9       23.548862
   10       26.172393
   11       28.321307
   12       28.892227
 
 -0.1666667E+00  0.1111111E+00  0.0000000E+00  0.1543210E-02
    1      -10.471886
    2        3.516364
    3        5.897602
    4        6.872278
    5       15.248828
    6       16.581432
    7       16.782136
    8       21.598565
    9       22.780897
   10       26.824985
   11       28.955044
   12       29.248295
 
 -0.1111111E+00  0.1111111E+00  0.0000000E+00  0.7716049E-03
    1      -10.699904
    2        3.336178
    3        6.803775
    4        7.610877
    5       14.917465
    6       16.088806
    7       16.513854
    8       21.979864
    9       22.154949
   10       27.240840
   11       29.276697
   12       29.837379
 
  0.1666667E+00  0.1666667E+00  0.0000000E+00  0.7716049E-03
    1       -8.963707
    2        2.226012
    3        3.516039
    4        4.582575
    5       16.476699
    6       18.344440
    7       18.427774
    8       19.756951
    9       24.046754
   10       24.886794
   11       26.021733
   12       30.652633
 
  0.2222222E+00  0.1666667E+00  0.0000000E+00  0.1543210E-02
    1       -8.221044
    2        0.879579
    3        2.605409
    4        5.015848
    5       16.711066
    6       18.591324
    7       19.173078
    8       19.495607
    9       23.566159
   10       24.860254
   11       24.873103
   12       32.027501
 
  0.2777778E+00  0.1666667E+00  0.0000000E+00  0.1543210E-02
    1       -7.346305
    2       -0.609278
    3        2.023271
    4        5.434612
    5       16.783890
    6       18.648873
    7       18.908568
    8       20.336069
    9       22.746638
   10       23.878335
   11       25.769631
   12       32.978659
 
  0.3333333E+00  0.1666667E+00  0.0000000E+00  0.1543210E-02
    1       -6.368423
    2       -2.046218
    3        1.662525
    4        5.773380
    5       16.788189
    6       18.239757
    7       19.314092
    8       20.762174
    9       21.967139
   10       23.179933
   11       27.324942
   12       32.740435
 
  0.3888889E+00  0.1666667E+00  0.0000000E+00  0.1543210E-02
    1       -5.439015
    2       -3.215896
    3        1.486311
    4        5.965574
    5       16.778352
    6       18.010707
    7       19.676422
    8       20.947135
    9       21.379646
   10       22.820687
   11       29.224546
   12       31.296653
 
  0.4444444E+00  0.1666667E+00  0.0000000E+00  0.1543210E-02
    1       -5.439321
    2       -3.215609
    3        1.486270
    4        5.965572
    5       16.778617
    6       18.010344
    7       19.676047
    8       20.948495
    9       21.378806
   10       22.821052
   11       29.230708
   12       31.290369
 
  0.5000000E+00  0.1666667E+00  0.0000000E+00  0.1543210E-02
    1       -6.368869
    2       -2.045868
    3        1.662447
    4        5.773373
    5       16.788969
    6       18.238714
    7       19.313621
    8       20.763533
    9       21.966885
   10       23.180989
   11       27.330545
   12       32.734427
 
 -0.4444444E+00  0.1666667E+00  0.0000000E+00  0.1543210E-02
    1       -7.346735
    2       -0.609194
    3        2.023330
    4        5.434596
    5       16.785148
    6       18.647282
    7       18.908416
    8       20.337633
    9       22.746998
   10       23.879966
   11       25.773431
   12       32.973203
 
 -0.3888889E+00  0.1666667E+00  0.0000000E+00  0.1543210E-02
    1       -8.221426
    2        0.878893
    3        2.606087
    4        5.015823
    5       16.712800
    6       18.591693
    7       19.171132
    8       19.497693
    9       23.567620
   10       24.862287
   11       24.873744
   12       32.022241
 
 -0.3333333E+00  0.1666667E+00  0.0000000E+00  0.1543210E-02
    1       -8.964028
    2        2.223825
    3        3.518082
    4        4.582544
    5       16.479197
    6       18.347242
    7       18.427695
    8       19.754863
    9       24.049913
   10       24.883668
   11       26.023974
   12       30.647936
 
 -0.2777778E+00  0.1666667E+00  0.0000000E+00  0.1543210E-02
    1       -9.564319
    2        3.289750
    3        4.185486
    4        4.775733
    5       15.940681
    6       17.474702
    7       18.237131
    8       20.350993
    9       23.966947
   10       25.595986
   11       27.209926
   12       29.405625
 
 -0.2222222E+00  0.1666667E+00  0.0000000E+00  0.1543210E-02
    1      -10.017135
    2        3.861172
    3        4.237306
    4        6.005058
    5       15.231960
    6       17.017192
    7       17.971616
    8       20.905681
    9       23.624066
   10       26.241015
   11       28.230228
   12       28.744875
 
 -0.1666667E+00  0.1666667E+00  0.0000000E+00  0.7716049E-03
    1      -10.320097
    2        3.633630
    3        5.147036
    4        6.768138
    5       14.925668
    6       16.797832
    7       17.430402
    8       21.348157
    9       23.120724
   10       26.632563
   11       28.756501
   12       28.924022
 
  0.2222222E+00  0.2222222E+00  0.0000000E+00  0.7716049E-03
    1       -7.417334
    2        0.010041
    3        1.377309
    4        5.411926
    5       17.245650
    6       18.822667
    7       19.373668
    8       19.706890
    9       23.643160
   10       23.851855
   11       24.167864
   12       33.034338
 
  0.2777778E+00  0.2222222E+00  0.0000000E+00  0.1543210E-02
    1       -6.496706
    2       -1.143019
    3        0.635862
    4        5.760178
    5       17.565899
    6       18.590263
    7       19.500853
    8       20.343277
    9       22.611275
   10       23.280022
   11       25.122630
   12       32.706483
 
  0.3333333E+00  0.2222222E+00  0.0000000E+00  0.1543210E-02
    1       -5.526792
    2       -2.364152
    3        0.286367
    4        6.002555
    5       17.740116
    6       18.472853
    7       19.582511
    8       20.676217
    9       21.908870
   10       22.745117
   11       26.875011
   12       31.116815
 
  0.3888889E+00  0.2222222E+00  0.0000000E+00  0.1543210E-02
    1       -4.925808
    2       -3.062760
    3        0.180739
    4        6.089936
    5       17.794674
    6       18.440296
    7       19.622295
    8       20.777734
    9       21.657343
   10       22.533529
   11       28.676405
   12       29.318035
 
  0.4444444E+00  0.2222222E+00  0.0000000E+00  0.1543210E-02
    1       -5.527301
    2       -2.363915
    3        0.286565
    4        6.002558
    5       17.740587
    6       18.471421
    7       19.582140
    8       20.677303
    9       21.910349
   10       22.745001
   11       26.880865
   12       31.110171
 
  0.5000000E+00  0.2222222E+00  0.0000000E+00  0.1543210E-02
    1       -6.497269
    2       -1.143373
    3        0.636631
    4        5.760179
    5       17.566801
    6       18.587885
    7       19.500497
    8       20.345274
    9       22.613763
   10       23.280233
   11       25.126875
   12       32.700306
 
 -0.4444444E+00  0.2222222E+00  0.0000000E+00  0.1543210E-02
    1       -7.417860
    2        0.008345
    3        1.379317
    4        5.411918
    5       17.247142
    6       18.819836
    7       19.373204
    8       19.710222
    9       23.646190
   10       23.856054
   11       24.166077
   12       33.028698
 
 -0.3888889E+00  0.2222222E+00  0.0000000E+00  0.1543210E-02
    1       -8.221503
    2        0.877123
    3        2.608062
    4        5.015830
    5       16.713716
    6       18.592471
    7       19.170119
    8       19.497532
    9       23.567702
   10       24.863527
   11       24.872073
   12       32.022031
 
 -0.3333333E+00  0.2222222E+00  0.0000000E+00  0.1543210E-02
    1       -8.889439
    2        1.657905
    3        4.006039
    4        4.626720
    5       15.900804
    6       17.832779
    7       19.443013
    8       19.613875
    9       23.573092
   10       25.699040
   11       26.099174
   12       30.473158
 
 -0.2777778E+00  0.2222222E+00  0.0000000E+00  0.1543210E-02
    1       -9.413876
    2        2.485941
    3        4.286627
    4        5.231286
    5       15.098292
    6       17.391322
    7       19.263709
    8       20.102890
    9       23.696226
   10       26.359962
   11       27.160339
   12       29.067441
 
 -0.2222222E+00  0.2222222E+00  0.0000000E+00  0.7716049E-03
    1       -9.790474
    2        3.369520
    3        4.024896
    4        5.957384
    5       14.805784
    6       17.139104
    7       18.799651
    8       20.564804
    9       23.733260
   10       26.462230
   11       27.880411
   12       28.535354
 
  0.2777778E+00  0.2777778E+00  0.0000000E+00  0.7716049E-03
    1       -5.569018
    2       -1.707720
    3       -0.481649
    4        6.014022
    5       18.111087
    6       18.728252
    7       19.556722
    8       20.536332
    9       21.493903
   10       24.539425
   11       24.734513
   12       31.058019
 
  0.3333333E+00  0.2777778E+00  0.0000000E+00  0.1543210E-02
    1       -4.742863
    2       -2.414399
    3       -0.988500
    4        6.154350
    5       18.452850
    6       18.973132
    7       19.402675
    8       20.649994
    9       20.730674
   10       24.370046
   11       26.595084
   12       28.892569
 
  0.3888889E+00  0.2777778E+00  0.0000000E+00  0.1543210E-02
    1       -4.743193
    2       -2.414689
    3       -0.987890
    4        6.154358
    5       18.453095
    6       18.971262
    7       19.402494
    8       20.650486
    9       20.732591
   10       24.370124
   11       26.600944
   12       28.886094
 
  0.4444444E+00  0.2777778E+00  0.0000000E+00  0.1543210E-02
    1       -5.569620
    2       -1.709239
    3       -0.479557
    4        6.014043
    5       18.111822
    6       18.724774
    7       19.556223
    8       20.538034
    9       21.497532
   10       24.543577
   11       24.735300
   12       31.051305
 
  0.5000000E+00  0.2777778E+00  0.0000000E+00  0.1543210E-02
    1       -6.497342
    2       -1.145038
    3        0.638468
    4        5.760199
    5       17.567474
    6       18.586460
    7       19.500328
    8       20.346243
    9       22.615362
   10       23.283075
   11       25.122432
   12       32.700156
 
 -0.4444444E+00  0.2777778E+00  0.0000000E+00  0.1543210E-02
    1       -7.346893
    2       -0.611402
    3        2.025928
    4        5.434624
    5       16.786820
    6       18.645073
    7       18.908750
    8       20.338790
    9       22.747556
   10       23.882586
   11       25.769511
   12       32.972710
 
 -0.3888889E+00  0.2777778E+00  0.0000000E+00  0.1543210E-02
    1       -8.074685
    2        0.014421
    3        3.418507
    4        5.085602
    5       15.794349
    6       18.268923
    7       18.886260
    8       20.381216
    9       22.751224
   10       25.138131
   11       26.515917
   12       31.771484
 
 -0.3333333E+00  0.2777778E+00  0.0000000E+00  0.1543210E-02
    1       -8.666035
    2        0.752880
    3        4.588381
    4        4.757038
    5       14.930436
    6       17.826879
    7       19.261933
    8       20.300052
    9       22.998181
   10       26.194129
   11       27.251997
   12       30.014028
 
 -0.2777778E+00  0.2777778E+00  0.0000000E+00  0.7716049E-03
    1       -9.113794
    2        1.591454
    3        4.482229
    4        5.249781
    5       14.632840
    6       17.542078
    7       19.700344
    8       19.969404
    9       23.342027
   10       26.877161
   11       27.427577
   12       28.791725
 
  0.3333333E+00  0.3333333E+00  0.0000000E+00  0.7716049E-03
    1       -4.380116
    2       -1.976657
    3       -1.973722
    4        6.207686
    5       18.996233
    6       18.996827
    7       19.731873
    8       19.737289
    9       20.639343
   10       26.118309
   11       26.725392
   12       26.728539
 
  0.3888889E+00  0.3333333E+00  0.0000000E+00  0.1543210E-02
    1       -4.743180
    2       -2.416609
    3       -0.985934
    4        6.154380
    5       18.453685
    6       18.968517
    7       19.401968
    8       20.651090
    9       20.735441
   10       24.375469
   11       26.594807
   12       28.886148
 
  0.4444444E+00  0.3333333E+00  0.0000000E+00  0.1543210E-02
    1       -5.527375
    2       -2.366070
    3        0.288946
    4        6.002605
    5       17.741858
    6       18.468327
    7       19.581356
    8       20.678757
    9       21.913722
   10       22.748686
   11       26.874959
   12       31.110173
 
  0.5000000E+00  0.3333333E+00  0.0000000E+00  0.1543210E-02
    1       -6.369073
    2       -2.048106
    3        1.665178
    4        5.773433
    5       16.791240
    6       18.235351
    7       19.313306
    8       20.765405
    9       21.968229
   10       23.184877
   11       27.324985
   12       32.733981
 
 -0.4444444E+00  0.3333333E+00  0.0000000E+00  0.1543210E-02
    1       -7.135360
    2       -1.549888
    3        2.999484
    4        5.499525
    5       15.687305
    6       18.250202
    7       18.786709
    8       20.902045
    9       21.884422
   10       24.417538
   11       27.909636
   12       32.803981
 
 -0.3888889E+00  0.3333333E+00  0.0000000E+00  0.1543210E-02
    1       -7.783210
    2       -0.901757
    3        4.095202
    4        5.216860
    5       14.775135
    6       18.337446
    7       18.472212
    8       20.941632
    9       22.116213
   10       25.428726
   11       28.572690
   12       31.328384
 
 -0.3333333E+00  0.3333333E+00  0.0000000E+00  0.7716049E-03
    1       -8.296351
    2       -0.124341
    3        4.677918
    4        4.960035
    5       14.459554
    6       18.017669
    7       18.839361
    8       20.773969
    9       22.507687
   10       26.033999
   11       28.958818
   12       29.622149
 
  0.3888889E+00  0.3888889E+00  0.0000000E+00  0.7716049E-03
    1       -4.925881
    2       -3.065057
    3        0.183254
    4        6.089996
    5       17.796343
    6       18.435937
    7       19.621029
    8       20.779551
    9       21.662029
   10       22.537595
   11       28.672502
   12       29.315458
 
  0.4444444E+00  0.3888889E+00  0.0000000E+00  0.1543210E-02
    1       -5.439414
    2       -3.217950
    3        1.488998
    4        5.965657
    5       16.781318
    6       18.006130
    7       19.674761
    8       20.950483
    9       21.381330
   10       22.825840
   11       29.224240
   12       31.290352
 
  0.5000000E+00  0.3888889E+00  0.0000000E+00  0.1543210E-02
    1       -6.128430
    2       -2.941982
    3        2.747827
    4        5.794141
    5       15.612628
    6       17.806442
    7       19.363189
    8       20.977575
    9       21.222179
   10       23.978013
   11       29.665038
   12       32.788015
 
 -0.4444444E+00  0.3888889E+00  0.0000000E+00  0.1543210E-02
    1       -6.791004
    2       -2.420721
    3        3.761367
    4        5.595203
    5       14.659894
    6       17.844824
    7       18.925243
    8       21.179479
    9       21.310059
   10       24.908989
   11       30.187149
   12       32.529605
 
 -0.3888889E+00  0.3888889E+00  0.0000000E+00  0.7716049E-03
    1       -7.351547
    2       -1.728089
    3        4.262192
    4        5.394205
    5       14.318426
    6       18.088706
    7       18.571925
    8       21.208697
    9       21.611822
   10       25.413482
   11       30.621126
   12       30.901599
 
  0.4444444E+00  0.4444444E+00  0.0000000E+00  0.7716049E-03
    1       -5.475565
    2       -3.724681
    3        2.664502
    4        5.901849
    5       15.586172
    6       17.645844
    7       19.775883
    8       20.546786
    9       21.217998
   10       23.831034
   11       31.222384
   12       31.745385
 
  0.5000000E+00  0.4444444E+00  0.0000000E+00  0.1543210E-02
    1       -5.833816
    2       -3.644672
    3        3.593269
    4        5.812543
    5       14.598918
    6       17.493006
    7       19.568730
    8       20.433012
    9       21.372265
   10       24.648311
   11       31.795216
   12       32.837928
 
 -0.4444444E+00  0.4444444E+00  0.0000000E+00  0.7716049E-03
    1       -6.335736
    2       -3.145854
    3        4.009650
    4        5.705484
    5       14.227559
    6       17.568244
    7       19.202896
    8       20.755430
    9       21.394757
   10       25.038371
   11       32.135696
   12       32.218634
 
  0.5000000E+00  0.5000000E+00  0.0000000E+00  0.3858025E-03
    1       -5.670244
    2       -3.945596
    3        3.924859
    4        5.819222
    5       14.196303
    6       17.380443
    7       19.783792
    8       20.097245
    9       21.443682
   10       24.913308
   11       32.839324
   12       32.871113
 