32   
4    

1    
  0.0072350231885394  -0.0000003260981072   0.0069032194920165
   0.1877941900    0.0055403100   -1.1079156200
  -0.0229786600   -0.0133573200    0.1084142000
  -0.0001006400    0.0135966900    0.1080806800
  -0.0155780300   -0.0051206300    0.0976496000
   0.0205539200   -0.0010021600   -0.2205631000
  -0.0050050500   -0.0106561200   -0.0492698800
   0.0047653800    0.0056950900   -0.0448461200
  -0.0060918800   -0.0005231900   -0.0433544600
  -0.0021090800   -0.0004408600   -0.0344470900
  -0.0163695000   -0.0064012100   -0.0653448200
  -0.0027538500    0.0132391400   -0.0431480300
  -0.2068115400    0.0042549100    0.7443986700
  -0.0092786800    0.0028520200   -0.0524476300
  -0.0117185400   -0.0021409400   -0.0273008800
  -0.0048799300    0.0050860700   -0.0470147600
  -0.1930531600    0.0027788300    0.7109560000
  -0.0025752900   -0.0009589900    0.0279657000
   0.0029654700   -0.0013660600    0.0065245900
   0.0790554800    0.0440240300    0.0089837000
   0.0908903700   -0.0513105500    0.0058944500
   0.0013479500   -0.0012416300   -0.0061998500
   0.0034635600   -0.0024508000   -0.0405442900
  -0.0060798000   -0.0081994900   -0.0405691900
  -0.0045870900    0.0013336300   -0.0408067800
  -0.0214169600    0.0079112900   -0.0407459000
   0.0700198700    0.0499592600    0.0663657400
  -0.0122753300   -0.0565891100    0.0126633700
   0.0271276600    0.0019030400   -0.0259177300
   0.0664494000   -0.0442659300    0.0719140300
  -0.0214541600   -0.0038845300   -0.0377176100
  -0.0118850700    0.0488097600    0.0181034600
   0.0225690000    0.0029254500   -0.0197604500

1    
 -0.0072350231885394   0.0000003260981072  -0.0069032194920165
  -0.1889757500    0.0061710700    1.1055543300
   0.0219127500   -0.0127988900   -0.1096008300
   0.0134324300   -0.0051937600   -0.1032263000
  -0.0012903600    0.0135699300   -0.1068016600
  -0.0217422100   -0.0003925700    0.2191029100
   0.0037672100   -0.0114615200    0.0476029600
   0.0049538700   -0.0008013400    0.0471865700
  -0.0071808500    0.0051874400    0.0407290500
   0.0117206100   -0.0015953100    0.0236619400
   0.0091011300    0.0030019300    0.0501824100
   0.0048737700    0.0046879700    0.0375388400
   0.1945643500    0.0026493400   -0.7091541100
   0.0182983700   -0.0065505100    0.0719076200
   0.0020031700   -0.0003393000    0.0383783800
   0.0031629100    0.0138646300    0.0554130400
   0.2094639800    0.0039504200   -0.7423683700
   0.0026091100   -0.0006779600   -0.0289086900
  -0.0044672200   -0.0013889400   -0.0071171400
  -0.0920796800   -0.0529891800   -0.0054982600
  -0.0811007200    0.0419579900   -0.0093788400
  -0.0006320800   -0.0006783700    0.0062385200
  -0.0043942300   -0.0006730100    0.0401878300
   0.0016155800    0.0011178000    0.0400297100
   0.0063688300   -0.0086073100    0.0414672200
   0.0205813800   -0.0023148100    0.0367279000
  -0.0672529600   -0.0437531600   -0.0729458800
   0.0126361000    0.0490676400   -0.0180448400
  -0.0222092700    0.0026345100    0.0187401000
  -0.0683770800    0.0513756800   -0.0656677100
   0.0252092700    0.0075200800    0.0419307200
   0.0168770400   -0.0578424000   -0.0117498600
  -0.0234494600    0.0013019200    0.0278824300

17   
  0.0072350231885394  -0.0000003260981072   0.0069032194920165
  -0.0162964900    0.0040440300    0.0008288000
  -0.0008827400   -0.0083041000   -0.0035709100
   0.0890371200    0.0481802600   -0.0083699300
   0.0719393000   -0.0437705900   -0.0007403700
  -0.0070550000    0.0048373500    0.0250884700
   0.0010659700   -0.0018757800   -0.0225881500
  -0.0074667400   -0.0075271700   -0.0252772900
  -0.0075677600    0.0049536500   -0.0170466600
  -0.0294633300    0.0013836400   -0.0517586700
   0.0738054500    0.0491962600    0.0478856400
  -0.0235023900   -0.0602912400   -0.0030591500
   0.0270496200   -0.0029181400   -0.0416557900
   0.0707232900   -0.0566658500    0.0674677600
  -0.0254027700   -0.0080321400   -0.0189410500
  -0.0225910200    0.0521105400    0.0260183600
   0.0265814000   -0.0044612100   -0.0080497200
  -0.1579426600    0.0036466000    0.0430078300
   0.0337328700    0.0009558400    0.0467867700
   0.0149436100   -0.0124966600    0.0457711200
   0.0254643200    0.0108049000    0.0495857700
  -0.0062986200    0.0106112900    0.0473405700
  -0.0072783200   -0.0040540500   -0.0312644200
  -0.0407715000   -0.0181715900   -0.0304824600
  -0.0436202700    0.0279263500   -0.0312156700
  -0.0201343200    0.0203515600   -0.0193478000
  -0.0162265300   -0.0095039400   -0.0155287400
  -0.0018015400    0.0016585600   -0.0164423700
   0.0277178600    0.0020825300   -0.0049057300
  -0.0219935500    0.0132134300   -0.0162111600
  -0.0211646300   -0.0130240300   -0.0157080900
  -0.0075743500   -0.0010436700   -0.0157828800
   0.0229737200   -0.0038166400   -0.0018340700

17   
 -0.0072350231885394   0.0000003260981072  -0.0069032194920165
   0.0128768900    0.0009514000   -0.0036814400
  -0.0018023200   -0.0102654700    0.0028620100
  -0.0753639300   -0.0452837000    0.0019572700
  -0.0916319200    0.0464130700    0.0042581000
   0.0049797100    0.0008774100   -0.0231943300
  -0.0041383600   -0.0028698800    0.0221647800
   0.0024006200    0.0038413700    0.0171793800
   0.0063370600   -0.0095997600    0.0298338600
   0.0268909000   -0.0076039600    0.0186251800
  -0.0667426500   -0.0556401100   -0.0677620300
   0.0252237000    0.0537041500   -0.0240997900
  -0.0238791400   -0.0020489800    0.0079724400
  -0.0726932600    0.0521135700   -0.0477732700
   0.0330820400    0.0035672400    0.0504494500
   0.0265503400   -0.0588959200    0.0022917600
  -0.0250938400   -0.0001883200    0.0426319800
   0.1583855700    0.0043771000   -0.0402738400
  -0.0360357600    0.0019670100   -0.0444766100
  -0.0253371800    0.0125003800   -0.0468400300
  -0.0189301500   -0.0120631200   -0.0429877800
  -0.0027439900    0.0109831300   -0.0494347300
  -0.0029557400   -0.0032758700    0.0299909600
   0.0350851200    0.0289092800    0.0311149000
   0.0286838100   -0.0180751600    0.0276607700
   0.0289177300   -0.0138592300    0.0154080700
   0.0251394600    0.0124377400    0.0148981900
   0.0145069400    0.0002215400    0.0146443200
  -0.0179859000   -0.0057335100    0.0015269500
   0.0253391900   -0.0111443100    0.0157865800
   0.0240414000    0.0201679700    0.0183080100
   0.0081612200    0.0035269300    0.0163805300
  -0.0212675400   -0.0000119800    0.0045783600
