# Thermal properties / unit cell (natom)

unit:
  temperature:   K
  free_energy:   kJ/mol
  entropy:       J/K/mol
  heat_capacity: J/K/mol

natom:     4
num_modes: 3888
num_integrated_modes: 3344

zero_point_energy:      57.9594963
high_T_entropy:        195.9243886

thermal_properties:
- temperature:         0.0000000
  free_energy:        57.9594963
  entropy:             0.0000000
  heat_capacity:       0.0000000
  energy:             57.9594963

- temperature:        10.0000000
  free_energy:        57.9591991
  entropy:             0.0946942
  heat_capacity:       0.1563392
  energy:             57.9601460

- temperature:        20.0000000
  free_energy:        57.9574822
  entropy:             0.2494009
  heat_capacity:       0.3199476
  energy:             57.9624702

- temperature:        30.0000000
  free_energy:        57.9541502
  entropy:             0.4211784
  heat_capacity:       0.5546597
  energy:             57.9667856

- temperature:        40.0000000
  free_energy:        57.9489664
  entropy:             0.6203830
  heat_capacity:       0.8541849
  energy:             57.9737817

- temperature:        50.0000000
  free_energy:        57.9416487
  entropy:             0.8476516
  heat_capacity:       1.2027988
  energy:             57.9840313

- temperature:        60.0000000
  free_energy:        57.9319271
  entropy:             1.1008739
  heat_capacity:       1.5946014
  energy:             57.9979795

- temperature:        70.0000000
  free_energy:        57.9195472
  entropy:             1.3793861
  heat_capacity:       2.0408487
  energy:             58.0161043

- temperature:        80.0000000
  free_energy:        57.9042498
  entropy:             1.6848154
  heat_capacity:       2.5585011
  energy:             58.0390350

- temperature:        90.0000000
  free_energy:        57.8857515
  entropy:             2.0200647
  heat_capacity:       3.1608287
  energy:             58.0675573

- temperature:       100.0000000
  free_energy:        57.8637389
  entropy:             2.3881665
  heat_capacity:       3.8541212
  energy:             58.1025555

- temperature:       110.0000000
  free_energy:        57.8378704
  entropy:             2.7915627
  heat_capacity:       4.6380175
  energy:             58.1449423

- temperature:       120.0000000
  free_energy:        57.8077847
  entropy:             3.2317980
  heat_capacity:       5.5071956
  energy:             58.1956005

- temperature:       130.0000000
  free_energy:        57.7731095
  entropy:             3.7094859
  heat_capacity:       6.4532690
  energy:             58.2553427

- temperature:       140.0000000
  free_energy:        57.7334708
  entropy:             4.2244191
  heat_capacity:       7.4664132
  energy:             58.3248895

- temperature:       150.0000000
  free_energy:        57.6884998
  entropy:             4.7757410
  heat_capacity:       8.5365738
  energy:             58.4048610

- temperature:       160.0000000
  free_energy:        57.6378391
  entropy:             5.3621260
  heat_capacity:       9.6542536
  energy:             58.4957792

- temperature:       170.0000000
  free_energy:        57.5811458
  entropy:             5.9819418
  heat_capacity:      10.8109437
  energy:             58.5980759

- temperature:       180.0000000
  free_energy:        57.5180948
  entropy:             6.6333815
  heat_capacity:      11.9992853
  energy:             58.7121035

- temperature:       190.0000000
  free_energy:        57.4483791
  entropy:             7.3145643
  heat_capacity:      13.2130522
  energy:             58.8381463

- temperature:       200.0000000
  free_energy:        57.3717107
  entropy:             8.0236057
  heat_capacity:      14.4470273
  energy:             58.9764318

- temperature:       210.0000000
  free_energy:        57.2878202
  entropy:             8.7586633
  heat_capacity:      15.6968324
  energy:             59.1271395

- temperature:       220.0000000
  free_energy:        57.1964566
  entropy:             9.5179644
  heat_capacity:      16.9587496
  energy:             59.2904088

- temperature:       230.0000000
  free_energy:        57.0973858
  entropy:            10.2998189
  heat_capacity:      18.2295585
  energy:             59.4663441

- temperature:       240.0000000
  free_energy:        56.9903904
  entropy:            11.1026234
  heat_capacity:      19.5064015
  energy:             59.6550200

- temperature:       250.0000000
  free_energy:        56.8752686
  entropy:            11.9248601
  heat_capacity:      20.7866793
  energy:             59.8564836

- temperature:       260.0000000
  free_energy:        56.7518332
  entropy:            12.7650914
  heat_capacity:      22.0679779
  energy:             60.0707570

- temperature:       270.0000000
  free_energy:        56.6199113
  entropy:            13.6219542
  heat_capacity:      23.3480197
  energy:             60.2978389

- temperature:       280.0000000
  free_energy:        56.4793430
  entropy:            14.4941533
  heat_capacity:      24.6246356
  energy:             60.5377059

- temperature:       290.0000000
  free_energy:        56.3299812
  entropy:            15.3804555
  heat_capacity:      25.8957528
  energy:             60.7903133

- temperature:       300.0000000
  free_energy:        56.1716908
  entropy:            16.2796842
  heat_capacity:      27.1593922
  energy:             61.0555961

- temperature:       310.0000000
  free_energy:        56.0043482
  entropy:            17.1907153
  heat_capacity:      28.4136719
  energy:             61.3334699

- temperature:       320.0000000
  free_energy:        55.8278408
  entropy:            18.1124738
  heat_capacity:      29.6568154
  energy:             61.6238324

- temperature:       330.0000000
  free_energy:        55.6420664
  entropy:            19.0439308
  heat_capacity:      30.8871597
  energy:             61.9265636

- temperature:       340.0000000
  free_energy:        55.4469331
  entropy:            19.9841019
  heat_capacity:      32.1031630
  energy:             62.2415277

- temperature:       350.0000000
  free_energy:        55.2423585
  entropy:            20.9320453
  heat_capacity:      33.3034115
  energy:             62.5685743

- temperature:       360.0000000
  free_energy:        55.0282693
  entropy:            21.8868608
  heat_capacity:      34.4866244
  energy:             62.9075392

- temperature:       370.0000000
  free_energy:        54.8046012
  entropy:            22.8476891
  heat_capacity:      35.6516553
  energy:             63.2582462

- temperature:       380.0000000
  free_energy:        54.5712982
  entropy:            23.8137108
  heat_capacity:      36.7974936
  energy:             63.6205083

- temperature:       390.0000000
  free_energy:        54.3283123
  entropy:            24.7841458
  heat_capacity:      37.9232621
  energy:             63.9941291

- temperature:       400.0000000
  free_energy:        54.0756031
  entropy:            25.7582527
  heat_capacity:      39.0282134
  energy:             64.3789041

- temperature:       410.0000000
  free_energy:        53.8131373
  entropy:            26.7353282
  heat_capacity:      40.1117257
  energy:             64.7746219

- temperature:       420.0000000
  free_energy:        53.5408888
  entropy:            27.7147064
  heat_capacity:      41.1732963
  energy:             65.1810655

- temperature:       430.0000000
  free_energy:        53.2588376
  entropy:            28.6957576
  heat_capacity:      42.2125343
  energy:             65.5980134

- temperature:       440.0000000
  free_energy:        52.9669701
  entropy:            29.6778880
  heat_capacity:      43.2291541
  energy:             66.0252408

- temperature:       450.0000000
  free_energy:        52.6652782
  entropy:            30.6605384
  heat_capacity:      44.2229667
  energy:             66.4625204

- temperature:       460.0000000
  free_energy:        52.3537593
  entropy:            31.6431835
  heat_capacity:      45.1938718
  energy:             66.9096237

- temperature:       470.0000000
  free_energy:        52.0324161
  entropy:            32.6253304
  heat_capacity:      46.1418503
  energy:             67.3663214

- temperature:       480.0000000
  free_energy:        51.7012559
  entropy:            33.6065179
  heat_capacity:      47.0669560
  energy:             67.8323845

- temperature:       490.0000000
  free_energy:        51.3602904
  entropy:            34.5863149
  heat_capacity:      47.9693078
  energy:             68.3075847

- temperature:       500.0000000
  free_energy:        51.0095356
  entropy:            35.5643196
  heat_capacity:      48.8490830
  energy:             68.7916954

- temperature:       510.0000000
  free_energy:        50.6490113
  entropy:            36.5401581
  heat_capacity:      49.7065101
  energy:             69.2844919

- temperature:       520.0000000
  free_energy:        50.2787408
  entropy:            37.5134831
  heat_capacity:      50.5418623
  energy:             69.7857520

- temperature:       530.0000000
  free_energy:        49.8987511
  entropy:            38.4839727
  heat_capacity:      51.3554513
  energy:             70.2952566

- temperature:       540.0000000
  free_energy:        49.5090718
  entropy:            39.4513293
  heat_capacity:      52.1476221
  energy:             70.8127896

- temperature:       550.0000000
  free_energy:        49.1097358
  entropy:            40.4152782
  heat_capacity:      52.9187478
  energy:             71.3381389

- temperature:       560.0000000
  free_energy:        48.7007785
  entropy:            41.3755666
  heat_capacity:      53.6692245
  energy:             71.8710958

- temperature:       570.0000000
  free_energy:        48.2822375
  entropy:            42.3319622
  heat_capacity:      54.3994676
  energy:             72.4114559

- temperature:       580.0000000
  free_energy:        47.8541529
  entropy:            43.2842521
  heat_capacity:      55.1099075
  energy:             72.9590191

- temperature:       590.0000000
  free_energy:        47.4165668
  entropy:            44.2322420
  heat_capacity:      55.8009866
  energy:             73.5135895

- temperature:       600.0000000
  free_energy:        46.9695230
  entropy:            45.1757547
  heat_capacity:      56.4731558
  energy:             74.0749758

- temperature:       610.0000000
  free_energy:        46.5130671
  entropy:            46.1146295
  heat_capacity:      57.1268718
  energy:             74.6429911

- temperature:       620.0000000
  free_energy:        46.0472463
  entropy:            47.0487208
  heat_capacity:      57.7625949
  energy:             75.2174533

- temperature:       630.0000000
  free_energy:        45.5721091
  entropy:            47.9778976
  heat_capacity:      58.3807866
  energy:             75.7981846

- temperature:       640.0000000
  free_energy:        45.0877052
  entropy:            48.9020421
  heat_capacity:      58.9819080
  energy:             76.3850121

- temperature:       650.0000000
  free_energy:        44.5940854
  entropy:            49.8210492
  heat_capacity:      59.5664177
  energy:             76.9777674

- temperature:       660.0000000
  free_energy:        44.0913016
  entropy:            50.7348257
  heat_capacity:      60.1347707
  energy:             77.5762866

- temperature:       670.0000000
  free_energy:        43.5794066
  entropy:            51.6432893
  heat_capacity:      60.6874173
  energy:             78.1804104

- temperature:       680.0000000
  free_energy:        43.0584538
  entropy:            52.5463681
  heat_capacity:      61.2248017
  energy:             78.7899841

- temperature:       690.0000000
  free_energy:        42.5284974
  entropy:            53.4439995
  heat_capacity:      61.7473613
  energy:             79.4048571

- temperature:       700.0000000
  free_energy:        41.9895921
  entropy:            54.3361303
  heat_capacity:      62.2555260
  energy:             80.0248833

- temperature:       710.0000000
  free_energy:        41.4417933
  entropy:            55.2227151
  heat_capacity:      62.7497175
  energy:             80.6499210

- temperature:       720.0000000
  free_energy:        40.8851564
  entropy:            56.1037167
  heat_capacity:      63.2303487
  energy:             81.2798325

- temperature:       730.0000000
  free_energy:        40.3197376
  entropy:            56.9791048
  heat_capacity:      63.6978237
  energy:             81.9144841

- temperature:       740.0000000
  free_energy:        39.7455931
  entropy:            57.8488558
  heat_capacity:      64.1525370
  energy:             82.5537464

- temperature:       750.0000000
  free_energy:        39.1627794
  entropy:            58.7129523
  heat_capacity:      64.5948737
  energy:             83.1974936

- temperature:       760.0000000
  free_energy:        38.5713530
  entropy:            59.5713828
  heat_capacity:      65.0252089
  energy:             83.8456039

- temperature:       770.0000000
  free_energy:        37.9713706
  entropy:            60.4241407
  heat_capacity:      65.4439080
  energy:             84.4979590

- temperature:       780.0000000
  free_energy:        37.3628891
  entropy:            61.2712248
  heat_capacity:      65.8513266
  energy:             85.1544444

- temperature:       790.0000000
  free_energy:        36.7459650
  entropy:            62.1126380
  heat_capacity:      66.2478102
  energy:             85.8149491

- temperature:       800.0000000
  free_energy:        36.1206552
  entropy:            62.9483876
  heat_capacity:      66.6336947
  energy:             86.4793653

- temperature:       810.0000000
  free_energy:        35.4870161
  entropy:            63.7784847
  heat_capacity:      67.0093060
  energy:             87.1475887

- temperature:       820.0000000
  free_energy:        34.8451043
  entropy:            64.6029438
  heat_capacity:      67.3749605
  energy:             87.8195182

- temperature:       830.0000000
  free_energy:        34.1949760
  entropy:            65.4217829
  heat_capacity:      67.7309652
  energy:             88.4950558

- temperature:       840.0000000
  free_energy:        33.5366873
  entropy:            66.2350227
  heat_capacity:      68.0776173
  energy:             89.1741064

- temperature:       850.0000000
  free_energy:        32.8702941
  entropy:            67.0426868
  heat_capacity:      68.4152052
  energy:             89.8565779

- temperature:       860.0000000
  free_energy:        32.1958521
  entropy:            67.8448013
  heat_capacity:      68.7440082
  energy:             90.5423812

- temperature:       870.0000000
  free_energy:        31.5134165
  entropy:            68.6413945
  heat_capacity:      69.0642967
  energy:             91.2314297

- temperature:       880.0000000
  free_energy:        30.8230425
  entropy:            69.4324967
  heat_capacity:      69.3763325
  energy:             91.9236396

- temperature:       890.0000000
  free_energy:        30.1247848
  entropy:            70.2181404
  heat_capacity:      69.6803689
  energy:             92.6189297

- temperature:       900.0000000
  free_energy:        29.4186977
  entropy:            70.9983593
  heat_capacity:      69.9766512
  energy:             93.3172211

- temperature:       910.0000000
  free_energy:        28.7048355
  entropy:            71.7731891
  heat_capacity:      70.2654167
  energy:             94.0184376

- temperature:       920.0000000
  free_energy:        27.9832518
  entropy:            72.5426667
  heat_capacity:      70.5468947
  energy:             94.7225052

- temperature:       930.0000000
  free_energy:        27.2539999
  entropy:            73.3068302
  heat_capacity:      70.8213073
  energy:             95.4293520

- temperature:       940.0000000
  free_energy:        26.5171328
  entropy:            74.0657188
  heat_capacity:      71.0888691
  energy:             96.1389085

- temperature:       950.0000000
  free_energy:        25.7727030
  entropy:            74.8193729
  heat_capacity:      71.3497875
  energy:             96.8511072

- temperature:       960.0000000
  free_energy:        25.0207626
  entropy:            75.5678335
  heat_capacity:      71.6042633
  energy:             97.5658828

- temperature:       970.0000000
  free_energy:        24.2613635
  entropy:            76.3111425
  heat_capacity:      71.8524905
  energy:             98.2831717

- temperature:       980.0000000
  free_energy:        23.4945568
  entropy:            77.0493424
  heat_capacity:      72.0946565
  energy:             99.0029124

- temperature:       990.0000000
  free_energy:        22.7203935
  entropy:            77.7824764
  heat_capacity:      72.3309427
  energy:             99.7250452

- temperature:      1000.0000000
  free_energy:        21.9389240
  entropy:            78.5105882
  heat_capacity:      72.5615244
  energy:            100.4495122
