# Thermal properties / unit cell (natom)

unit:
  temperature:   K
  free_energy:   kJ/mol
  entropy:       J/K/mol
  heat_capacity: J/K/mol

natom:     4
num_modes: 3888
num_integrated_modes: 2166

zero_point_energy:      43.2008106
high_T_entropy:        121.8193382

thermal_properties:
- temperature:         0.0000000
  free_energy:        43.2008106
  entropy:             0.0000000
  heat_capacity:       0.0000000
  energy:             43.2008106

- temperature:        10.0000000
  free_energy:        43.2008106
  entropy:             0.0000688
  heat_capacity:       0.0006066
  energy:             43.2008113

- temperature:        20.0000000
  free_energy:        43.2007923
  entropy:             0.0057466
  heat_capacity:       0.0267177
  energy:             43.2009072

- temperature:        30.0000000
  free_energy:        43.2006321
  entropy:             0.0301381
  heat_capacity:       0.1090153
  energy:             43.2015363

- temperature:        40.0000000
  free_energy:        43.2001065
  entropy:             0.0792706
  heat_capacity:       0.2480389
  energy:             43.2032773

- temperature:        50.0000000
  free_energy:        43.1989614
  entropy:             0.1539274
  heat_capacity:       0.4352592
  energy:             43.2066578

- temperature:        60.0000000
  free_energy:        43.1969474
  entropy:             0.2527455
  heat_capacity:       0.6614937
  energy:             43.2121121

- temperature:        70.0000000
  free_energy:        43.1938324
  entropy:             0.3738077
  heat_capacity:       0.9212974
  energy:             43.2199989

- temperature:        80.0000000
  free_energy:        43.1894023
  entropy:             0.5155777
  heat_capacity:       1.2143629
  energy:             43.2306485

- temperature:        90.0000000
  free_energy:        43.1834545
  entropy:             0.6772644
  heat_capacity:       1.5441220
  energy:             43.2444083

- temperature:       100.0000000
  free_energy:        43.1757909
  entropy:             0.8587916
  heat_capacity:       1.9156164
  energy:             43.2616701

- temperature:       110.0000000
  free_energy:        43.1662112
  entropy:             1.0605927
  heat_capacity:       2.3337775
  energy:             43.2828764

- temperature:       120.0000000
  free_energy:        43.1545091
  entropy:             1.2833733
  heat_capacity:       2.8023720
  energy:             43.3085139

- temperature:       130.0000000
  free_energy:        43.1404712
  entropy:             1.5279075
  heat_capacity:       3.3235104
  energy:             43.3390991

- temperature:       140.0000000
  free_energy:        43.1238761
  entropy:             1.7948891
  heat_capacity:       3.8975347
  energy:             43.3751606

- temperature:       150.0000000
  free_energy:        43.1044968
  entropy:             2.0848340
  heat_capacity:       4.5231341
  energy:             43.4172219

- temperature:       160.0000000
  free_energy:        43.0821019
  entropy:             2.3980269
  heat_capacity:       5.1975828
  energy:             43.4657862

- temperature:       170.0000000
  free_energy:        43.0564586
  entropy:             2.7345000
  heat_capacity:       5.9170303
  energy:             43.5213237

- temperature:       180.0000000
  free_energy:        43.0273350
  entropy:             3.0940349
  heat_capacity:       6.6768025
  energy:             43.5842613

- temperature:       190.0000000
  free_energy:        42.9945026
  entropy:             3.4761801
  heat_capacity:       7.4716874
  energy:             43.6549768

- temperature:       200.0000000
  free_energy:        42.9577382
  entropy:             3.8802778
  heat_capacity:       8.2961886
  energy:             43.7337938

- temperature:       210.0000000
  free_energy:        42.9168266
  entropy:             4.3054958
  heat_capacity:       9.1447408
  energy:             43.8209807

- temperature:       220.0000000
  free_energy:        42.8715612
  entropy:             4.7508609
  heat_capacity:      10.0118834
  energy:             43.9167506

- temperature:       230.0000000
  free_energy:        42.8217458
  entropy:             5.2152917
  heat_capacity:      10.8923935
  energy:             44.0212629

- temperature:       240.0000000
  free_energy:        42.7671956
  entropy:             5.6976292
  heat_capacity:      11.7813828
  energy:             44.1346266

- temperature:       250.0000000
  free_energy:        42.7077376
  entropy:             6.1966650
  heat_capacity:      12.6743609
  energy:             44.2569038

- temperature:       260.0000000
  free_energy:        42.6432108
  entropy:             6.7111647
  heat_capacity:      13.5672731
  energy:             44.3881136

- temperature:       270.0000000
  free_energy:        42.5734668
  entropy:             7.2398894
  heat_capacity:      14.4565155
  energy:             44.5282370

- temperature:       280.0000000
  free_energy:        42.4983697
  entropy:             7.7816123
  heat_capacity:      15.3389334
  energy:             44.6772211

- temperature:       290.0000000
  free_energy:        42.4177953
  entropy:             8.3351328
  heat_capacity:      16.2118073
  energy:             44.8349838

- temperature:       300.0000000
  free_energy:        42.3316316
  entropy:             8.8992871
  heat_capacity:      17.0728298
  energy:             45.0014177

- temperature:       310.0000000
  free_energy:        42.2397778
  entropy:             9.4729568
  heat_capacity:      17.9200768
  energy:             45.1763944

- temperature:       320.0000000
  free_energy:        42.1421443
  entropy:            10.0550743
  heat_capacity:      18.7519753
  energy:             45.3597680

- temperature:       330.0000000
  free_energy:        42.0386516
  entropy:            10.6446272
  heat_capacity:      19.5672694
  energy:             45.5513786

- temperature:       340.0000000
  free_energy:        41.9292301
  entropy:            11.2406608
  heat_capacity:      20.3649863
  energy:             45.7510548

- temperature:       350.0000000
  free_energy:        41.8138197
  entropy:            11.8422786
  heat_capacity:      21.1444035
  energy:             45.9586173

- temperature:       360.0000000
  free_energy:        41.6923688
  entropy:            12.4486429
  heat_capacity:      21.9050169
  energy:             46.1738802

- temperature:       370.0000000
  free_energy:        41.5648337
  entropy:            13.0589735
  heat_capacity:      22.6465120
  energy:             46.3966538

- temperature:       380.0000000
  free_energy:        41.4311785
  entropy:            13.6725465
  heat_capacity:      23.3687363
  energy:             46.6267462

- temperature:       390.0000000
  free_energy:        41.2913742
  entropy:            14.2886926
  heat_capacity:      24.0716751
  energy:             46.8639643

- temperature:       400.0000000
  free_energy:        41.1453981
  entropy:            14.9067940
  heat_capacity:      24.7554293
  energy:             47.1081157

- temperature:       410.0000000
  free_energy:        40.9932337
  entropy:            15.5262827
  heat_capacity:      25.4201956
  energy:             47.3590096

- temperature:       420.0000000
  free_energy:        40.8348696
  entropy:            16.1466373
  heat_capacity:      26.0662493
  energy:             47.6164572

- temperature:       430.0000000
  free_energy:        40.6702996
  entropy:            16.7673806
  heat_capacity:      26.6939291
  energy:             47.8802733

- temperature:       440.0000000
  free_energy:        40.4995221
  entropy:            17.3880767
  heat_capacity:      27.3036235
  energy:             48.1502759

- temperature:       450.0000000
  free_energy:        40.3225396
  entropy:            18.0083281
  heat_capacity:      27.8957596
  energy:             48.4262872

- temperature:       460.0000000
  free_energy:        40.1393583
  entropy:            18.6277735
  heat_capacity:      28.4707935
  energy:             48.7081341

- temperature:       470.0000000
  free_energy:        39.9499879
  entropy:            19.2460846
  heat_capacity:      29.0292013
  energy:             48.9956477

- temperature:       480.0000000
  free_energy:        39.7544413
  entropy:            19.8629645
  heat_capacity:      29.5714727
  energy:             49.2886643

- temperature:       490.0000000
  free_energy:        39.5527343
  entropy:            20.4781443
  heat_capacity:      30.0981045
  energy:             49.5870250

- temperature:       500.0000000
  free_energy:        39.3448849
  entropy:            21.0913820
  heat_capacity:      30.6095960
  energy:             49.8905759

- temperature:       510.0000000
  free_energy:        39.1309138
  entropy:            21.7024593
  heat_capacity:      31.1064448
  energy:             50.1991681

- temperature:       520.0000000
  free_energy:        38.9108436
  entropy:            22.3111808
  heat_capacity:      31.5891435
  energy:             50.5126576

- temperature:       530.0000000
  free_energy:        38.6846987
  entropy:            22.9173713
  heat_capacity:      32.0581769
  energy:             50.8309054

- temperature:       540.0000000
  free_energy:        38.4525051
  entropy:            23.5208742
  heat_capacity:      32.5140202
  energy:             51.1537772

- temperature:       550.0000000
  free_energy:        38.2142906
  entropy:            24.1215506
  heat_capacity:      32.9571368
  energy:             51.4811434

- temperature:       560.0000000
  free_energy:        37.9700840
  entropy:            24.7192769
  heat_capacity:      33.3879778
  energy:             51.8128790

- temperature:       570.0000000
  free_energy:        37.7199153
  entropy:            25.3139443
  heat_capacity:      33.8069804
  energy:             52.1488635

- temperature:       580.0000000
  free_energy:        37.4638156
  entropy:            25.9054569
  heat_capacity:      34.2145676
  energy:             52.4889806

- temperature:       590.0000000
  free_energy:        37.2018169
  entropy:            26.4937309
  heat_capacity:      34.6111480
  energy:             52.8331182

- temperature:       600.0000000
  free_energy:        36.9339520
  entropy:            27.0786936
  heat_capacity:      34.9971151
  energy:             53.1811682

- temperature:       610.0000000
  free_energy:        36.6602543
  entropy:            27.6602821
  heat_capacity:      35.3728479
  energy:             53.5330264

- temperature:       620.0000000
  free_energy:        36.3807578
  entropy:            28.2384426
  heat_capacity:      35.7387103
  energy:             53.8885922

- temperature:       630.0000000
  free_energy:        36.0954970
  entropy:            28.8131299
  heat_capacity:      36.0950521
  energy:             54.2477688

- temperature:       640.0000000
  free_energy:        35.8045069
  entropy:            29.3843059
  heat_capacity:      36.4422087
  energy:             54.6104627

- temperature:       650.0000000
  free_energy:        35.5078227
  entropy:            29.9519396
  heat_capacity:      36.7805016
  energy:             54.9765835

- temperature:       660.0000000
  free_energy:        35.2054800
  entropy:            30.5160063
  heat_capacity:      37.1102388
  energy:             55.3460442

- temperature:       670.0000000
  free_energy:        34.8975145
  entropy:            31.0764868
  heat_capacity:      37.4317155
  energy:             55.7187607

- temperature:       680.0000000
  free_energy:        34.5839623
  entropy:            31.6333671
  heat_capacity:      37.7452142
  energy:             56.0946519

- temperature:       690.0000000
  free_energy:        34.2648592
  entropy:            32.1866378
  heat_capacity:      38.0510054
  energy:             56.4736393

- temperature:       700.0000000
  free_energy:        33.9402416
  entropy:            32.7362937
  heat_capacity:      38.3493479
  energy:             56.8556472

- temperature:       710.0000000
  free_energy:        33.6101454
  entropy:            33.2823336
  heat_capacity:      38.6404896
  energy:             57.2406023

- temperature:       720.0000000
  free_energy:        33.2746069
  entropy:            33.8247595
  heat_capacity:      38.9246675
  energy:             57.6284338

- temperature:       730.0000000
  free_energy:        32.9336623
  entropy:            34.3635766
  heat_capacity:      39.2021087
  energy:             58.0190732

- temperature:       740.0000000
  free_energy:        32.5873474
  entropy:            34.8987930
  heat_capacity:      39.4730307
  energy:             58.4124542

- temperature:       750.0000000
  free_energy:        32.2356984
  entropy:            35.4304192
  heat_capacity:      39.7376414
  energy:             58.8085127

- temperature:       760.0000000
  free_energy:        31.8787510
  entropy:            35.9584680
  heat_capacity:      39.9961404
  energy:             59.2071867

- temperature:       770.0000000
  free_energy:        31.5165409
  entropy:            36.4829545
  heat_capacity:      40.2487186
  energy:             59.6084158

- temperature:       780.0000000
  free_energy:        31.1491037
  entropy:            37.0038952
  heat_capacity:      40.4955591
  energy:             60.0121419

- temperature:       790.0000000
  free_energy:        30.7764747
  entropy:            37.5213085
  heat_capacity:      40.7368375
  energy:             60.4183085

- temperature:       800.0000000
  free_energy:        30.3986892
  entropy:            38.0352143
  heat_capacity:      40.9727221
  energy:             60.8268607

- temperature:       810.0000000
  free_energy:        30.0157821
  entropy:            38.5456338
  heat_capacity:      41.2033745
  energy:             61.2377455

- temperature:       820.0000000
  free_energy:        29.6277881
  entropy:            39.0525892
  heat_capacity:      41.4289497
  energy:             61.6509112

- temperature:       830.0000000
  free_energy:        29.2347418
  entropy:            39.5561039
  heat_capacity:      41.6495967
  energy:             62.0663080

- temperature:       840.0000000
  free_energy:        28.8366774
  entropy:            40.0562022
  heat_capacity:      41.8654584
  energy:             62.4838872

- temperature:       850.0000000
  free_energy:        28.4336290
  entropy:            40.5529090
  heat_capacity:      42.0766725
  energy:             62.9036017

- temperature:       860.0000000
  free_energy:        28.0256304
  entropy:            41.0462502
  heat_capacity:      42.2833711
  energy:             63.3254056

- temperature:       870.0000000
  free_energy:        27.6127151
  entropy:            41.5362521
  heat_capacity:      42.4856814
  energy:             63.7492545

- temperature:       880.0000000
  free_energy:        27.1949164
  entropy:            42.0229416
  heat_capacity:      42.6837258
  energy:             64.1751050

- temperature:       890.0000000
  free_energy:        26.7722673
  entropy:            42.5063460
  heat_capacity:      42.8776222
  energy:             64.6029152

- temperature:       900.0000000
  free_energy:        26.3448004
  entropy:            42.9864930
  heat_capacity:      43.0674841
  energy:             65.0326440

- temperature:       910.0000000
  free_energy:        25.9125482
  entropy:            43.4634106
  heat_capacity:      43.2534209
  energy:             65.4642518

- temperature:       920.0000000
  free_energy:        25.4755428
  entropy:            43.9371271
  heat_capacity:      43.4355382
  energy:             65.8976997

- temperature:       930.0000000
  free_energy:        25.0338162
  entropy:            44.4076709
  heat_capacity:      43.6139378
  energy:             66.3329502

- temperature:       940.0000000
  free_energy:        24.5873999
  entropy:            44.8750708
  heat_capacity:      43.7887177
  energy:             66.7699664

- temperature:       950.0000000
  free_energy:        24.1363252
  entropy:            45.3393554
  heat_capacity:      43.9599728
  energy:             67.2087128

- temperature:       960.0000000
  free_energy:        23.6806231
  entropy:            45.8005535
  heat_capacity:      44.1277947
  energy:             67.6491544

- temperature:       970.0000000
  free_energy:        23.2203243
  entropy:            46.2586940
  heat_capacity:      44.2922719
  energy:             68.0912575

- temperature:       980.0000000
  free_energy:        22.7554593
  entropy:            46.7138058
  heat_capacity:      44.4534897
  energy:             68.5349890

- temperature:       990.0000000
  free_energy:        22.2860582
  entropy:            47.1659177
  heat_capacity:      44.6115310
  energy:             68.9803167

- temperature:      1000.0000000
  free_energy:        21.8121508
  entropy:            47.6150585
  heat_capacity:      44.7664757
  energy:             69.4272093
