<?xml version="1.0" encoding="ISO-8859-1"?>
<modeling>
 <generator>
  <i name="program" type="string">vasp </i>
  <i name="version" type="string">5.3.5  </i>
  <i name="subversion" type="string">31Mar14 (build Nov 02 2014 15:17:37) complex                          parallel </i>
  <i name="platform" type="string">ion-Intel-MKL </i>
  <i name="date" type="string">2016 08 23 </i>
  <i name="time" type="string">23:19:37 </i>
 </generator>
 <incar>
  <i type="string" name="SYSTEM">graphite</i>
  <i type="string" name="PREC">accurate</i>
  <i type="int" name="NELM">   200</i>
  <i type="int" name="IBRION">     2</i>
  <i name="EDIFF">      0.00000100</i>
  <i name="EDIFFG">      0.00100000</i>
  <i type="int" name="NSW">   200</i>
  <i type="int" name="ISIF">     2</i>
  <i name="ENCUT">    600.00000000</i>
  <i type="int" name="ISMEAR">    -5</i>
  <i type="logical" name="LWAVE"> F  </i>
  <i type="logical" name="LCHARG"> F  </i>
  <i type="int" name="NELM">   200</i>
  <i type="string" name="GGA">PE</i>
 </incar>
 <kpoints>
  <generation param="Gamma">
   <v type="int" name="divisions">      18       18        8 </v>
   <v name="usershift">      0.00000000       0.00000000       0.00000000 </v>
   <v name="genvec1">      0.05555556       0.00000000       0.00000000 </v>
   <v name="genvec2">      0.00000000       0.05555556       0.00000000 </v>
   <v name="genvec3">      0.00000000       0.00000000       0.12500000 </v>
   <v name="shift">      0.00000000       0.00000000       0.00000000 </v>
  </generation>
  <varray name="kpointlist" >
   <v>       0.00000000       0.00000000       0.00000000 </v>
   <v>       0.05555556       0.00000000       0.00000000 </v>
   <v>       0.11111111       0.00000000       0.00000000 </v>
   <v>       0.16666667       0.00000000       0.00000000 </v>
   <v>       0.22222222       0.00000000       0.00000000 </v>
   <v>       0.27777778       0.00000000       0.00000000 </v>
   <v>       0.33333333       0.00000000       0.00000000 </v>
   <v>       0.38888889       0.00000000       0.00000000 </v>
   <v>       0.44444444       0.00000000       0.00000000 </v>
   <v>       0.50000000       0.00000000       0.00000000 </v>
   <v>       0.05555556       0.05555556       0.00000000 </v>
   <v>       0.11111111       0.05555556       0.00000000 </v>
   <v>       0.16666667       0.05555556       0.00000000 </v>
   <v>       0.22222222       0.05555556       0.00000000 </v>
   <v>       0.27777778       0.05555556       0.00000000 </v>
   <v>       0.33333333       0.05555556       0.00000000 </v>
   <v>       0.38888889       0.05555556       0.00000000 </v>
   <v>       0.44444444       0.05555556       0.00000000 </v>
   <v>       0.50000000       0.05555556       0.00000000 </v>
   <v>      -0.44444444       0.05555556       0.00000000 </v>
   <v>      -0.38888889       0.05555556       0.00000000 </v>
   <v>      -0.33333333       0.05555556       0.00000000 </v>
   <v>      -0.27777778       0.05555556       0.00000000 </v>
   <v>      -0.22222222       0.05555556       0.00000000 </v>
   <v>      -0.16666667       0.05555556       0.00000000 </v>
   <v>      -0.11111111       0.05555556       0.00000000 </v>
   <v>      -0.05555556       0.05555556       0.00000000 </v>
   <v>       0.11111111       0.11111111       0.00000000 </v>
   <v>       0.16666667       0.11111111       0.00000000 </v>
   <v>       0.22222222       0.11111111       0.00000000 </v>
   <v>       0.27777778       0.11111111       0.00000000 </v>
   <v>       0.33333333       0.11111111       0.00000000 </v>
   <v>       0.38888889       0.11111111       0.00000000 </v>
   <v>       0.44444444       0.11111111       0.00000000 </v>
   <v>       0.50000000       0.11111111       0.00000000 </v>
   <v>      -0.44444444       0.11111111       0.00000000 </v>
   <v>      -0.38888889       0.11111111       0.00000000 </v>
   <v>      -0.33333333       0.11111111       0.00000000 </v>
   <v>      -0.27777778       0.11111111       0.00000000 </v>
   <v>      -0.22222222       0.11111111       0.00000000 </v>
   <v>      -0.16666667       0.11111111       0.00000000 </v>
   <v>      -0.11111111       0.11111111       0.00000000 </v>
   <v>       0.16666667       0.16666667       0.00000000 </v>
   <v>       0.22222222       0.16666667       0.00000000 </v>
   <v>       0.27777778       0.16666667       0.00000000 </v>
   <v>       0.33333333       0.16666667       0.00000000 </v>
   <v>       0.38888889       0.16666667       0.00000000 </v>
   <v>       0.44444444       0.16666667       0.00000000 </v>
   <v>       0.50000000       0.16666667       0.00000000 </v>
   <v>      -0.44444444       0.16666667       0.00000000 </v>
   <v>      -0.38888889       0.16666667       0.00000000 </v>
   <v>      -0.33333333       0.16666667       0.00000000 </v>
   <v>      -0.27777778       0.16666667       0.00000000 </v>
   <v>      -0.22222222       0.16666667       0.00000000 </v>
   <v>      -0.16666667       0.16666667       0.00000000 </v>
   <v>       0.22222222       0.22222222       0.00000000 </v>
   <v>       0.27777778       0.22222222       0.00000000 </v>
   <v>       0.33333333       0.22222222       0.00000000 </v>
   <v>       0.38888889       0.22222222       0.00000000 </v>
   <v>       0.44444444       0.22222222       0.00000000 </v>
   <v>       0.50000000       0.22222222       0.00000000 </v>
   <v>      -0.44444444       0.22222222       0.00000000 </v>
   <v>      -0.38888889       0.22222222       0.00000000 </v>
   <v>      -0.33333333       0.22222222       0.00000000 </v>
   <v>      -0.27777778       0.22222222       0.00000000 </v>
   <v>      -0.22222222       0.22222222       0.00000000 </v>
   <v>       0.27777778       0.27777778       0.00000000 </v>
   <v>       0.33333333       0.27777778       0.00000000 </v>
   <v>       0.38888889       0.27777778       0.00000000 </v>
   <v>       0.44444444       0.27777778       0.00000000 </v>
   <v>       0.50000000       0.27777778       0.00000000 </v>
   <v>      -0.44444444       0.27777778       0.00000000 </v>
   <v>      -0.38888889       0.27777778       0.00000000 </v>
   <v>      -0.33333333       0.27777778       0.00000000 </v>
   <v>      -0.27777778       0.27777778       0.00000000 </v>
   <v>       0.33333333       0.33333333       0.00000000 </v>
   <v>       0.38888889       0.33333333       0.00000000 </v>
   <v>       0.44444444       0.33333333       0.00000000 </v>
   <v>       0.50000000       0.33333333       0.00000000 </v>
   <v>      -0.44444444       0.33333333       0.00000000 </v>
   <v>      -0.38888889       0.33333333       0.00000000 </v>
   <v>      -0.33333333       0.33333333       0.00000000 </v>
   <v>       0.38888889       0.38888889       0.00000000 </v>
   <v>       0.44444444       0.38888889       0.00000000 </v>
   <v>       0.50000000       0.38888889       0.00000000 </v>
   <v>      -0.44444444       0.38888889       0.00000000 </v>
   <v>      -0.38888889       0.38888889       0.00000000 </v>
   <v>       0.44444444       0.44444444       0.00000000 </v>
   <v>       0.50000000       0.44444444       0.00000000 </v>
   <v>      -0.44444444       0.44444444       0.00000000 </v>
   <v>       0.50000000       0.50000000       0.00000000 </v>
   <v>       0.00000000       0.00000000       0.12500000 </v>
   <v>       0.05555556       0.00000000       0.12500000 </v>
   <v>       0.11111111       0.00000000       0.12500000 </v>
   <v>       0.16666667       0.00000000       0.12500000 </v>
   <v>       0.22222222       0.00000000       0.12500000 </v>
   <v>       0.27777778       0.00000000       0.12500000 </v>
   <v>       0.33333333       0.00000000       0.12500000 </v>
   <v>       0.38888889       0.00000000       0.12500000 </v>
   <v>       0.44444444       0.00000000       0.12500000 </v>
   <v>       0.50000000       0.00000000       0.12500000 </v>
   <v>       0.05555556       0.05555556       0.12500000 </v>
   <v>       0.11111111       0.05555556       0.12500000 </v>
   <v>       0.16666667       0.05555556       0.12500000 </v>
   <v>       0.22222222       0.05555556       0.12500000 </v>
   <v>       0.27777778       0.05555556       0.12500000 </v>
   <v>       0.33333333       0.05555556       0.12500000 </v>
   <v>       0.38888889       0.05555556       0.12500000 </v>
   <v>       0.44444444       0.05555556       0.12500000 </v>
   <v>       0.50000000       0.05555556       0.12500000 </v>
   <v>      -0.44444444       0.05555556       0.12500000 </v>
   <v>      -0.38888889       0.05555556       0.12500000 </v>
   <v>      -0.33333333       0.05555556       0.12500000 </v>
   <v>      -0.27777778       0.05555556       0.12500000 </v>
   <v>      -0.22222222       0.05555556       0.12500000 </v>
   <v>      -0.16666667       0.05555556       0.12500000 </v>
   <v>      -0.11111111       0.05555556       0.12500000 </v>
   <v>      -0.05555556       0.05555556       0.12500000 </v>
   <v>       0.11111111       0.11111111       0.12500000 </v>
   <v>       0.16666667       0.11111111       0.12500000 </v>
   <v>       0.22222222       0.11111111       0.12500000 </v>
   <v>       0.27777778       0.11111111       0.12500000 </v>
   <v>       0.33333333       0.11111111       0.12500000 </v>
   <v>       0.38888889       0.11111111       0.12500000 </v>
   <v>       0.44444444       0.11111111       0.12500000 </v>
   <v>       0.50000000       0.11111111       0.12500000 </v>
   <v>      -0.44444444       0.11111111       0.12500000 </v>
   <v>      -0.38888889       0.11111111       0.12500000 </v>
   <v>      -0.33333333       0.11111111       0.12500000 </v>
   <v>      -0.27777778       0.11111111       0.12500000 </v>
   <v>      -0.22222222       0.11111111       0.12500000 </v>
   <v>      -0.16666667       0.11111111       0.12500000 </v>
   <v>      -0.11111111       0.11111111       0.12500000 </v>
   <v>       0.16666667       0.16666667       0.12500000 </v>
   <v>       0.22222222       0.16666667       0.12500000 </v>
   <v>       0.27777778       0.16666667       0.12500000 </v>
   <v>       0.33333333       0.16666667       0.12500000 </v>
   <v>       0.38888889       0.16666667       0.12500000 </v>
   <v>       0.44444444       0.16666667       0.12500000 </v>
   <v>       0.50000000       0.16666667       0.12500000 </v>
   <v>      -0.44444444       0.16666667       0.12500000 </v>
   <v>      -0.38888889       0.16666667       0.12500000 </v>
   <v>      -0.33333333       0.16666667       0.12500000 </v>
   <v>      -0.27777778       0.16666667       0.12500000 </v>
   <v>      -0.22222222       0.16666667       0.12500000 </v>
   <v>      -0.16666667       0.16666667       0.12500000 </v>
   <v>       0.22222222       0.22222222       0.12500000 </v>
   <v>       0.27777778       0.22222222       0.12500000 </v>
   <v>       0.33333333       0.22222222       0.12500000 </v>
   <v>       0.38888889       0.22222222       0.12500000 </v>
   <v>       0.44444444       0.22222222       0.12500000 </v>
   <v>       0.50000000       0.22222222       0.12500000 </v>
   <v>      -0.44444444       0.22222222       0.12500000 </v>
   <v>      -0.38888889       0.22222222       0.12500000 </v>
   <v>      -0.33333333       0.22222222       0.12500000 </v>
   <v>      -0.27777778       0.22222222       0.12500000 </v>
   <v>      -0.22222222       0.22222222       0.12500000 </v>
   <v>       0.27777778       0.27777778       0.12500000 </v>
   <v>       0.33333333       0.27777778       0.12500000 </v>
   <v>       0.38888889       0.27777778       0.12500000 </v>
   <v>       0.44444444       0.27777778       0.12500000 </v>
   <v>       0.50000000       0.27777778       0.12500000 </v>
   <v>      -0.44444444       0.27777778       0.12500000 </v>
   <v>      -0.38888889       0.27777778       0.12500000 </v>
   <v>      -0.33333333       0.27777778       0.12500000 </v>
   <v>      -0.27777778       0.27777778       0.12500000 </v>
   <v>       0.33333333       0.33333333       0.12500000 </v>
   <v>       0.38888889       0.33333333       0.12500000 </v>
   <v>       0.44444444       0.33333333       0.12500000 </v>
   <v>       0.50000000       0.33333333       0.12500000 </v>
   <v>      -0.44444444       0.33333333       0.12500000 </v>
   <v>      -0.38888889       0.33333333       0.12500000 </v>
   <v>      -0.33333333       0.33333333       0.12500000 </v>
   <v>       0.38888889       0.38888889       0.12500000 </v>
   <v>       0.44444444       0.38888889       0.12500000 </v>
   <v>       0.50000000       0.38888889       0.12500000 </v>
   <v>      -0.44444444       0.38888889       0.12500000 </v>
   <v>      -0.38888889       0.38888889       0.12500000 </v>
   <v>       0.44444444       0.44444444       0.12500000 </v>
   <v>       0.50000000       0.44444444       0.12500000 </v>
   <v>      -0.44444444       0.44444444       0.12500000 </v>
   <v>       0.50000000       0.50000000       0.12500000 </v>
   <v>       0.00000000       0.00000000       0.25000000 </v>
   <v>       0.05555556       0.00000000       0.25000000 </v>
   <v>       0.11111111       0.00000000       0.25000000 </v>
   <v>       0.16666667       0.00000000       0.25000000 </v>
   <v>       0.22222222       0.00000000       0.25000000 </v>
   <v>       0.27777778       0.00000000       0.25000000 </v>
   <v>       0.33333333       0.00000000       0.25000000 </v>
   <v>       0.38888889       0.00000000       0.25000000 </v>
   <v>       0.44444444       0.00000000       0.25000000 </v>
   <v>       0.50000000       0.00000000       0.25000000 </v>
   <v>       0.05555556       0.05555556       0.25000000 </v>
   <v>       0.11111111       0.05555556       0.25000000 </v>
   <v>       0.16666667       0.05555556       0.25000000 </v>
   <v>       0.22222222       0.05555556       0.25000000 </v>
   <v>       0.27777778       0.05555556       0.25000000 </v>
   <v>       0.33333333       0.05555556       0.25000000 </v>
   <v>       0.38888889       0.05555556       0.25000000 </v>
   <v>       0.44444444       0.05555556       0.25000000 </v>
   <v>       0.50000000       0.05555556       0.25000000 </v>
   <v>      -0.44444444       0.05555556       0.25000000 </v>
   <v>      -0.38888889       0.05555556       0.25000000 </v>
   <v>      -0.33333333       0.05555556       0.25000000 </v>
   <v>      -0.27777778       0.05555556       0.25000000 </v>
   <v>      -0.22222222       0.05555556       0.25000000 </v>
   <v>      -0.16666667       0.05555556       0.25000000 </v>
   <v>      -0.11111111       0.05555556       0.25000000 </v>
   <v>      -0.05555556       0.05555556       0.25000000 </v>
   <v>       0.11111111       0.11111111       0.25000000 </v>
   <v>       0.16666667       0.11111111       0.25000000 </v>
   <v>       0.22222222       0.11111111       0.25000000 </v>
   <v>       0.27777778       0.11111111       0.25000000 </v>
   <v>       0.33333333       0.11111111       0.25000000 </v>
   <v>       0.38888889       0.11111111       0.25000000 </v>
   <v>       0.44444444       0.11111111       0.25000000 </v>
   <v>       0.50000000       0.11111111       0.25000000 </v>
   <v>      -0.44444444       0.11111111       0.25000000 </v>
   <v>      -0.38888889       0.11111111       0.25000000 </v>
   <v>      -0.33333333       0.11111111       0.25000000 </v>
   <v>      -0.27777778       0.11111111       0.25000000 </v>
   <v>      -0.22222222       0.11111111       0.25000000 </v>
   <v>      -0.16666667       0.11111111       0.25000000 </v>
   <v>      -0.11111111       0.11111111       0.25000000 </v>
   <v>       0.16666667       0.16666667       0.25000000 </v>
   <v>       0.22222222       0.16666667       0.25000000 </v>
   <v>       0.27777778       0.16666667       0.25000000 </v>
   <v>       0.33333333       0.16666667       0.25000000 </v>
   <v>       0.38888889       0.16666667       0.25000000 </v>
   <v>       0.44444444       0.16666667       0.25000000 </v>
   <v>       0.50000000       0.16666667       0.25000000 </v>
   <v>      -0.44444444       0.16666667       0.25000000 </v>
   <v>      -0.38888889       0.16666667       0.25000000 </v>
   <v>      -0.33333333       0.16666667       0.25000000 </v>
   <v>      -0.27777778       0.16666667       0.25000000 </v>
   <v>      -0.22222222       0.16666667       0.25000000 </v>
   <v>      -0.16666667       0.16666667       0.25000000 </v>
   <v>       0.22222222       0.22222222       0.25000000 </v>
   <v>       0.27777778       0.22222222       0.25000000 </v>
   <v>       0.33333333       0.22222222       0.25000000 </v>
   <v>       0.38888889       0.22222222       0.25000000 </v>
   <v>       0.44444444       0.22222222       0.25000000 </v>
   <v>       0.50000000       0.22222222       0.25000000 </v>
   <v>      -0.44444444       0.22222222       0.25000000 </v>
   <v>      -0.38888889       0.22222222       0.25000000 </v>
   <v>      -0.33333333       0.22222222       0.25000000 </v>
   <v>      -0.27777778       0.22222222       0.25000000 </v>
   <v>      -0.22222222       0.22222222       0.25000000 </v>
   <v>       0.27777778       0.27777778       0.25000000 </v>
   <v>       0.33333333       0.27777778       0.25000000 </v>
   <v>       0.38888889       0.27777778       0.25000000 </v>
   <v>       0.44444444       0.27777778       0.25000000 </v>
   <v>       0.50000000       0.27777778       0.25000000 </v>
   <v>      -0.44444444       0.27777778       0.25000000 </v>
   <v>      -0.38888889       0.27777778       0.25000000 </v>
   <v>      -0.33333333       0.27777778       0.25000000 </v>
   <v>      -0.27777778       0.27777778       0.25000000 </v>
   <v>       0.33333333       0.33333333       0.25000000 </v>
   <v>       0.38888889       0.33333333       0.25000000 </v>
   <v>       0.44444444       0.33333333       0.25000000 </v>
   <v>       0.50000000       0.33333333       0.25000000 </v>
   <v>      -0.44444444       0.33333333       0.25000000 </v>
   <v>      -0.38888889       0.33333333       0.25000000 </v>
   <v>      -0.33333333       0.33333333       0.25000000 </v>
   <v>       0.38888889       0.38888889       0.25000000 </v>
   <v>       0.44444444       0.38888889       0.25000000 </v>
   <v>       0.50000000       0.38888889       0.25000000 </v>
   <v>      -0.44444444       0.38888889       0.25000000 </v>
   <v>      -0.38888889       0.38888889       0.25000000 </v>
   <v>       0.44444444       0.44444444       0.25000000 </v>
   <v>       0.50000000       0.44444444       0.25000000 </v>
   <v>      -0.44444444       0.44444444       0.25000000 </v>
   <v>       0.50000000       0.50000000       0.25000000 </v>
   <v>       0.00000000       0.00000000       0.37500000 </v>
   <v>       0.05555556       0.00000000       0.37500000 </v>
   <v>       0.11111111       0.00000000       0.37500000 </v>
   <v>       0.16666667       0.00000000       0.37500000 </v>
   <v>       0.22222222       0.00000000       0.37500000 </v>
   <v>       0.27777778       0.00000000       0.37500000 </v>
   <v>       0.33333333       0.00000000       0.37500000 </v>
   <v>       0.38888889       0.00000000       0.37500000 </v>
   <v>       0.44444444       0.00000000       0.37500000 </v>
   <v>       0.50000000       0.00000000       0.37500000 </v>
   <v>       0.05555556       0.05555556       0.37500000 </v>
   <v>       0.11111111       0.05555556       0.37500000 </v>
   <v>       0.16666667       0.05555556       0.37500000 </v>
   <v>       0.22222222       0.05555556       0.37500000 </v>
   <v>       0.27777778       0.05555556       0.37500000 </v>
   <v>       0.33333333       0.05555556       0.37500000 </v>
   <v>       0.38888889       0.05555556       0.37500000 </v>
   <v>       0.44444444       0.05555556       0.37500000 </v>
   <v>       0.50000000       0.05555556       0.37500000 </v>
   <v>      -0.44444444       0.05555556       0.37500000 </v>
   <v>      -0.38888889       0.05555556       0.37500000 </v>
   <v>      -0.33333333       0.05555556       0.37500000 </v>
   <v>      -0.27777778       0.05555556       0.37500000 </v>
   <v>      -0.22222222       0.05555556       0.37500000 </v>
   <v>      -0.16666667       0.05555556       0.37500000 </v>
   <v>      -0.11111111       0.05555556       0.37500000 </v>
   <v>      -0.05555556       0.05555556       0.37500000 </v>
   <v>       0.11111111       0.11111111       0.37500000 </v>
   <v>       0.16666667       0.11111111       0.37500000 </v>
   <v>       0.22222222       0.11111111       0.37500000 </v>
   <v>       0.27777778       0.11111111       0.37500000 </v>
   <v>       0.33333333       0.11111111       0.37500000 </v>
   <v>       0.38888889       0.11111111       0.37500000 </v>
   <v>       0.44444444       0.11111111       0.37500000 </v>
   <v>       0.50000000       0.11111111       0.37500000 </v>
   <v>      -0.44444444       0.11111111       0.37500000 </v>
   <v>      -0.38888889       0.11111111       0.37500000 </v>
   <v>      -0.33333333       0.11111111       0.37500000 </v>
   <v>      -0.27777778       0.11111111       0.37500000 </v>
   <v>      -0.22222222       0.11111111       0.37500000 </v>
   <v>      -0.16666667       0.11111111       0.37500000 </v>
   <v>      -0.11111111       0.11111111       0.37500000 </v>
   <v>       0.16666667       0.16666667       0.37500000 </v>
   <v>       0.22222222       0.16666667       0.37500000 </v>
   <v>       0.27777778       0.16666667       0.37500000 </v>
   <v>       0.33333333       0.16666667       0.37500000 </v>
   <v>       0.38888889       0.16666667       0.37500000 </v>
   <v>       0.44444444       0.16666667       0.37500000 </v>
   <v>       0.50000000       0.16666667       0.37500000 </v>
   <v>      -0.44444444       0.16666667       0.37500000 </v>
   <v>      -0.38888889       0.16666667       0.37500000 </v>
   <v>      -0.33333333       0.16666667       0.37500000 </v>
   <v>      -0.27777778       0.16666667       0.37500000 </v>
   <v>      -0.22222222       0.16666667       0.37500000 </v>
   <v>      -0.16666667       0.16666667       0.37500000 </v>
   <v>       0.22222222       0.22222222       0.37500000 </v>
   <v>       0.27777778       0.22222222       0.37500000 </v>
   <v>       0.33333333       0.22222222       0.37500000 </v>
   <v>       0.38888889       0.22222222       0.37500000 </v>
   <v>       0.44444444       0.22222222       0.37500000 </v>
   <v>       0.50000000       0.22222222       0.37500000 </v>
   <v>      -0.44444444       0.22222222       0.37500000 </v>
   <v>      -0.38888889       0.22222222       0.37500000 </v>
   <v>      -0.33333333       0.22222222       0.37500000 </v>
   <v>      -0.27777778       0.22222222       0.37500000 </v>
   <v>      -0.22222222       0.22222222       0.37500000 </v>
   <v>       0.27777778       0.27777778       0.37500000 </v>
   <v>       0.33333333       0.27777778       0.37500000 </v>
   <v>       0.38888889       0.27777778       0.37500000 </v>
   <v>       0.44444444       0.27777778       0.37500000 </v>
   <v>       0.50000000       0.27777778       0.37500000 </v>
   <v>      -0.44444444       0.27777778       0.37500000 </v>
   <v>      -0.38888889       0.27777778       0.37500000 </v>
   <v>      -0.33333333       0.27777778       0.37500000 </v>
   <v>      -0.27777778       0.27777778       0.37500000 </v>
   <v>       0.33333333       0.33333333       0.37500000 </v>
   <v>       0.38888889       0.33333333       0.37500000 </v>
   <v>       0.44444444       0.33333333       0.37500000 </v>
   <v>       0.50000000       0.33333333       0.37500000 </v>
   <v>      -0.44444444       0.33333333       0.37500000 </v>
   <v>      -0.38888889       0.33333333       0.37500000 </v>
   <v>      -0.33333333       0.33333333       0.37500000 </v>
   <v>       0.38888889       0.38888889       0.37500000 </v>
   <v>       0.44444444       0.38888889       0.37500000 </v>
   <v>       0.50000000       0.38888889       0.37500000 </v>
   <v>      -0.44444444       0.38888889       0.37500000 </v>
   <v>      -0.38888889       0.38888889       0.37500000 </v>
   <v>       0.44444444       0.44444444       0.37500000 </v>
   <v>       0.50000000       0.44444444       0.37500000 </v>
   <v>      -0.44444444       0.44444444       0.37500000 </v>
   <v>       0.50000000       0.50000000       0.37500000 </v>
   <v>       0.00000000       0.00000000       0.50000000 </v>
   <v>       0.05555556       0.00000000       0.50000000 </v>
   <v>       0.11111111       0.00000000       0.50000000 </v>
   <v>       0.16666667       0.00000000       0.50000000 </v>
   <v>       0.22222222       0.00000000       0.50000000 </v>
   <v>       0.27777778       0.00000000       0.50000000 </v>
   <v>       0.33333333       0.00000000       0.50000000 </v>
   <v>       0.38888889       0.00000000       0.50000000 </v>
   <v>       0.44444444       0.00000000       0.50000000 </v>
   <v>       0.50000000       0.00000000       0.50000000 </v>
   <v>       0.05555556       0.05555556       0.50000000 </v>
   <v>       0.11111111       0.05555556       0.50000000 </v>
   <v>       0.16666667       0.05555556       0.50000000 </v>
   <v>       0.22222222       0.05555556       0.50000000 </v>
   <v>       0.27777778       0.05555556       0.50000000 </v>
   <v>       0.33333333       0.05555556       0.50000000 </v>
   <v>       0.38888889       0.05555556       0.50000000 </v>
   <v>       0.44444444       0.05555556       0.50000000 </v>
   <v>       0.50000000       0.05555556       0.50000000 </v>
   <v>      -0.44444444       0.05555556       0.50000000 </v>
   <v>      -0.38888889       0.05555556       0.50000000 </v>
   <v>      -0.33333333       0.05555556       0.50000000 </v>
   <v>      -0.27777778       0.05555556       0.50000000 </v>
   <v>      -0.22222222       0.05555556       0.50000000 </v>
   <v>      -0.16666667       0.05555556       0.50000000 </v>
   <v>      -0.11111111       0.05555556       0.50000000 </v>
   <v>      -0.05555556       0.05555556       0.50000000 </v>
   <v>       0.11111111       0.11111111       0.50000000 </v>
   <v>       0.16666667       0.11111111       0.50000000 </v>
   <v>       0.22222222       0.11111111       0.50000000 </v>
   <v>       0.27777778       0.11111111       0.50000000 </v>
   <v>       0.33333333       0.11111111       0.50000000 </v>
   <v>       0.38888889       0.11111111       0.50000000 </v>
   <v>       0.44444444       0.11111111       0.50000000 </v>
   <v>       0.50000000       0.11111111       0.50000000 </v>
   <v>      -0.44444444       0.11111111       0.50000000 </v>
   <v>      -0.38888889       0.11111111       0.50000000 </v>
   <v>      -0.33333333       0.11111111       0.50000000 </v>
   <v>      -0.27777778       0.11111111       0.50000000 </v>
   <v>      -0.22222222       0.11111111       0.50000000 </v>
   <v>      -0.16666667       0.11111111       0.50000000 </v>
   <v>      -0.11111111       0.11111111       0.50000000 </v>
   <v>       0.16666667       0.16666667       0.50000000 </v>
   <v>       0.22222222       0.16666667       0.50000000 </v>
   <v>       0.27777778       0.16666667       0.50000000 </v>
   <v>       0.33333333       0.16666667       0.50000000 </v>
   <v>       0.38888889       0.16666667       0.50000000 </v>
   <v>       0.44444444       0.16666667       0.50000000 </v>
   <v>       0.50000000       0.16666667       0.50000000 </v>
   <v>      -0.44444444       0.16666667       0.50000000 </v>
   <v>      -0.38888889       0.16666667       0.50000000 </v>
   <v>      -0.33333333       0.16666667       0.50000000 </v>
   <v>      -0.27777778       0.16666667       0.50000000 </v>
   <v>      -0.22222222       0.16666667       0.50000000 </v>
   <v>      -0.16666667       0.16666667       0.50000000 </v>
   <v>       0.22222222       0.22222222       0.50000000 </v>
   <v>       0.27777778       0.22222222       0.50000000 </v>
   <v>       0.33333333       0.22222222       0.50000000 </v>
   <v>       0.38888889       0.22222222       0.50000000 </v>
   <v>       0.44444444       0.22222222       0.50000000 </v>
   <v>       0.50000000       0.22222222       0.50000000 </v>
   <v>      -0.44444444       0.22222222       0.50000000 </v>
   <v>      -0.38888889       0.22222222       0.50000000 </v>
   <v>      -0.33333333       0.22222222       0.50000000 </v>
   <v>      -0.27777778       0.22222222       0.50000000 </v>
   <v>      -0.22222222       0.22222222       0.50000000 </v>
   <v>       0.27777778       0.27777778       0.50000000 </v>
   <v>       0.33333333       0.27777778       0.50000000 </v>
   <v>       0.38888889       0.27777778       0.50000000 </v>
   <v>       0.44444444       0.27777778       0.50000000 </v>
   <v>       0.50000000       0.27777778       0.50000000 </v>
   <v>      -0.44444444       0.27777778       0.50000000 </v>
   <v>      -0.38888889       0.27777778       0.50000000 </v>
   <v>      -0.33333333       0.27777778       0.50000000 </v>
   <v>      -0.27777778       0.27777778       0.50000000 </v>
   <v>       0.33333333       0.33333333       0.50000000 </v>
   <v>       0.38888889       0.33333333       0.50000000 </v>
   <v>       0.44444444       0.33333333       0.50000000 </v>
   <v>       0.50000000       0.33333333       0.50000000 </v>
   <v>      -0.44444444       0.33333333       0.50000000 </v>
   <v>      -0.38888889       0.33333333       0.50000000 </v>
   <v>      -0.33333333       0.33333333       0.50000000 </v>
   <v>       0.38888889       0.38888889       0.50000000 </v>
   <v>       0.44444444       0.38888889       0.50000000 </v>
   <v>       0.50000000       0.38888889       0.50000000 </v>
   <v>      -0.44444444       0.38888889       0.50000000 </v>
   <v>      -0.38888889       0.38888889       0.50000000 </v>
   <v>       0.44444444       0.44444444       0.50000000 </v>
   <v>       0.50000000       0.44444444       0.50000000 </v>
   <v>      -0.44444444       0.44444444       0.50000000 </v>
   <v>       0.50000000       0.50000000       0.50000000 </v>
  </varray>
  <varray name="weights" >
   <v>       0.00038580 </v>
   <v>       0.00154321 </v>
   <v>       0.00154321 </v>
   <v>       0.00154321 </v>
   <v>       0.00154321 </v>
   <v>       0.00154321 </v>
   <v>       0.00154321 </v>
   <v>       0.00154321 </v>
   <v>       0.00154321 </v>
   <v>       0.00077160 </v>
   <v>       0.00077160 </v>
   <v>       0.00154321 </v>
   <v>       0.00154321 </v>
   <v>       0.00154321 </v>
   <v>       0.00154321 </v>
   <v>       0.00154321 </v>
   <v>       0.00154321 </v>
   <v>       0.00154321 </v>
   <v>       0.00154321 </v>
   <v>       0.00154321 </v>
   <v>       0.00154321 </v>
   <v>       0.00154321 </v>
   <v>       0.00154321 </v>
   <v>       0.00154321 </v>
   <v>       0.00154321 </v>
   <v>       0.00154321 </v>
   <v>       0.00077160 </v>
   <v>       0.00077160 </v>
   <v>       0.00154321 </v>
   <v>       0.00154321 </v>
   <v>       0.00154321 </v>
   <v>       0.00154321 </v>
   <v>       0.00154321 </v>
   <v>       0.00154321 </v>
   <v>       0.00154321 </v>
   <v>       0.00154321 </v>
   <v>       0.00154321 </v>
   <v>       0.00154321 </v>
   <v>       0.00154321 </v>
   <v>       0.00154321 </v>
   <v>       0.00154321 </v>
   <v>       0.00077160 </v>
   <v>       0.00077160 </v>
   <v>       0.00154321 </v>
   <v>       0.00154321 </v>
   <v>       0.00154321 </v>
   <v>       0.00154321 </v>
   <v>       0.00154321 </v>
   <v>       0.00154321 </v>
   <v>       0.00154321 </v>
   <v>       0.00154321 </v>
   <v>       0.00154321 </v>
   <v>       0.00154321 </v>
   <v>       0.00154321 </v>
   <v>       0.00077160 </v>
   <v>       0.00077160 </v>
   <v>       0.00154321 </v>
   <v>       0.00154321 </v>
   <v>       0.00154321 </v>
   <v>       0.00154321 </v>
   <v>       0.00154321 </v>
   <v>       0.00154321 </v>
   <v>       0.00154321 </v>
   <v>       0.00154321 </v>
   <v>       0.00154321 </v>
   <v>       0.00077160 </v>
   <v>       0.00077160 </v>
   <v>       0.00154321 </v>
   <v>       0.00154321 </v>
   <v>       0.00154321 </v>
   <v>       0.00154321 </v>
   <v>       0.00154321 </v>
   <v>       0.00154321 </v>
   <v>       0.00154321 </v>
   <v>       0.00077160 </v>
   <v>       0.00077160 </v>
   <v>       0.00154321 </v>
   <v>       0.00154321 </v>
   <v>       0.00154321 </v>
   <v>       0.00154321 </v>
   <v>       0.00154321 </v>
   <v>       0.00077160 </v>
   <v>       0.00077160 </v>
   <v>       0.00154321 </v>
   <v>       0.00154321 </v>
   <v>       0.00154321 </v>
   <v>       0.00077160 </v>
   <v>       0.00077160 </v>
   <v>       0.00154321 </v>
   <v>       0.00077160 </v>
   <v>       0.00038580 </v>
   <v>       0.00077160 </v>
   <v>       0.00308642 </v>
   <v>       0.00308642 </v>
   <v>       0.00308642 </v>
   <v>       0.00308642 </v>
   <v>       0.00308642 </v>
   <v>       0.00308642 </v>
   <v>       0.00308642 </v>
   <v>       0.00308642 </v>
   <v>       0.00154321 </v>
   <v>       0.00154321 </v>
   <v>       0.00308642 </v>
   <v>       0.00308642 </v>
   <v>       0.00308642 </v>
   <v>       0.00308642 </v>
   <v>       0.00308642 </v>
   <v>       0.00308642 </v>
   <v>       0.00308642 </v>
   <v>       0.00308642 </v>
   <v>       0.00308642 </v>
   <v>       0.00308642 </v>
   <v>       0.00308642 </v>
   <v>       0.00308642 </v>
   <v>       0.00308642 </v>
   <v>       0.00308642 </v>
   <v>       0.00308642 </v>
   <v>       0.00154321 </v>
   <v>       0.00154321 </v>
   <v>       0.00308642 </v>
   <v>       0.00308642 </v>
   <v>       0.00308642 </v>
   <v>       0.00308642 </v>
   <v>       0.00308642 </v>
   <v>       0.00308642 </v>
   <v>       0.00308642 </v>
   <v>       0.00308642 </v>
   <v>       0.00308642 </v>
   <v>       0.00308642 </v>
   <v>       0.00308642 </v>
   <v>       0.00308642 </v>
   <v>       0.00308642 </v>
   <v>       0.00154321 </v>
   <v>       0.00154321 </v>
   <v>       0.00308642 </v>
   <v>       0.00308642 </v>
   <v>       0.00308642 </v>
   <v>       0.00308642 </v>
   <v>       0.00308642 </v>
   <v>       0.00308642 </v>
   <v>       0.00308642 </v>
   <v>       0.00308642 </v>
   <v>       0.00308642 </v>
   <v>       0.00308642 </v>
   <v>       0.00308642 </v>
   <v>       0.00154321 </v>
   <v>       0.00154321 </v>
   <v>       0.00308642 </v>
   <v>       0.00308642 </v>
   <v>       0.00308642 </v>
   <v>       0.00308642 </v>
   <v>       0.00308642 </v>
   <v>       0.00308642 </v>
   <v>       0.00308642 </v>
   <v>       0.00308642 </v>
   <v>       0.00308642 </v>
   <v>       0.00154321 </v>
   <v>       0.00154321 </v>
   <v>       0.00308642 </v>
   <v>       0.00308642 </v>
   <v>       0.00308642 </v>
   <v>       0.00308642 </v>
   <v>       0.00308642 </v>
   <v>       0.00308642 </v>
   <v>       0.00308642 </v>
   <v>       0.00154321 </v>
   <v>       0.00154321 </v>
   <v>       0.00308642 </v>
   <v>       0.00308642 </v>
   <v>       0.00308642 </v>
   <v>       0.00308642 </v>
   <v>       0.00308642 </v>
   <v>       0.00154321 </v>
   <v>       0.00154321 </v>
   <v>       0.00308642 </v>
   <v>       0.00308642 </v>
   <v>       0.00308642 </v>
   <v>       0.00154321 </v>
   <v>       0.00154321 </v>
   <v>       0.00308642 </v>
   <v>       0.00154321 </v>
   <v>       0.00077160 </v>
   <v>       0.00077160 </v>
   <v>       0.00308642 </v>
   <v>       0.00308642 </v>
   <v>       0.00308642 </v>
   <v>       0.00308642 </v>
   <v>       0.00308642 </v>
   <v>       0.00308642 </v>
   <v>       0.00308642 </v>
   <v>       0.00308642 </v>
   <v>       0.00154321 </v>
   <v>       0.00154321 </v>
   <v>       0.00308642 </v>
   <v>       0.00308642 </v>
   <v>       0.00308642 </v>
   <v>       0.00308642 </v>
   <v>       0.00308642 </v>
   <v>       0.00308642 </v>
   <v>       0.00308642 </v>
   <v>       0.00308642 </v>
   <v>       0.00308642 </v>
   <v>       0.00308642 </v>
   <v>       0.00308642 </v>
   <v>       0.00308642 </v>
   <v>       0.00308642 </v>
   <v>       0.00308642 </v>
   <v>       0.00308642 </v>
   <v>       0.00154321 </v>
   <v>       0.00154321 </v>
   <v>       0.00308642 </v>
   <v>       0.00308642 </v>
   <v>       0.00308642 </v>
   <v>       0.00308642 </v>
   <v>       0.00308642 </v>
   <v>       0.00308642 </v>
   <v>       0.00308642 </v>
   <v>       0.00308642 </v>
   <v>       0.00308642 </v>
   <v>       0.00308642 </v>
   <v>       0.00308642 </v>
   <v>       0.00308642 </v>
   <v>       0.00308642 </v>
   <v>       0.00154321 </v>
   <v>       0.00154321 </v>
   <v>       0.00308642 </v>
   <v>       0.00308642 </v>
   <v>       0.00308642 </v>
   <v>       0.00308642 </v>
   <v>       0.00308642 </v>
   <v>       0.00308642 </v>
   <v>       0.00308642 </v>
   <v>       0.00308642 </v>
   <v>       0.00308642 </v>
   <v>       0.00308642 </v>
   <v>       0.00308642 </v>
   <v>       0.00154321 </v>
   <v>       0.00154321 </v>
   <v>       0.00308642 </v>
   <v>       0.00308642 </v>
   <v>       0.00308642 </v>
   <v>       0.00308642 </v>
   <v>       0.00308642 </v>
   <v>       0.00308642 </v>
   <v>       0.00308642 </v>
   <v>       0.00308642 </v>
   <v>       0.00308642 </v>
   <v>       0.00154321 </v>
   <v>       0.00154321 </v>
   <v>       0.00308642 </v>
   <v>       0.00308642 </v>
   <v>       0.00308642 </v>
   <v>       0.00308642 </v>
   <v>       0.00308642 </v>
   <v>       0.00308642 </v>
   <v>       0.00308642 </v>
   <v>       0.00154321 </v>
   <v>       0.00154321 </v>
   <v>       0.00308642 </v>
   <v>       0.00308642 </v>
   <v>       0.00308642 </v>
   <v>       0.00308642 </v>
   <v>       0.00308642 </v>
   <v>       0.00154321 </v>
   <v>       0.00154321 </v>
   <v>       0.00308642 </v>
   <v>       0.00308642 </v>
   <v>       0.00308642 </v>
   <v>       0.00154321 </v>
   <v>       0.00154321 </v>
   <v>       0.00308642 </v>
   <v>       0.00154321 </v>
   <v>       0.00077160 </v>
   <v>       0.00077160 </v>
   <v>       0.00308642 </v>
   <v>       0.00308642 </v>
   <v>       0.00308642 </v>
   <v>       0.00308642 </v>
   <v>       0.00308642 </v>
   <v>       0.00308642 </v>
   <v>       0.00308642 </v>
   <v>       0.00308642 </v>
   <v>       0.00154321 </v>
   <v>       0.00154321 </v>
   <v>       0.00308642 </v>
   <v>       0.00308642 </v>
   <v>       0.00308642 </v>
   <v>       0.00308642 </v>
   <v>       0.00308642 </v>
   <v>       0.00308642 </v>
   <v>       0.00308642 </v>
   <v>       0.00308642 </v>
   <v>       0.00308642 </v>
   <v>       0.00308642 </v>
   <v>       0.00308642 </v>
   <v>       0.00308642 </v>
   <v>       0.00308642 </v>
   <v>       0.00308642 </v>
   <v>       0.00308642 </v>
   <v>       0.00154321 </v>
   <v>       0.00154321 </v>
   <v>       0.00308642 </v>
   <v>       0.00308642 </v>
   <v>       0.00308642 </v>
   <v>       0.00308642 </v>
   <v>       0.00308642 </v>
   <v>       0.00308642 </v>
   <v>       0.00308642 </v>
   <v>       0.00308642 </v>
   <v>       0.00308642 </v>
   <v>       0.00308642 </v>
   <v>       0.00308642 </v>
   <v>       0.00308642 </v>
   <v>       0.00308642 </v>
   <v>       0.00154321 </v>
   <v>       0.00154321 </v>
   <v>       0.00308642 </v>
   <v>       0.00308642 </v>
   <v>       0.00308642 </v>
   <v>       0.00308642 </v>
   <v>       0.00308642 </v>
   <v>       0.00308642 </v>
   <v>       0.00308642 </v>
   <v>       0.00308642 </v>
   <v>       0.00308642 </v>
   <v>       0.00308642 </v>
   <v>       0.00308642 </v>
   <v>       0.00154321 </v>
   <v>       0.00154321 </v>
   <v>       0.00308642 </v>
   <v>       0.00308642 </v>
   <v>       0.00308642 </v>
   <v>       0.00308642 </v>
   <v>       0.00308642 </v>
   <v>       0.00308642 </v>
   <v>       0.00308642 </v>
   <v>       0.00308642 </v>
   <v>       0.00308642 </v>
   <v>       0.00154321 </v>
   <v>       0.00154321 </v>
   <v>       0.00308642 </v>
   <v>       0.00308642 </v>
   <v>       0.00308642 </v>
   <v>       0.00308642 </v>
   <v>       0.00308642 </v>
   <v>       0.00308642 </v>
   <v>       0.00308642 </v>
   <v>       0.00154321 </v>
   <v>       0.00154321 </v>
   <v>       0.00308642 </v>
   <v>       0.00308642 </v>
   <v>       0.00308642 </v>
   <v>       0.00308642 </v>
   <v>       0.00308642 </v>
   <v>       0.00154321 </v>
   <v>       0.00154321 </v>
   <v>       0.00308642 </v>
   <v>       0.00308642 </v>
   <v>       0.00308642 </v>
   <v>       0.00154321 </v>
   <v>       0.00154321 </v>
   <v>       0.00308642 </v>
   <v>       0.00154321 </v>
   <v>       0.00077160 </v>
   <v>       0.00038580 </v>
   <v>       0.00154321 </v>
   <v>       0.00154321 </v>
   <v>       0.00154321 </v>
   <v>       0.00154321 </v>
   <v>       0.00154321 </v>
   <v>       0.00154321 </v>
   <v>       0.00154321 </v>
   <v>       0.00154321 </v>
   <v>       0.00077160 </v>
   <v>       0.00077160 </v>
   <v>       0.00154321 </v>
   <v>       0.00154321 </v>
   <v>       0.00154321 </v>
   <v>       0.00154321 </v>
   <v>       0.00154321 </v>
   <v>       0.00154321 </v>
   <v>       0.00154321 </v>
   <v>       0.00154321 </v>
   <v>       0.00154321 </v>
   <v>       0.00154321 </v>
   <v>       0.00154321 </v>
   <v>       0.00154321 </v>
   <v>       0.00154321 </v>
   <v>       0.00154321 </v>
   <v>       0.00154321 </v>
   <v>       0.00077160 </v>
   <v>       0.00077160 </v>
   <v>       0.00154321 </v>
   <v>       0.00154321 </v>
   <v>       0.00154321 </v>
   <v>       0.00154321 </v>
   <v>       0.00154321 </v>
   <v>       0.00154321 </v>
   <v>       0.00154321 </v>
   <v>       0.00154321 </v>
   <v>       0.00154321 </v>
   <v>       0.00154321 </v>
   <v>       0.00154321 </v>
   <v>       0.00154321 </v>
   <v>       0.00154321 </v>
   <v>       0.00077160 </v>
   <v>       0.00077160 </v>
   <v>       0.00154321 </v>
   <v>       0.00154321 </v>
   <v>       0.00154321 </v>
   <v>       0.00154321 </v>
   <v>       0.00154321 </v>
   <v>       0.00154321 </v>
   <v>       0.00154321 </v>
   <v>       0.00154321 </v>
   <v>       0.00154321 </v>
   <v>       0.00154321 </v>
   <v>       0.00154321 </v>
   <v>       0.00077160 </v>
   <v>       0.00077160 </v>
   <v>       0.00154321 </v>
   <v>       0.00154321 </v>
   <v>       0.00154321 </v>
   <v>       0.00154321 </v>
   <v>       0.00154321 </v>
   <v>       0.00154321 </v>
   <v>       0.00154321 </v>
   <v>       0.00154321 </v>
   <v>       0.00154321 </v>
   <v>       0.00077160 </v>
   <v>       0.00077160 </v>
   <v>       0.00154321 </v>
   <v>       0.00154321 </v>
   <v>       0.00154321 </v>
   <v>       0.00154321 </v>
   <v>       0.00154321 </v>
   <v>       0.00154321 </v>
   <v>       0.00154321 </v>
   <v>       0.00077160 </v>
   <v>       0.00077160 </v>
   <v>       0.00154321 </v>
   <v>       0.00154321 </v>
   <v>       0.00154321 </v>
   <v>       0.00154321 </v>
   <v>       0.00154321 </v>
   <v>       0.00077160 </v>
   <v>       0.00077160 </v>
   <v>       0.00154321 </v>
   <v>       0.00154321 </v>
   <v>       0.00154321 </v>
   <v>       0.00077160 </v>
   <v>       0.00077160 </v>
   <v>       0.00154321 </v>
   <v>       0.00077160 </v>
   <v>       0.00038580 </v>
  </varray>
  <varray name="tetrahedronlist"  type="int" >
   <v type="int" >        4        2        2       11       93 </v>
   <v type="int" >        4        1        2        2       93 </v>
   <v type="int" >        4        1        2       92       93 </v>
   <v type="int" >        4        2       11       93      102 </v>
   <v type="int" >        4        2       93       93      102 </v>
   <v type="int" >        4        2       92       93       93 </v>
   <v type="int" >        4        3       11       12      102 </v>
   <v type="int" >        4        2        3       11      102 </v>
   <v type="int" >        4        2        3       93      102 </v>
   <v type="int" >        4        3       12      102      103 </v>
   <v type="int" >        4        3       94      102      103 </v>
   <v type="int" >        4        3       93       94      102 </v>
   <v type="int" >        4        4       12       13      103 </v>
   <v type="int" >        4        3        4       12      103 </v>
   <v type="int" >        4        3        4       94      103 </v>
   <v type="int" >        4        4       13      103      104 </v>
   <v type="int" >        4        4       95      103      104 </v>
   <v type="int" >        4        4       94       95      103 </v>
   <v type="int" >        4        5       13       14      104 </v>
   <v type="int" >        4        4        5       13      104 </v>
   <v type="int" >        4        4        5       95      104 </v>
   <v type="int" >        4        5       14      104      105 </v>
   <v type="int" >        4        5       96      104      105 </v>
   <v type="int" >        4        5       95       96      104 </v>
   <v type="int" >        4        6       14       15      105 </v>
   <v type="int" >        4        5        6       14      105 </v>
   <v type="int" >        4        5        6       96      105 </v>
   <v type="int" >        4        6       15      105      106 </v>
   <v type="int" >        4        6       97      105      106 </v>
   <v type="int" >        4        6       96       97      105 </v>
   <v type="int" >        4        7       15       16      106 </v>
   <v type="int" >        4        6        7       15      106 </v>
   <v type="int" >        4        6        7       97      106 </v>
   <v type="int" >        4        7       16      106      107 </v>
   <v type="int" >        4        7       98      106      107 </v>
   <v type="int" >        4        7       97       98      106 </v>
   <v type="int" >        4        8       16       17      107 </v>
   <v type="int" >        4        7        8       16      107 </v>
   <v type="int" >        4        7        8       98      107 </v>
   <v type="int" >        4        8       17      107      108 </v>
   <v type="int" >        4        8       99      107      108 </v>
   <v type="int" >        4        8       98       99      107 </v>
   <v type="int" >        4        9       17       18      108 </v>
   <v type="int" >        4        8        9       17      108 </v>
   <v type="int" >        4        8        9       99      108 </v>
   <v type="int" >        4        9       18      108      109 </v>
   <v type="int" >        4        9      100      108      109 </v>
   <v type="int" >        4        9       99      100      108 </v>
   <v type="int" >        4       10       18       19      109 </v>
   <v type="int" >        4        9       10       18      109 </v>
   <v type="int" >        4        9       10      100      109 </v>
   <v type="int" >        4       10       19      109      110 </v>
   <v type="int" >        4       10      101      109      110 </v>
   <v type="int" >        4       10      100      101      109 </v>
   <v type="int" >        4        9       19       20      110 </v>
   <v type="int" >        4        9       10       19      110 </v>
   <v type="int" >        4        9       10      101      110 </v>
   <v type="int" >        4        9       20      110      111 </v>
   <v type="int" >        4        9      100      110      111 </v>
   <v type="int" >        4        9      100      101      110 </v>
   <v type="int" >        4        8       20       21      111 </v>
   <v type="int" >        4        8        9       20      111 </v>
   <v type="int" >        4        8        9      100      111 </v>
   <v type="int" >        4        8       21      111      112 </v>
   <v type="int" >        4        8       99      111      112 </v>
   <v type="int" >        4        8       99      100      111 </v>
   <v type="int" >        4        7       21       22      112 </v>
   <v type="int" >        4        7        8       21      112 </v>
   <v type="int" >        4        7        8       99      112 </v>
   <v type="int" >        4        7       22      112      113 </v>
   <v type="int" >        4        7       98      112      113 </v>
   <v type="int" >        4        7       98       99      112 </v>
   <v type="int" >        4        6       22       23      113 </v>
   <v type="int" >        4        6        7       22      113 </v>
   <v type="int" >        4        6        7       98      113 </v>
   <v type="int" >        4        6       23      113      114 </v>
   <v type="int" >        4        6       97      113      114 </v>
   <v type="int" >        4        6       97       98      113 </v>
   <v type="int" >        4        5       23       24      114 </v>
   <v type="int" >        4        5        6       23      114 </v>
   <v type="int" >        4        5        6       97      114 </v>
   <v type="int" >        4        5       24      114      115 </v>
   <v type="int" >        4        5       96      114      115 </v>
   <v type="int" >        4        5       96       97      114 </v>
   <v type="int" >        4        4       24       25      115 </v>
   <v type="int" >        4        4        5       24      115 </v>
   <v type="int" >        4        4        5       96      115 </v>
   <v type="int" >        4        4       25      115      116 </v>
   <v type="int" >        4        4       95      115      116 </v>
   <v type="int" >        4        4       95       96      115 </v>
   <v type="int" >        4        3       25       26      116 </v>
   <v type="int" >        4        3        4       25      116 </v>
   <v type="int" >        4        3        4       95      116 </v>
   <v type="int" >        4        3       26      116      117 </v>
   <v type="int" >        4        3       94      116      117 </v>
   <v type="int" >        4        3       94       95      116 </v>
   <v type="int" >        4        2       26       27      117 </v>
   <v type="int" >        4        2        3       26      117 </v>
   <v type="int" >        4        2        3       94      117 </v>
   <v type="int" >        4        2       27      117      118 </v>
   <v type="int" >        4        2       93      117      118 </v>
   <v type="int" >        4        2       93       94      117 </v>
   <v type="int" >        4        1        2       27      118 </v>
   <v type="int" >        4        1        2       93      118 </v>
   <v type="int" >        4        1       92       93      118 </v>
   <v type="int" >        4        3       11       12       94 </v>
   <v type="int" >        4        2        3       11       94 </v>
   <v type="int" >        4        2       11       93       94 </v>
   <v type="int" >        4       11       12       94      103 </v>
   <v type="int" >        4       11       94      102      103 </v>
   <v type="int" >        4       11       93       94      102 </v>
   <v type="int" >        4       12       12       28      103 </v>
   <v type="int" >        4       11       12       12      103 </v>
   <v type="int" >        4       11       12      102      103 </v>
   <v type="int" >        4       12       28      103      119 </v>
   <v type="int" >        4       12      103      103      119 </v>
   <v type="int" >        4       12      102      103      103 </v>
   <v type="int" >        4       13       28       29      119 </v>
   <v type="int" >        4       12       13       28      119 </v>
   <v type="int" >        4       12       13      103      119 </v>
   <v type="int" >        4       13       29      119      120 </v>
   <v type="int" >        4       13      104      119      120 </v>
   <v type="int" >        4       13      103      104      119 </v>
   <v type="int" >        4       14       29       30      120 </v>
   <v type="int" >        4       13       14       29      120 </v>
   <v type="int" >        4       13       14      104      120 </v>
   <v type="int" >        4       14       30      120      121 </v>
   <v type="int" >        4       14      105      120      121 </v>
   <v type="int" >        4       14      104      105      120 </v>
   <v type="int" >        4       15       30       31      121 </v>
   <v type="int" >        4       14       15       30      121 </v>
   <v type="int" >        4       14       15      105      121 </v>
   <v type="int" >        4       15       31      121      122 </v>
   <v type="int" >        4       15      106      121      122 </v>
   <v type="int" >        4       15      105      106      121 </v>
   <v type="int" >        4       16       31       32      122 </v>
   <v type="int" >        4       15       16       31      122 </v>
   <v type="int" >        4       15       16      106      122 </v>
   <v type="int" >        4       16       32      122      123 </v>
   <v type="int" >        4       16      107      122      123 </v>
   <v type="int" >        4       16      106      107      122 </v>
   <v type="int" >        4       17       32       33      123 </v>
   <v type="int" >        4       16       17       32      123 </v>
   <v type="int" >        4       16       17      107      123 </v>
   <v type="int" >        4       17       33      123      124 </v>
   <v type="int" >        4       17      108      123      124 </v>
   <v type="int" >        4       17      107      108      123 </v>
   <v type="int" >        4       18       33       34      124 </v>
   <v type="int" >        4       17       18       33      124 </v>
   <v type="int" >        4       17       18      108      124 </v>
   <v type="int" >        4       18       34      124      125 </v>
   <v type="int" >        4       18      109      124      125 </v>
   <v type="int" >        4       18      108      109      124 </v>
   <v type="int" >        4       19       34       35      125 </v>
   <v type="int" >        4       18       19       34      125 </v>
   <v type="int" >        4       18       19      109      125 </v>
   <v type="int" >        4       19       35      125      126 </v>
   <v type="int" >        4       19      110      125      126 </v>
   <v type="int" >        4       19      109      110      125 </v>
   <v type="int" >        4       20       35       36      126 </v>
   <v type="int" >        4       19       20       35      126 </v>
   <v type="int" >        4       19       20      110      126 </v>
   <v type="int" >        4       20       36      126      127 </v>
   <v type="int" >        4       20      111      126      127 </v>
   <v type="int" >        4       20      110      111      126 </v>
   <v type="int" >        4       21       36       37      127 </v>
   <v type="int" >        4       20       21       36      127 </v>
   <v type="int" >        4       20       21      111      127 </v>
   <v type="int" >        4       21       37      127      128 </v>
   <v type="int" >        4       21      112      127      128 </v>
   <v type="int" >        4       21      111      112      127 </v>
   <v type="int" >        4       22       37       38      128 </v>
   <v type="int" >        4       21       22       37      128 </v>
   <v type="int" >        4       21       22      112      128 </v>
   <v type="int" >        4       22       38      128      129 </v>
   <v type="int" >        4       22      113      128      129 </v>
   <v type="int" >        4       22      112      113      128 </v>
   <v type="int" >        4       23       38       39      129 </v>
   <v type="int" >        4       22       23       38      129 </v>
   <v type="int" >        4       22       23      113      129 </v>
   <v type="int" >        4       23       39      129      130 </v>
   <v type="int" >        4       23      114      129      130 </v>
   <v type="int" >        4       23      113      114      129 </v>
   <v type="int" >        4       24       39       40      130 </v>
   <v type="int" >        4       23       24       39      130 </v>
   <v type="int" >        4       23       24      114      130 </v>
   <v type="int" >        4       24       40      130      131 </v>
   <v type="int" >        4       24      115      130      131 </v>
   <v type="int" >        4       24      114      115      130 </v>
   <v type="int" >        4       25       40       41      131 </v>
   <v type="int" >        4       24       25       40      131 </v>
   <v type="int" >        4       24       25      115      131 </v>
   <v type="int" >        4       25       41      131      132 </v>
   <v type="int" >        4       25      116      131      132 </v>
   <v type="int" >        4       25      115      116      131 </v>
   <v type="int" >        4       26       41       42      132 </v>
   <v type="int" >        4       25       26       41      132 </v>
   <v type="int" >        4       25       26      116      132 </v>
   <v type="int" >        4       26       42      132      133 </v>
   <v type="int" >        4       26      117      132      133 </v>
   <v type="int" >        4       26      116      117      132 </v>
   <v type="int" >        4       26       27       42      133 </v>
   <v type="int" >        4       26       27      117      133 </v>
   <v type="int" >        4       27      117      118      133 </v>
   <v type="int" >        4        4       12       13       95 </v>
   <v type="int" >        4        3        4       12       95 </v>
   <v type="int" >        4        3       12       94       95 </v>
   <v type="int" >        4       12       13       95      104 </v>
   <v type="int" >        4       12       95      103      104 </v>
   <v type="int" >        4       12       94       95      103 </v>
   <v type="int" >        4       13       28       29      104 </v>
   <v type="int" >        4       12       13       28      104 </v>
   <v type="int" >        4       12       28      103      104 </v>
   <v type="int" >        4       28       29      104      120 </v>
   <v type="int" >        4       28      104      119      120 </v>
   <v type="int" >        4       28      103      104      119 </v>
   <v type="int" >        4       29       29       43      120 </v>
   <v type="int" >        4       28       29       29      120 </v>
   <v type="int" >        4       28       29      119      120 </v>
   <v type="int" >        4       29       43      120      134 </v>
   <v type="int" >        4       29      120      120      134 </v>
   <v type="int" >        4       29      119      120      120 </v>
   <v type="int" >        4       30       43       44      134 </v>
   <v type="int" >        4       29       30       43      134 </v>
   <v type="int" >        4       29       30      120      134 </v>
   <v type="int" >        4       30       44      134      135 </v>
   <v type="int" >        4       30      121      134      135 </v>
   <v type="int" >        4       30      120      121      134 </v>
   <v type="int" >        4       31       44       45      135 </v>
   <v type="int" >        4       30       31       44      135 </v>
   <v type="int" >        4       30       31      121      135 </v>
   <v type="int" >        4       31       45      135      136 </v>
   <v type="int" >        4       31      122      135      136 </v>
   <v type="int" >        4       31      121      122      135 </v>
   <v type="int" >        4       32       45       46      136 </v>
   <v type="int" >        4       31       32       45      136 </v>
   <v type="int" >        4       31       32      122      136 </v>
   <v type="int" >        4       32       46      136      137 </v>
   <v type="int" >        4       32      123      136      137 </v>
   <v type="int" >        4       32      122      123      136 </v>
   <v type="int" >        4       33       46       47      137 </v>
   <v type="int" >        4       32       33       46      137 </v>
   <v type="int" >        4       32       33      123      137 </v>
   <v type="int" >        4       33       47      137      138 </v>
   <v type="int" >        4       33      124      137      138 </v>
   <v type="int" >        4       33      123      124      137 </v>
   <v type="int" >        4       34       47       48      138 </v>
   <v type="int" >        4       33       34       47      138 </v>
   <v type="int" >        4       33       34      124      138 </v>
   <v type="int" >        4       34       48      138      139 </v>
   <v type="int" >        4       34      125      138      139 </v>
   <v type="int" >        4       34      124      125      138 </v>
   <v type="int" >        4       35       48       49      139 </v>
   <v type="int" >        4       34       35       48      139 </v>
   <v type="int" >        4       34       35      125      139 </v>
   <v type="int" >        4       35       49      139      140 </v>
   <v type="int" >        4       35      126      139      140 </v>
   <v type="int" >        4       35      125      126      139 </v>
   <v type="int" >        4       36       49       50      140 </v>
   <v type="int" >        4       35       36       49      140 </v>
   <v type="int" >        4       35       36      126      140 </v>
   <v type="int" >        4       36       50      140      141 </v>
   <v type="int" >        4       36      127      140      141 </v>
   <v type="int" >        4       36      126      127      140 </v>
   <v type="int" >        4       37       50       51      141 </v>
   <v type="int" >        4       36       37       50      141 </v>
   <v type="int" >        4       36       37      127      141 </v>
   <v type="int" >        4       37       51      141      142 </v>
   <v type="int" >        4       37      128      141      142 </v>
   <v type="int" >        4       37      127      128      141 </v>
   <v type="int" >        4       38       51       52      142 </v>
   <v type="int" >        4       37       38       51      142 </v>
   <v type="int" >        4       37       38      128      142 </v>
   <v type="int" >        4       38       52      142      143 </v>
   <v type="int" >        4       38      129      142      143 </v>
   <v type="int" >        4       38      128      129      142 </v>
   <v type="int" >        4       39       52       53      143 </v>
   <v type="int" >        4       38       39       52      143 </v>
   <v type="int" >        4       38       39      129      143 </v>
   <v type="int" >        4       39       53      143      144 </v>
   <v type="int" >        4       39      130      143      144 </v>
   <v type="int" >        4       39      129      130      143 </v>
   <v type="int" >        4       40       53       54      144 </v>
   <v type="int" >        4       39       40       53      144 </v>
   <v type="int" >        4       39       40      130      144 </v>
   <v type="int" >        4       40       54      144      145 </v>
   <v type="int" >        4       40      131      144      145 </v>
   <v type="int" >        4       40      130      131      144 </v>
   <v type="int" >        4       41       54       55      145 </v>
   <v type="int" >        4       40       41       54      145 </v>
   <v type="int" >        4       40       41      131      145 </v>
   <v type="int" >        4       41       55      145      146 </v>
   <v type="int" >        4       41      132      145      146 </v>
   <v type="int" >        4       41      131      132      145 </v>
   <v type="int" >        4       41       42       55      146 </v>
   <v type="int" >        4       41       42      132      146 </v>
   <v type="int" >        4       42      132      133      146 </v>
   <v type="int" >        4        5       13       14       96 </v>
   <v type="int" >        4        4        5       13       96 </v>
   <v type="int" >        4        4       13       95       96 </v>
   <v type="int" >        4       13       14       96      105 </v>
   <v type="int" >        4       13       96      104      105 </v>
   <v type="int" >        4       13       95       96      104 </v>
   <v type="int" >        4       14       29       30      105 </v>
   <v type="int" >        4       13       14       29      105 </v>
   <v type="int" >        4       13       29      104      105 </v>
   <v type="int" >        4       29       30      105      121 </v>
   <v type="int" >        4       29      105      120      121 </v>
   <v type="int" >        4       29      104      105      120 </v>
   <v type="int" >        4       30       43       44      121 </v>
   <v type="int" >        4       29       30       43      121 </v>
   <v type="int" >        4       29       43      120      121 </v>
   <v type="int" >        4       43       44      121      135 </v>
   <v type="int" >        4       43      121      134      135 </v>
   <v type="int" >        4       43      120      121      134 </v>
   <v type="int" >        4       44       44       56      135 </v>
   <v type="int" >        4       43       44       44      135 </v>
   <v type="int" >        4       43       44      134      135 </v>
   <v type="int" >        4       44       56      135      147 </v>
   <v type="int" >        4       44      135      135      147 </v>
   <v type="int" >        4       44      134      135      135 </v>
   <v type="int" >        4       45       56       57      147 </v>
   <v type="int" >        4       44       45       56      147 </v>
   <v type="int" >        4       44       45      135      147 </v>
   <v type="int" >        4       45       57      147      148 </v>
   <v type="int" >        4       45      136      147      148 </v>
   <v type="int" >        4       45      135      136      147 </v>
   <v type="int" >        4       46       57       58      148 </v>
   <v type="int" >        4       45       46       57      148 </v>
   <v type="int" >        4       45       46      136      148 </v>
   <v type="int" >        4       46       58      148      149 </v>
   <v type="int" >        4       46      137      148      149 </v>
   <v type="int" >        4       46      136      137      148 </v>
   <v type="int" >        4       47       58       59      149 </v>
   <v type="int" >        4       46       47       58      149 </v>
   <v type="int" >        4       46       47      137      149 </v>
   <v type="int" >        4       47       59      149      150 </v>
   <v type="int" >        4       47      138      149      150 </v>
   <v type="int" >        4       47      137      138      149 </v>
   <v type="int" >        4       48       59       60      150 </v>
   <v type="int" >        4       47       48       59      150 </v>
   <v type="int" >        4       47       48      138      150 </v>
   <v type="int" >        4       48       60      150      151 </v>
   <v type="int" >        4       48      139      150      151 </v>
   <v type="int" >        4       48      138      139      150 </v>
   <v type="int" >        4       49       60       61      151 </v>
   <v type="int" >        4       48       49       60      151 </v>
   <v type="int" >        4       48       49      139      151 </v>
   <v type="int" >        4       49       61      151      152 </v>
   <v type="int" >        4       49      140      151      152 </v>
   <v type="int" >        4       49      139      140      151 </v>
   <v type="int" >        4       50       61       62      152 </v>
   <v type="int" >        4       49       50       61      152 </v>
   <v type="int" >        4       49       50      140      152 </v>
   <v type="int" >        4       50       62      152      153 </v>
   <v type="int" >        4       50      141      152      153 </v>
   <v type="int" >        4       50      140      141      152 </v>
   <v type="int" >        4       51       62       63      153 </v>
   <v type="int" >        4       50       51       62      153 </v>
   <v type="int" >        4       50       51      141      153 </v>
   <v type="int" >        4       51       63      153      154 </v>
   <v type="int" >        4       51      142      153      154 </v>
   <v type="int" >        4       51      141      142      153 </v>
   <v type="int" >        4       52       63       64      154 </v>
   <v type="int" >        4       51       52       63      154 </v>
   <v type="int" >        4       51       52      142      154 </v>
   <v type="int" >        4       52       64      154      155 </v>
   <v type="int" >        4       52      143      154      155 </v>
   <v type="int" >        4       52      142      143      154 </v>
   <v type="int" >        4       53       64       65      155 </v>
   <v type="int" >        4       52       53       64      155 </v>
   <v type="int" >        4       52       53      143      155 </v>
   <v type="int" >        4       53       65      155      156 </v>
   <v type="int" >        4       53      144      155      156 </v>
   <v type="int" >        4       53      143      144      155 </v>
   <v type="int" >        4       54       65       66      156 </v>
   <v type="int" >        4       53       54       65      156 </v>
   <v type="int" >        4       53       54      144      156 </v>
   <v type="int" >        4       54       66      156      157 </v>
   <v type="int" >        4       54      145      156      157 </v>
   <v type="int" >        4       54      144      145      156 </v>
   <v type="int" >        4       54       55       66      157 </v>
   <v type="int" >        4       54       55      145      157 </v>
   <v type="int" >        4       55      145      146      157 </v>
   <v type="int" >        4        6       14       15       97 </v>
   <v type="int" >        4        5        6       14       97 </v>
   <v type="int" >        4        5       14       96       97 </v>
   <v type="int" >        4       14       15       97      106 </v>
   <v type="int" >        4       14       97      105      106 </v>
   <v type="int" >        4       14       96       97      105 </v>
   <v type="int" >        4       15       30       31      106 </v>
   <v type="int" >        4       14       15       30      106 </v>
   <v type="int" >        4       14       30      105      106 </v>
   <v type="int" >        4       30       31      106      122 </v>
   <v type="int" >        4       30      106      121      122 </v>
   <v type="int" >        4       30      105      106      121 </v>
   <v type="int" >        4       31       44       45      122 </v>
   <v type="int" >        4       30       31       44      122 </v>
   <v type="int" >        4       30       44      121      122 </v>
   <v type="int" >        4       44       45      122      136 </v>
   <v type="int" >        4       44      122      135      136 </v>
   <v type="int" >        4       44      121      122      135 </v>
   <v type="int" >        4       45       56       57      136 </v>
   <v type="int" >        4       44       45       56      136 </v>
   <v type="int" >        4       44       56      135      136 </v>
   <v type="int" >        4       56       57      136      148 </v>
   <v type="int" >        4       56      136      147      148 </v>
   <v type="int" >        4       56      135      136      147 </v>
   <v type="int" >        4       57       57       67      148 </v>
   <v type="int" >        4       56       57       57      148 </v>
   <v type="int" >        4       56       57      147      148 </v>
   <v type="int" >        4       57       67      148      158 </v>
   <v type="int" >        4       57      148      148      158 </v>
   <v type="int" >        4       57      147      148      148 </v>
   <v type="int" >        4       58       67       68      158 </v>
   <v type="int" >        4       57       58       67      158 </v>
   <v type="int" >        4       57       58      148      158 </v>
   <v type="int" >        4       58       68      158      159 </v>
   <v type="int" >        4       58      149      158      159 </v>
   <v type="int" >        4       58      148      149      158 </v>
   <v type="int" >        4       59       68       69      159 </v>
   <v type="int" >        4       58       59       68      159 </v>
   <v type="int" >        4       58       59      149      159 </v>
   <v type="int" >        4       59       69      159      160 </v>
   <v type="int" >        4       59      150      159      160 </v>
   <v type="int" >        4       59      149      150      159 </v>
   <v type="int" >        4       60       69       70      160 </v>
   <v type="int" >        4       59       60       69      160 </v>
   <v type="int" >        4       59       60      150      160 </v>
   <v type="int" >        4       60       70      160      161 </v>
   <v type="int" >        4       60      151      160      161 </v>
   <v type="int" >        4       60      150      151      160 </v>
   <v type="int" >        4       61       70       71      161 </v>
   <v type="int" >        4       60       61       70      161 </v>
   <v type="int" >        4       60       61      151      161 </v>
   <v type="int" >        4       61       71      161      162 </v>
   <v type="int" >        4       61      152      161      162 </v>
   <v type="int" >        4       61      151      152      161 </v>
   <v type="int" >        4       62       71       72      162 </v>
   <v type="int" >        4       61       62       71      162 </v>
   <v type="int" >        4       61       62      152      162 </v>
   <v type="int" >        4       62       72      162      163 </v>
   <v type="int" >        4       62      153      162      163 </v>
   <v type="int" >        4       62      152      153      162 </v>
   <v type="int" >        4       63       72       73      163 </v>
   <v type="int" >        4       62       63       72      163 </v>
   <v type="int" >        4       62       63      153      163 </v>
   <v type="int" >        4       63       73      163      164 </v>
   <v type="int" >        4       63      154      163      164 </v>
   <v type="int" >        4       63      153      154      163 </v>
   <v type="int" >        4       64       73       74      164 </v>
   <v type="int" >        4       63       64       73      164 </v>
   <v type="int" >        4       63       64      154      164 </v>
   <v type="int" >        4       64       74      164      165 </v>
   <v type="int" >        4       64      155      164      165 </v>
   <v type="int" >        4       64      154      155      164 </v>
   <v type="int" >        4       65       74       75      165 </v>
   <v type="int" >        4       64       65       74      165 </v>
   <v type="int" >        4       64       65      155      165 </v>
   <v type="int" >        4       65       75      165      166 </v>
   <v type="int" >        4       65      156      165      166 </v>
   <v type="int" >        4       65      155      156      165 </v>
   <v type="int" >        4       65       66       75      166 </v>
   <v type="int" >        4       65       66      156      166 </v>
   <v type="int" >        4       66      156      157      166 </v>
   <v type="int" >        4        7       15       16       98 </v>
   <v type="int" >        4        6        7       15       98 </v>
   <v type="int" >        4        6       15       97       98 </v>
   <v type="int" >        4       15       16       98      107 </v>
   <v type="int" >        4       15       98      106      107 </v>
   <v type="int" >        4       15       97       98      106 </v>
   <v type="int" >        4       16       31       32      107 </v>
   <v type="int" >        4       15       16       31      107 </v>
   <v type="int" >        4       15       31      106      107 </v>
   <v type="int" >        4       31       32      107      123 </v>
   <v type="int" >        4       31      107      122      123 </v>
   <v type="int" >        4       31      106      107      122 </v>
   <v type="int" >        4       32       45       46      123 </v>
   <v type="int" >        4       31       32       45      123 </v>
   <v type="int" >        4       31       45      122      123 </v>
   <v type="int" >        4       45       46      123      137 </v>
   <v type="int" >        4       45      123      136      137 </v>
   <v type="int" >        4       45      122      123      136 </v>
   <v type="int" >        4       46       57       58      137 </v>
   <v type="int" >        4       45       46       57      137 </v>
   <v type="int" >        4       45       57      136      137 </v>
   <v type="int" >        4       57       58      137      149 </v>
   <v type="int" >        4       57      137      148      149 </v>
   <v type="int" >        4       57      136      137      148 </v>
   <v type="int" >        4       58       67       68      149 </v>
   <v type="int" >        4       57       58       67      149 </v>
   <v type="int" >        4       57       67      148      149 </v>
   <v type="int" >        4       67       68      149      159 </v>
   <v type="int" >        4       67      149      158      159 </v>
   <v type="int" >        4       67      148      149      158 </v>
   <v type="int" >        4       68       68       76      159 </v>
   <v type="int" >        4       67       68       68      159 </v>
   <v type="int" >        4       67       68      158      159 </v>
   <v type="int" >        4       68       76      159      167 </v>
   <v type="int" >        4       68      159      159      167 </v>
   <v type="int" >        4       68      158      159      159 </v>
   <v type="int" >        4       69       76       77      167 </v>
   <v type="int" >        4       68       69       76      167 </v>
   <v type="int" >        4       68       69      159      167 </v>
   <v type="int" >        4       69       77      167      168 </v>
   <v type="int" >        4       69      160      167      168 </v>
   <v type="int" >        4       69      159      160      167 </v>
   <v type="int" >        4       70       77       78      168 </v>
   <v type="int" >        4       69       70       77      168 </v>
   <v type="int" >        4       69       70      160      168 </v>
   <v type="int" >        4       70       78      168      169 </v>
   <v type="int" >        4       70      161      168      169 </v>
   <v type="int" >        4       70      160      161      168 </v>
   <v type="int" >        4       71       78       79      169 </v>
   <v type="int" >        4       70       71       78      169 </v>
   <v type="int" >        4       70       71      161      169 </v>
   <v type="int" >        4       71       79      169      170 </v>
   <v type="int" >        4       71      162      169      170 </v>
   <v type="int" >        4       71      161      162      169 </v>
   <v type="int" >        4       72       79       80      170 </v>
   <v type="int" >        4       71       72       79      170 </v>
   <v type="int" >        4       71       72      162      170 </v>
   <v type="int" >        4       72       80      170      171 </v>
   <v type="int" >        4       72      163      170      171 </v>
   <v type="int" >        4       72      162      163      170 </v>
   <v type="int" >        4       73       80       81      171 </v>
   <v type="int" >        4       72       73       80      171 </v>
   <v type="int" >        4       72       73      163      171 </v>
[...]
       <r>   -3.6031    1.0000 </r>
       <r>   -3.6031    1.0000 </r>
       <r>   -1.8269    1.0000 </r>
       <r>   -1.8269    1.0000 </r>
       <r>    2.8311    1.0000 </r>
       <r>    2.8311    1.0000 </r>
       <r>   12.1133    1.0000 </r>
       <r>   12.1133    1.0000 </r>
       <r>   14.1627    0.0000 </r>
       <r>   14.1627    0.0000 </r>
       <r>   21.9627    0.0000 </r>
       <r>   21.9627    0.0000 </r>
      </set>
      <set comment="kpoint 449">
       <r>   -4.3489    1.0000 </r>
       <r>   -4.3489    1.0000 </r>
       <r>   -1.4902    1.0000 </r>
       <r>   -1.4902    1.0000 </r>
       <r>    3.9592    1.0000 </r>
       <r>    3.9592    1.0000 </r>
       <r>   11.6364    1.0000 </r>
       <r>   11.6364    1.0000 </r>
       <r>   14.2183   -0.0002 </r>
       <r>   14.2183    0.0000 </r>
       <r>   21.0078    0.0000 </r>
       <r>   21.0078    0.0000 </r>
      </set>
      <set comment="kpoint 450">
       <r>   -5.0366    1.0000 </r>
       <r>   -5.0366    1.0000 </r>
       <r>   -0.9576    1.0000 </r>
       <r>   -0.9576    1.0000 </r>
       <r>    4.8416    1.0000 </r>
       <r>    4.8416    1.0000 </r>
       <r>   11.1610    1.0000 </r>
       <r>   11.1610    1.0000 </r>
       <r>   14.2709   -0.0005 </r>
       <r>   14.2709   -0.0000 </r>
       <r>   20.5291    0.0000 </r>
       <r>   20.5291    0.0000 </r>
      </set>
      <set comment="kpoint 451">
       <r>   -5.6095    1.0000 </r>
       <r>   -5.6095    1.0000 </r>
       <r>   -0.2831    1.0000 </r>
       <r>   -0.2831    1.0000 </r>
       <r>    5.2678    1.0000 </r>
       <r>    5.2678    1.0000 </r>
       <r>   10.7505    1.0000 </r>
       <r>   10.7505    1.0000 </r>
       <r>   14.4860    0.0000 </r>
       <r>   14.4860    0.0000 </r>
       <r>   20.5404    0.0000 </r>
       <r>   20.5404    0.0000 </r>
      </set>
      <set comment="kpoint 452">
       <r>   -3.5916    1.0000 </r>
       <r>   -3.5916    1.0000 </r>
       <r>   -2.3580    1.0000 </r>
       <r>   -2.3580    1.0000 </r>
       <r>    3.8820    1.0000 </r>
       <r>    3.8820    1.0000 </r>
       <r>   11.9762    1.0000 </r>
       <r>   11.9762    1.0000 </r>
       <r>   13.8783    0.0006 </r>
       <r>   13.8783    0.0029 </r>
       <r>   20.9049    0.0000 </r>
       <r>   20.9049    0.0000 </r>
      </set>
      <set comment="kpoint 453">
       <r>   -4.0064    1.0000 </r>
       <r>   -4.0064    1.0000 </r>
       <r>   -2.2172    1.0000 </r>
       <r>   -2.2172    1.0000 </r>
       <r>    4.6928    1.0000 </r>
       <r>    4.6928    1.0000 </r>
       <r>   11.7343    1.0000 </r>
       <r>   11.7343    1.0000 </r>
       <r>   13.7070    0.1062 </r>
       <r>   13.7070    0.0761 </r>
       <r>   20.2905    0.0000 </r>
       <r>   20.2905    0.0000 </r>
      </set>
      <set comment="kpoint 454">
       <r>   -4.5585    1.0000 </r>
       <r>   -4.5585    1.0000 </r>
       <r>   -1.6791    1.0000 </r>
       <r>   -1.6791    1.0000 </r>
       <r>    5.0483    1.0000 </r>
       <r>    5.0483    1.0000 </r>
       <r>   11.4306    1.0000 </r>
       <r>   11.4306    1.0000 </r>
       <r>   13.8236    0.0252 </r>
       <r>   13.8236    0.0317 </r>
       <r>   20.1762    0.0000 </r>
       <r>   20.1762    0.0000 </r>
      </set>
      <set comment="kpoint 455">
       <r>   -3.7897    1.0000 </r>
       <r>   -3.7897    1.0000 </r>
       <r>   -2.5642    1.0000 </r>
       <r>   -2.5642    1.0000 </r>
       <r>    4.9746    1.0000 </r>
       <r>    4.9746    1.0000 </r>
       <r>   11.7863    1.0000 </r>
       <r>   11.7863    1.0000 </r>
       <r>   13.4773    0.7163 </r>
       <r>   13.4773    0.3980 </r>
       <r>   20.0450    0.0000 </r>
       <r>   20.0450    0.0000 </r>
      </set>
     </set>
    </set>
   </array>
  </eigenvalues>
  <separator name="orbital magnetization" >
   <v name="MAGDIPOLOUT">      0.00000000      0.00000000      0.00000000</v>
  </separator>
  <dos>
   <i name="efermi">     13.72328607 </i>
   <total>
    <array>
     <dimension dim="1">gridpoints</dimension>
     <dimension dim="2">spin</dimension>
     <field>energy</field>
     <field>total</field>
     <field>integrated</field>
     <set>
      <set comment="spin 1">
       <r>   -13.5159     0.0000     0.0000 </r>
       <r>   -13.3766     0.0000     0.0000 </r>
       <r>   -13.2373     0.0000     0.0000 </r>
       <r>   -13.0980     0.0000     0.0000 </r>
       <r>   -12.9587     0.0000     0.0000 </r>
       <r>   -12.8194     0.0000     0.0000 </r>
       <r>   -12.6802     0.0000     0.0000 </r>
       <r>   -12.5409     0.0000     0.0000 </r>
       <r>   -12.4016     0.0000     0.0000 </r>
       <r>   -12.2623     0.0000     0.0000 </r>
       <r>   -12.1230     0.0000     0.0000 </r>
       <r>   -11.9837     0.0000     0.0000 </r>
       <r>   -11.8444     0.0000     0.0000 </r>
       <r>   -11.7051     0.0000     0.0000 </r>
       <r>   -11.5658     0.0000     0.0000 </r>
       <r>   -11.4265     0.0380     0.0013 </r>
       <r>   -11.2872     0.0817     0.0103 </r>
       <r>   -11.1479     0.1068     0.0237 </r>
       <r>   -11.0086     0.1316     0.0402 </r>
       <r>   -10.8693     0.1508     0.0601 </r>
       <r>   -10.7300     0.1637     0.0820 </r>
       <r>   -10.5908     0.1806     0.1059 </r>
       <r>   -10.4515     0.1947     0.1322 </r>
       <r>   -10.3122     0.2081     0.1602 </r>
       <r>   -10.1729     0.2211     0.1901 </r>
       <r>   -10.0336     0.2334     0.2218 </r>
       <r>    -9.8943     0.2429     0.2550 </r>
       <r>    -9.7550     0.2530     0.2895 </r>
       <r>    -9.6157     0.2642     0.3255 </r>
       <r>    -9.4764     0.2756     0.3631 </r>
       <r>    -9.3371     0.2872     0.4023 </r>
       <r>    -9.1978     0.2956     0.4429 </r>
       <r>    -9.0585     0.3041     0.4847 </r>
       <r>    -8.9192     0.3130     0.5277 </r>
       <r>    -8.7799     0.3221     0.5719 </r>
       <r>    -8.6406     0.3319     0.6174 </r>
       <r>    -8.5014     0.3404     0.6643 </r>
       <r>    -8.3621     0.3489     0.7123 </r>
       <r>    -8.2228     0.3578     0.7615 </r>
       <r>    -8.0835     0.3669     0.8120 </r>
       <r>    -7.9442     0.3755     0.8637 </r>
       <r>    -7.8049     0.3840     0.9166 </r>
       <r>    -7.6656     0.3918     0.9706 </r>
       <r>    -7.5263     0.3996     1.0257 </r>
       <r>    -7.3870     0.4077     1.0820 </r>
       <r>    -7.2477     0.4162     1.1393 </r>
       <r>    -7.1084     0.4250     1.1979 </r>
       <r>    -6.9691     0.4345     1.2578 </r>
       <r>    -6.8298     0.4442     1.3190 </r>
       <r>    -6.6905     0.4537     1.3815 </r>
       <r>    -6.5513     0.4638     1.4454 </r>
       <r>    -6.4120     0.4753     1.5108 </r>
       <r>    -6.2727     0.4895     1.5780 </r>
       <r>    -6.1334     0.5063     1.6473 </r>
       <r>    -5.9941     0.5499     1.7201 </r>
       <r>    -5.8548     0.5585     1.7984 </r>
       <r>    -5.7155     0.5421     1.8748 </r>
       <r>    -5.5762     0.5740     1.9524 </r>
       <r>    -5.4369     0.5331     2.0294 </r>
       <r>    -5.2976     0.5226     2.1029 </r>
       <r>    -5.1583     0.5129     2.1750 </r>
       <r>    -5.0190     0.4974     2.2452 </r>
       <r>    -4.8797     0.5091     2.3149 </r>
       <r>    -4.7404     0.4959     2.3854 </r>
       <r>    -4.6011     0.4870     2.4537 </r>
       <r>    -4.4619     0.4883     2.5217 </r>
       <r>    -4.3226     0.5271     2.5914 </r>
       <r>    -4.1833     0.5457     2.6677 </r>
       <r>    -4.0440     0.5587     2.7440 </r>
       <r>    -3.9047     0.5891     2.8239 </r>
       <r>    -3.7654     0.6493     2.9104 </r>
       <r>    -3.6261     0.6578     3.0012 </r>
       <r>    -3.4868     0.6855     3.0951 </r>
       <r>    -3.3475     0.6906     3.1909 </r>
       <r>    -3.2082     0.6407     3.2843 </r>
       <r>    -3.0689     0.6180     3.3719 </r>
       <r>    -2.9296     0.6399     3.4599 </r>
       <r>    -2.7903     0.5822     3.5460 </r>
       <r>    -2.6510     0.5563     3.6233 </r>
       <r>    -2.5118     0.5867     3.7044 </r>
       <r>    -2.3725     0.5740     3.7857 </r>
       <r>    -2.2332     0.5821     3.8684 </r>
       <r>    -2.0939     0.5749     3.9490 </r>
       <r>    -1.9546     0.5559     4.0276 </r>
       <r>    -1.8153     0.5573     4.1043 </r>
       <r>    -1.6760     0.6307     4.1851 </r>
       <r>    -1.5367     0.6517     4.2765 </r>
       <r>    -1.3974     0.6607     4.3681 </r>
       <r>    -1.2581     0.6592     4.4595 </r>
       <r>    -1.1188     0.6873     4.5528 </r>
       <r>    -0.9795     0.7012     4.6496 </r>
       <r>    -0.8402     0.7531     4.7503 </r>
       <r>    -0.7009     0.7813     4.8580 </r>
       <r>    -0.5616     0.7696     4.9666 </r>
       <r>    -0.4224     0.7177     5.0699 </r>
       <r>    -0.2831     0.6826     5.1674 </r>
       <r>    -0.1438     0.6572     5.2605 </r>
       <r>    -0.0045     0.6509     5.3514 </r>
       <r>     0.1348     0.6551     5.4421 </r>
       <r>     0.2741     0.6896     5.5348 </r>
       <r>     0.4134     0.7285     5.6354 </r>
       <r>     0.5527     0.7945     5.7398 </r>
       <r>     0.6920     0.7727     5.8501 </r>
       <r>     0.8313     0.7774     5.9579 </r>
       <r>     0.9706     0.7904     6.0670 </r>
       <r>     1.1099     0.8076     6.1783 </r>
       <r>     1.2492     0.8121     6.2912 </r>
       <r>     1.3885     0.8077     6.4042 </r>
       <r>     1.5277     0.8058     6.5166 </r>
       <r>     1.6670     0.8048     6.6285 </r>
       <r>     1.8063     0.8533     6.7425 </r>
       <r>     1.9456     0.8699     6.8626 </r>
       <r>     2.0849     0.8930     6.9848 </r>
       <r>     2.2242     0.9373     7.1121 </r>
       <r>     2.3635     0.9587     7.2448 </r>
       <r>     2.5028     0.9865     7.3801 </r>
       <r>     2.6421     0.9863     7.5179 </r>
       <r>     2.7814     0.9595     7.6533 </r>
       <r>     2.9207     0.9722     7.7877 </r>
       <r>     3.0600     1.0129     7.9261 </r>
       <r>     3.1993     1.0932     8.0718 </r>
       <r>     3.3386     1.1709     8.2295 </r>
       <r>     3.4779     1.1754     8.3943 </r>
       <r>     3.6171     1.0539     8.5519 </r>
       <r>     3.7564     1.0285     8.6940 </r>
       <r>     3.8957     1.0458     8.8381 </r>
       <r>     4.0350     1.1116     8.9876 </r>
       <r>     4.1743     1.1650     9.1474 </r>
       <r>     4.3136     1.1756     9.3100 </r>
       <r>     4.4529     1.2211     9.4769 </r>
       <r>     4.5922     1.1859     9.6458 </r>
       <r>     4.7315     1.1217     9.8058 </r>
       <r>     4.8708     1.1036     9.9605 </r>
       <r>     5.0101     1.1458    10.1160 </r>
       <r>     5.1494     1.1800    10.2781 </r>
       <r>     5.2887     1.2330    10.4463 </r>
       <r>     5.4280     1.1386    10.6112 </r>
       <r>     5.5672     1.0955    10.7655 </r>
       <r>     5.7065     1.0911    10.9197 </r>
       <r>     5.8458     1.0579    11.0693 </r>
       <r>     5.9851     1.0143    11.2138 </r>
       <r>     6.1244     0.9452    11.3510 </r>
       <r>     6.2637     0.9261    11.4807 </r>
       <r>     6.4030     0.9792    11.6126 </r>
       <r>     6.5423     1.0066    11.7520 </r>
       <r>     6.6816     1.0343    11.8941 </r>
       <r>     6.8209     1.1431    12.0448 </r>
       <r>     6.9602     1.1097    12.2039 </r>
       <r>     7.0995     1.0080    12.3513 </r>
       <r>     7.2388     0.9350    12.4866 </r>
       <r>     7.3781     0.8535    12.6106 </r>
       <r>     7.5174     0.7934    12.7257 </r>
       <r>     7.6566     0.7525    12.8323 </r>
       <r>     7.7959     0.6783    12.9314 </r>
       <r>     7.9352     0.6577    13.0237 </r>
       <r>     8.0745     0.6628    13.1157 </r>
       <r>     8.2138     0.6856    13.2101 </r>
       <r>     8.3531     0.6273    13.3030 </r>
       <r>     8.4924     0.6009    13.3889 </r>
       <r>     8.6317     0.5722    13.4705 </r>
       <r>     8.7710     0.5694    13.5495 </r>
       <r>     8.9103     0.5464    13.6277 </r>
       <r>     9.0496     0.5247    13.7013 </r>
       <r>     9.1889     0.4555    13.7708 </r>
       <r>     9.3282     0.3281    13.8223 </r>
       <r>     9.4675     0.3391    13.8687 </r>
       <r>     9.6067     0.3527    13.9169 </r>
       <r>     9.7460     0.3698    13.9672 </r>
       <r>     9.8853     0.3941    14.0204 </r>
       <r>    10.0246     0.4125    14.0767 </r>
       <r>    10.1639     0.4239    14.1350 </r>
       <r>    10.3032     0.4287    14.1945 </r>
       <r>    10.4425     0.4282    14.2541 </r>
       <r>    10.5818     0.4325    14.3140 </r>
       <r>    10.7211     0.4418    14.3748 </r>
       <r>    10.8604     0.4524    14.4371 </r>
       <r>    10.9997     0.4655    14.5010 </r>
       <r>    11.1390     0.4812    14.5669 </r>
       <r>    11.2783     0.5021    14.6352 </r>
       <r>    11.4176     0.5357    14.7072 </r>
       <r>    11.5569     0.5998    14.7864 </r>
       <r>    11.6961     0.6986    14.8768 </r>
       <r>    11.8354     0.6409    14.9702 </r>
       <r>    11.9747     0.6424    15.0594 </r>
       <r>    12.1140     0.6390    15.1498 </r>
       <r>    12.2533     0.6743    15.2411 </r>
       <r>    12.3926     0.6369    15.3339 </r>
       <r>    12.5319     0.6089    15.4200 </r>
       <r>    12.6712     0.5994    15.5048 </r>
       <r>    12.8105     0.5425    15.5844 </r>
       <r>    12.9498     0.4569    15.6532 </r>
       <r>    13.0891     0.4202    15.7141 </r>
       <r>    13.2284     0.4128    15.7716 </r>
       <r>    13.3677     0.4316    15.8303 </r>
       <r>    13.5070     0.4700    15.8934 </r>
       <r>    13.6462     0.5070    15.9613 </r>
       <r>    13.7855     0.5269    16.0319 </r>
       <r>    13.9248     0.6566    16.1130 </r>
       <r>    14.0641     0.8128    16.2149 </r>
       <r>    14.2034     1.1203    16.3519 </r>
       <r>    14.3427     0.8985    16.4898 </r>
       <r>    14.4820     0.8913    16.6145 </r>
       <r>    14.6213     0.8667    16.7366 </r>
       <r>    14.7606     0.9480    16.8608 </r>
       <r>    14.8999     0.9394    16.9947 </r>
       <r>    15.0392     0.9169    17.1238 </r>
       <r>    15.1785     0.9734    17.2537 </r>
       <r>    15.3178     0.9689    17.3907 </r>
       <r>    15.4571     0.8829    17.5188 </r>
       <r>    15.5964     0.8354    17.6405 </r>
       <r>    15.7356     0.7512    17.7501 </r>
       <r>    15.8749     0.7964    17.8581 </r>
       <r>    16.0142     0.8768    17.9799 </r>
       <r>    16.1535     0.8381    18.0996 </r>
       <r>    16.2928     0.7235    18.2083 </r>
       <r>    16.4321     0.7026    18.3076 </r>
       <r>    16.5714     0.6850    18.4042 </r>
       <r>    16.7107     0.6699    18.4987 </r>
       <r>    16.8500     0.6510    18.5904 </r>
       <r>    16.9893     0.6395    18.6802 </r>
       <r>    17.1286     0.6304    18.7687 </r>
       <r>    17.2679     0.6225    18.8559 </r>
       <r>    17.4072     0.6100    18.9419 </r>
       <r>    17.5465     0.5995    19.0261 </r>
       <r>    17.6858     0.5874    19.1088 </r>
       <r>    17.8250     0.5761    19.1898 </r>
       <r>    17.9643     0.5641    19.2692 </r>
       <r>    18.1036     0.5497    19.3468 </r>
       <r>    18.2429     0.5351    19.4225 </r>
       <r>    18.3822     0.5473    19.4980 </r>
       <r>    18.5215     0.5088    19.5718 </r>
       <r>    18.6608     0.4809    19.6402 </r>
       <r>    18.8001     0.4259    19.7046 </r>
       <r>    18.9394     0.3245    19.7562 </r>
       <r>    19.0787     0.3731    19.8011 </r>
       <r>    19.2180     0.6215    19.8627 </r>
       <r>    19.3573     0.2889    19.9034 </r>
       <r>    19.4966     0.4290    19.9531 </r>
       <r>    19.6359     0.5537    20.0230 </r>
       <r>    19.7751     0.5834    20.1041 </r>
       <r>    19.9144     0.6385    20.1891 </r>
       <r>    20.0537     0.7216    20.2832 </r>
       <r>    20.1930     0.8249    20.3896 </r>
       <r>    20.3323     0.9533    20.5148 </r>
       <r>    20.4716     1.0475    20.6541 </r>
       <r>    20.6109     1.0587    20.8027 </r>
       <r>    20.7502     1.0455    20.9502 </r>
       <r>    20.8895     0.9789    21.0913 </r>
       <r>    21.0288     0.9383    21.2245 </r>
       <r>    21.1681     0.9169    21.3538 </r>
       <r>    21.3074     0.9461    21.4832 </r>
       <r>    21.4467     0.9629    21.6160 </r>
       <r>    21.5860     0.9688    21.7510 </r>
       <r>    21.7253     0.9329    21.8831 </r>
       <r>    21.8645     0.9036    22.0112 </r>
       <r>    22.0038     0.8979    22.1364 </r>
       <r>    22.1431     0.7264    22.2508 </r>
       <r>    22.2824     0.6824    22.3474 </r>
       <r>    22.4217     0.6996    22.4440 </r>
       <r>    22.5610     0.7587    22.5465 </r>
       <r>    22.7003     0.8173    22.6560 </r>
       <r>    22.8396     0.8270    22.7708 </r>
       <r>    22.9789     0.8033    22.8849 </r>
       <r>    23.1182     0.7172    22.9933 </r>
       <r>    23.2575     0.7084    23.0909 </r>
       <r>    23.3968     0.8554    23.1950 </r>
       <r>    23.5361     0.9628    23.3288 </r>
       <r>    23.6754     0.5927    23.4412 </r>
       <r>    23.8146     0.5266    23.5182 </r>
       <r>    23.9539     0.4688    23.5875 </r>
       <r>    24.0932     0.3976    23.6478 </r>
       <r>    24.2325     0.3386    23.6988 </r>
       <r>    24.3718     0.2971    23.7427 </r>
       <r>    24.5111     0.2975    23.7837 </r>
       <r>    24.6504     0.2799    23.8238 </r>
       <r>    24.7897     0.2907    23.8656 </r>
       <r>    24.9290     0.2412    23.9028 </r>
       <r>    25.0683     0.1756    23.9320 </r>
       <r>    25.2076     0.1395    23.9542 </r>
       <r>    25.3469     0.0908    23.9702 </r>
       <r>    25.4862     0.0611    23.9805 </r>
       <r>    25.6255     0.0456    23.9878 </r>
       <r>    25.7648     0.0323    23.9932 </r>
       <r>    25.9040     0.0207    23.9969 </r>
       <r>    26.0433     0.0106    23.9991 </r>
       <r>    26.1826     0.0021    23.9999 </r>
       <r>    26.3219     0.0000    24.0000 </r>
       <r>    26.4612     0.0000    24.0000 </r>
       <r>    26.6005     0.0000    24.0000 </r>
       <r>    26.7398     0.0000    24.0000 </r>
       <r>    26.8791     0.0000    24.0000 </r>
       <r>    27.0184     0.0000    24.0000 </r>
       <r>    27.1577     0.0000    24.0000 </r>
       <r>    27.2970     0.0000    24.0000 </r>
       <r>    27.4363     0.0000    24.0000 </r>
       <r>    27.5756     0.0000    24.0000 </r>
       <r>    27.7149     0.0000    24.0000 </r>
       <r>    27.8541     0.0000    24.0000 </r>
       <r>    27.9934     0.0000    24.0000 </r>
       <r>    28.1327     0.0000    24.0000 </r>
       <r>    28.2720     0.0000    24.0000 </r>
      </set>
     </set>
    </array>
   </total>
  </dos>
 </calculation>
 <structure name="finalpos" >
  <crystal>
   <varray name="basis" >
    <v>       2.46715544      -0.00011120       0.00000000 </v>
    <v>      -1.23367402       2.13656369       0.00000000 </v>
    <v>       0.00000000       0.00000000       3.69915827 </v>
   </varray>
   <i name="volume">     19.49862409 </i>
   <varray name="rec_basis" >
    <v>       0.40533564       0.23404500       0.00000000 </v>
    <v>       0.00002110       0.46805346       0.00000000 </v>
    <v>       0.00000000       0.00000000       0.27033177 </v>
   </varray>
  </crystal>
  <varray name="positions" >
   <v>       0.99999970       0.00000035       0.25000000 </v>
   <v>       0.00000035       0.99999970       0.75000000 </v>
   <v>       0.33329893       0.66670105       0.25000000 </v>
   <v>       0.66670105       0.33329893       0.75000000 </v>
  </varray>
 </structure>
</modeling>
