  48  48   0   0
  0.9620600E+01  0.7355000E-09  0.9371000E-09  0.6700000E-09  0.5000000E-15
  1.000000000000000E-004
  CAR 
 benzene                                 
     10.45073407    -18.76233650  301     -1.40490374      1.00000000
    -18.762  0.0000E+00  0.0000E+00
    -18.665  0.0000E+00  0.0000E+00
    -18.568  0.0000E+00  0.0000E+00
    -18.470  0.0000E+00  0.0000E+00
    -18.373  0.0000E+00  0.0000E+00
    -18.275  0.0000E+00  0.0000E+00
    -18.178  0.0000E+00  0.0000E+00
    -18.081  0.0000E+00  0.0000E+00
    -17.983  0.0000E+00  0.0000E+00
    -17.886  0.0000E+00  0.0000E+00
    -17.789  0.0000E+00  0.0000E+00
    -17.691  0.0000E+00  0.0000E+00
    -17.594  0.0000E+00  0.0000E+00
    -17.496  0.0000E+00  0.0000E+00
    -17.399  0.0000E+00  0.0000E+00
    -17.302  0.0000E+00  0.0000E+00
    -17.204  0.0000E+00  0.0000E+00
    -17.107  0.0000E+00  0.0000E+00
    -17.010  0.0000E+00  0.0000E+00
    -16.912  0.0000E+00  0.0000E+00
    -16.815  0.0000E+00  0.0000E+00
    -16.717  0.7533E-01  0.1499E-02
    -16.620  0.4384E+00  0.2507E-01
    -16.523  0.0000E+00  0.4000E-01
    -16.425  0.0000E+00  0.4000E-01
    -16.328  0.0000E+00  0.4000E-01
    -16.231  0.0000E+00  0.4000E-01
    -16.133  0.0000E+00  0.4000E-01
    -16.036  0.0000E+00  0.4000E-01
    -15.938  0.0000E+00  0.4000E-01
    -15.841  0.0000E+00  0.4000E-01
    -15.744  0.0000E+00  0.4000E-01
    -15.646  0.0000E+00  0.4000E-01
    -15.549  0.0000E+00  0.4000E-01
    -15.452  0.0000E+00  0.4000E-01
    -15.354  0.0000E+00  0.4000E-01
    -15.257  0.0000E+00  0.4000E-01
    -15.159  0.0000E+00  0.4000E-01
    -15.062  0.0000E+00  0.4000E-01
    -14.965  0.0000E+00  0.4000E-01
    -14.867  0.0000E+00  0.4000E-01
    -14.770  0.0000E+00  0.4000E-01
    -14.673  0.0000E+00  0.4000E-01
    -14.575  0.0000E+00  0.4000E-01
    -14.478  0.0000E+00  0.4000E-01
    -14.380  0.0000E+00  0.4000E-01
    -14.283  0.0000E+00  0.4000E-01
    -14.186  0.0000E+00  0.4000E-01
    -14.088  0.0000E+00  0.4000E-01
    -13.991  0.4916E-01  0.4112E-01
    -13.893  0.4439E+00  0.6099E-01
    -13.796  0.6283E+00  0.9355E-01
    -13.699  0.0000E+00  0.1200E+00
    -13.601  0.0000E+00  0.1200E+00
    -13.504  0.0000E+00  0.1200E+00
    -13.407  0.0000E+00  0.1200E+00
    -13.309  0.0000E+00  0.1200E+00
    -13.212  0.0000E+00  0.1200E+00
    -13.114  0.0000E+00  0.1200E+00
    -13.017  0.0000E+00  0.1200E+00
    -12.920  0.0000E+00  0.1200E+00
    -12.822  0.0000E+00  0.1200E+00
    -12.725  0.0000E+00  0.1200E+00
    -12.628  0.0000E+00  0.1200E+00
    -12.530  0.0000E+00  0.1200E+00
    -12.433  0.0000E+00  0.1200E+00
    -12.335  0.0000E+00  0.1200E+00
    -12.238  0.0000E+00  0.1200E+00
    -12.141  0.0000E+00  0.1200E+00
    -12.043  0.0000E+00  0.1200E+00
    -11.946  0.0000E+00  0.1200E+00
    -11.849  0.0000E+00  0.1200E+00
    -11.751  0.0000E+00  0.1200E+00
    -11.654  0.0000E+00  0.1200E+00
    -11.556  0.0000E+00  0.1200E+00
    -11.459  0.0000E+00  0.1200E+00
    -11.362  0.0000E+00  0.1200E+00
    -11.264  0.0000E+00  0.1200E+00
    -11.167  0.0000E+00  0.1200E+00
    -11.070  0.0000E+00  0.1200E+00
    -10.972  0.0000E+00  0.1200E+00
    -10.875  0.0000E+00  0.1200E+00
    -10.777  0.0000E+00  0.1200E+00
    -10.680  0.0000E+00  0.1200E+00
    -10.583  0.0000E+00  0.1200E+00
    -10.485  0.0000E+00  0.1200E+00
    -10.388  0.0000E+00  0.1200E+00
    -10.291  0.3964E+00  0.1373E+00
    -10.193  0.3282E+00  0.1631E+00
    -10.096  0.2224E+00  0.1929E+00
     -9.998  0.9284E-02  0.1999E+00
     -9.901  0.0000E+00  0.2000E+00
     -9.804  0.0000E+00  0.2000E+00
     -9.706  0.0000E+00  0.2000E+00
     -9.609  0.0000E+00  0.2000E+00
     -9.512  0.0000E+00  0.2000E+00
     -9.414  0.0000E+00  0.2000E+00
     -9.317  0.0000E+00  0.2000E+00
     -9.219  0.0000E+00  0.2000E+00
     -9.122  0.0000E+00  0.2000E+00
     -9.025  0.0000E+00  0.2000E+00
     -8.927  0.0000E+00  0.2000E+00
     -8.830  0.0000E+00  0.2000E+00
     -8.733  0.0000E+00  0.2000E+00
     -8.635  0.3484E-02  0.2000E+00
     -8.538  0.2732E-01  0.2018E+00
     -8.440  0.4326E-01  0.2052E+00
     -8.343  0.8053E-01  0.2111E+00
     -8.246  0.1205E+00  0.2214E+00
     -8.148  0.7297E-01  0.2333E+00
     -8.051  0.2985E-01  0.2380E+00
     -7.954  0.7978E-02  0.2398E+00
     -7.856  0.0000E+00  0.2400E+00
     -7.759  0.0000E+00  0.2400E+00
     -7.661  0.0000E+00  0.2400E+00
     -7.564  0.0000E+00  0.2400E+00
     -7.467  0.0000E+00  0.2400E+00
     -7.369  0.0000E+00  0.2400E+00
     -7.272  0.0000E+00  0.2400E+00
     -7.174  0.0000E+00  0.2400E+00
     -7.077  0.0000E+00  0.2400E+00
     -6.980  0.0000E+00  0.2400E+00
     -6.882  0.1968E-02  0.2400E+00
     -6.785  0.3502E-01  0.2416E+00
     -6.688  0.9528E-01  0.2474E+00
     -6.590  0.9089E-01  0.2603E+00
     -6.493  0.1117E+00  0.2710E+00
     -6.395  0.5687E-01  0.2779E+00
     -6.298  0.5084E+00  0.2863E+00
     -6.201  0.0000E+00  0.3200E+00
     -6.103  0.0000E+00  0.3200E+00
     -6.006  0.0000E+00  0.3200E+00
     -5.909  0.7111E-01  0.3215E+00
     -5.811  0.1814E+00  0.3424E+00
     -5.714  0.7348E-01  0.3541E+00
     -5.616  0.3485E-01  0.3591E+00
     -5.519  0.1652E+00  0.3663E+00
     -5.422  0.1805E+00  0.3831E+00
     -5.324  0.3999E-01  0.3990E+00
     -5.227  0.0000E+00  0.4000E+00
     -5.130  0.0000E+00  0.4000E+00
     -5.032  0.0000E+00  0.4000E+00
     -4.935  0.0000E+00  0.4000E+00
     -4.837  0.0000E+00  0.4000E+00
     -4.740  0.0000E+00  0.4000E+00
     -4.643  0.3788E-01  0.4009E+00
     -4.545  0.1219E+00  0.4089E+00
     -4.448  0.1446E+00  0.4226E+00
     -4.351  0.6989E-01  0.4382E+00
     -4.253  0.8977E-03  0.4400E+00
     -4.156  0.0000E+00  0.4400E+00
     -4.058  0.0000E+00  0.4400E+00
     -3.961  0.0000E+00  0.4400E+00
     -3.864  0.1735E-02  0.4400E+00
     -3.766  0.4589E-01  0.4412E+00
     -3.669  0.3037E+00  0.4620E+00
     -3.572  0.2442E-01  0.4799E+00
     -3.474  0.2158E+00  0.4993E+00
     -3.377  0.5551E-01  0.5184E+00
     -3.279  0.0000E+00  0.5200E+00
     -3.182  0.0000E+00  0.5200E+00
     -3.085  0.0000E+00  0.5200E+00
     -2.987  0.0000E+00  0.5200E+00
     -2.890  0.0000E+00  0.5200E+00
     -2.793  0.0000E+00  0.5200E+00
     -2.695  0.0000E+00  0.5200E+00
     -2.598  0.0000E+00  0.5200E+00
     -2.500  0.0000E+00  0.5200E+00
     -2.403  0.0000E+00  0.5200E+00
     -2.306  0.0000E+00  0.5200E+00
     -2.208  0.0000E+00  0.5200E+00
     -2.111  0.2117E-01  0.5203E+00
     -2.014  0.8144E-01  0.5258E+00
     -1.916  0.1580E+00  0.5376E+00
     -1.819  0.5792E-01  0.5596E+00
     -1.721  0.1904E+00  0.5734E+00
     -1.624  0.1159E+00  0.5916E+00
     -1.527  0.3581E-01  0.5991E+00
     -1.429  0.0000E+00  0.6000E+00
     -1.332  0.0000E+00  0.6000E+00
     -1.234  0.0000E+00  0.6000E+00
     -1.137  0.0000E+00  0.6000E+00
     -1.040  0.0000E+00  0.6000E+00
     -0.942  0.0000E+00  0.6000E+00
     -0.845  0.0000E+00  0.6000E+00
     -0.748  0.0000E+00  0.6000E+00
     -0.650  0.0000E+00  0.6000E+00
     -0.553  0.0000E+00  0.6000E+00
     -0.455  0.0000E+00  0.6000E+00
     -0.358  0.0000E+00  0.6000E+00
     -0.261  0.0000E+00  0.6000E+00
     -0.163  0.0000E+00  0.6000E+00
     -0.066  0.0000E+00  0.6000E+00
      0.031  0.0000E+00  0.6000E+00
      0.129  0.0000E+00  0.6000E+00
      0.226  0.0000E+00  0.6000E+00
      0.324  0.0000E+00  0.6000E+00
      0.421  0.0000E+00  0.6000E+00
      0.518  0.0000E+00  0.6000E+00
      0.616  0.0000E+00  0.6000E+00
      0.713  0.0000E+00  0.6000E+00
      0.810  0.0000E+00  0.6000E+00
      0.908  0.0000E+00  0.6000E+00
      1.005  0.0000E+00  0.6000E+00
      1.103  0.0000E+00  0.6000E+00
      1.200  0.0000E+00  0.6000E+00
      1.297  0.0000E+00  0.6000E+00
      1.395  0.0000E+00  0.6000E+00
      1.492  0.0000E+00  0.6000E+00
      1.589  0.0000E+00  0.6000E+00
      1.687  0.0000E+00  0.6000E+00
      1.784  0.0000E+00  0.6000E+00
      1.882  0.0000E+00  0.6000E+00
      1.979  0.0000E+00  0.6000E+00
      2.076  0.0000E+00  0.6000E+00
      2.174  0.0000E+00  0.6000E+00
      2.271  0.0000E+00  0.6000E+00
      2.368  0.0000E+00  0.6000E+00
      2.466  0.0000E+00  0.6000E+00
      2.563  0.0000E+00  0.6000E+00
      2.661  0.0000E+00  0.6000E+00
      2.758  0.0000E+00  0.6000E+00
      2.855  0.0000E+00  0.6000E+00
      2.953  0.7538E-02  0.6001E+00
      3.050  0.2278E+00  0.6149E+00
      3.147  0.1150E+00  0.6275E+00
      3.245  0.6442E-01  0.6381E+00
      3.342  0.1316E+00  0.6450E+00
      3.440  0.1248E+00  0.6590E+00
      3.537  0.1242E+00  0.6735E+00
      3.634  0.1930E-01  0.6794E+00
      3.732  0.2651E-04  0.6800E+00
      3.829  0.0000E+00  0.6800E+00
      3.926  0.0000E+00  0.6800E+00
      4.024  0.0000E+00  0.6800E+00
      4.121  0.0000E+00  0.6800E+00
      4.219  0.0000E+00  0.6800E+00
      4.316  0.1274E-03  0.6800E+00
      4.413  0.1350E-02  0.6801E+00
      4.511  0.3680E-02  0.6803E+00
      4.608  0.6366E-02  0.6808E+00
      4.705  0.7461E-02  0.6815E+00
      4.803  0.8282E-02  0.6822E+00
      4.900  0.1017E-01  0.6831E+00
      4.998  0.1233E-01  0.6842E+00
      5.095  0.1475E-01  0.6855E+00
      5.192  0.1967E-01  0.6872E+00
      5.290  0.3212E-01  0.6897E+00
      5.387  0.3663E-01  0.6931E+00
      5.485  0.4064E-01  0.6969E+00
      5.582  0.3181E-01  0.7006E+00
      5.679  0.3044E-01  0.7031E+00
      5.777  0.6770E-01  0.7088E+00
      5.874  0.4424E-01  0.7139E+00
      5.971  0.3139E-01  0.7174E+00
      6.069  0.1221E-01  0.7194E+00
      6.166  0.1152E+00  0.7246E+00
      6.264  0.8682E-01  0.7357E+00
      6.361  0.4582E-01  0.7415E+00
      6.458  0.5473E-01  0.7462E+00
      6.556  0.6013E-01  0.7520E+00
      6.653  0.4537E-01  0.7567E+00
      6.750  0.8129E-01  0.7627E+00
      6.848  0.1676E+00  0.7738E+00
      6.945  0.9564E-01  0.7862E+00
      7.043  0.1003E+00  0.7950E+00
      7.140  0.5035E-01  0.8030E+00
      7.237  0.5155E-01  0.8074E+00
      7.335  0.5673E-01  0.8131E+00
      7.432  0.5780E-01  0.8187E+00
      7.529  0.6515E-01  0.8249E+00
      7.627  0.9053E-01  0.8329E+00
      7.724  0.3482E-01  0.8379E+00
      7.822  0.2133E-01  0.8401E+00
      7.919  0.5119E-01  0.8438E+00
      8.016  0.1101E+00  0.8511E+00
      8.114  0.2958E-01  0.8581E+00
      8.211  0.6926E-02  0.8595E+00
      8.308  0.1998E-02  0.8599E+00
      8.406  0.1987E-03  0.8600E+00
      8.503  0.0000E+00  0.8600E+00
      8.601  0.0000E+00  0.8600E+00
      8.698  0.0000E+00  0.8600E+00
      8.795  0.0000E+00  0.8600E+00
      8.893  0.0000E+00  0.8600E+00
      8.990  0.0000E+00  0.8600E+00
      9.087  0.0000E+00  0.8600E+00
      9.185  0.0000E+00  0.8600E+00
      9.282  0.0000E+00  0.8600E+00
      9.380  0.0000E+00  0.8600E+00
      9.477  0.0000E+00  0.8600E+00
      9.574  0.0000E+00  0.8600E+00
      9.672  0.0000E+00  0.8600E+00
      9.769  0.0000E+00  0.8600E+00
      9.866  0.0000E+00  0.8600E+00
      9.964  0.0000E+00  0.8600E+00
     10.061  0.0000E+00  0.8600E+00
     10.159  0.0000E+00  0.8600E+00
     10.256  0.0000E+00  0.8600E+00
     10.353  0.0000E+00  0.8600E+00
     10.451  0.0000E+00  0.8600E+00
