   48   48  200    1
  0.9620600E+01  0.7355000E-09  0.9371000E-09  0.6700000E-09  0.5000000E-15
  1.000000000000000E-004
  CAR 
 benzene                                 
    120     27     86
 
  0.0000000E+00  0.0000000E+00  0.0000000E+00  0.1562500E-01
    1      -16.762336
    2      -16.647070
    3      -16.582526
    4      -16.560844
    5      -14.053204
    6      -13.903878
    7      -13.864788
    8      -13.831642
    9      -13.806082
   10      -13.764583
   11      -13.757178
   12      -13.732379
   13      -10.342305
   14      -10.340026
   15      -10.287300
   16      -10.240020
   17      -10.192274
   18      -10.170292
   19      -10.135238
   20       -9.963963
   21       -8.658554
   22       -8.253211
   23       -8.193221
   24       -7.881461
   25       -6.906902
   26       -6.736627
   27       -6.453974
   28       -6.361079
   29       -6.346490
   30       -6.327893
   31       -6.241170
   32       -6.232433
   33       -5.994377
   34       -5.946666
   35       -5.944056
   36       -5.547251
   37       -5.494229
   38       -5.461322
   39       -5.443671
   40       -5.236999
   41       -4.482578
   42       -4.363583
   43       -4.292317
   44       -4.233239
   45       -3.911878
   46       -3.825333
   47       -3.817117
   48       -3.729412
   49       -3.515445
   50       -3.489424
   51       -3.478849
   52       -3.290290
   53       -2.138704
   54       -2.125923
   55       -1.978813
   56       -1.897483
   57       -1.695338
   58       -1.593168
   59       -1.494421
   60       -1.454432
   61        2.976912
   62        3.003510
   63        3.132911
   64        3.285690
   65        3.296174
   66        3.387728
   67        3.576837
   68        3.735967
   69        4.272800
   70        5.431051
   71        5.600160
   72        6.285124
   73        6.413256
   74        6.539715
   75        6.604111
   76        6.805268
   77        6.911970
   78        6.913644
   79        6.914968
   80        7.004699
   81        7.147738
   82        7.524874
   83        7.647586
   84        7.766729
   85        7.852132
   86        8.314174
 
  0.2500000E+00  0.0000000E+00  0.0000000E+00  0.3125000E-01
    1      -16.737518
    2      -16.634629
    3      -16.610495
    4      -16.573653
    5      -14.022708
    6      -13.897359
    7      -13.857107
    8      -13.832371
    9      -13.828462
   10      -13.779176
   11      -13.757416
   12      -13.738539
   13      -10.312840
   14      -10.285500
   15      -10.285157
   16      -10.249998
   17      -10.188345
   18      -10.172553
   19      -10.166128
   20      -10.017562
   21       -8.627317
   22       -8.348287
   23       -8.154212
   24       -7.936376
   25       -6.874998
   26       -6.753628
   27       -6.388071
   28       -6.335091
   29       -6.320729
   30       -6.319422
   31       -6.236981
   32       -6.228753
   33       -5.932789
   34       -5.871848
   35       -5.834818
   36       -5.631927
   37       -5.492367
   38       -5.457020
   39       -5.443304
   40       -5.278998
   41       -4.626050
   42       -4.517799
   43       -4.384688
   44       -4.351526
   45       -3.805002
   46       -3.720828
   47       -3.719237
   48       -3.695429
   49       -3.501620
   50       -3.501280
   51       -3.445810
   52       -3.321177
   53       -2.050332
   54       -2.050281
   55       -1.975448
   56       -1.918980
   57       -1.682289
   58       -1.652037
   59       -1.563791
   60       -1.561367
   61        3.031355
   62        3.080267
   63        3.157638
   64        3.280326
   65        3.299793
   66        3.329928
   67        3.473123
   68        3.602438
   69        4.502081
   70        5.559562
   71        5.719501
   72        5.933624
   73        6.242933
   74        6.505420
   75        6.748491
   76        6.768059
   77        6.803073
   78        6.868541
   79        7.060668
   80        7.094691
   81        7.232889
   82        7.581123
   83        7.588918
   84        7.873672
   85        7.964767
   86        8.160825
 
  0.5000000E+00  0.0000000E+00  0.0000000E+00  0.1562500E-01
    1      -16.675544
    2      -16.675544
    3      -16.604351
    4      -16.604350
    5      -13.948571
    6      -13.948570
    7      -13.841363
    8      -13.841362
    9      -13.815255
   10      -13.815255
   11      -13.751105
   12      -13.751104
   13      -10.276998
   14      -10.276998
   15      -10.236173
   16      -10.236173
   17      -10.181026
   18      -10.181026
   19      -10.148251
   20      -10.148251
   21       -8.517541
   22       -8.517541
   23       -8.052749
   24       -8.052749
   25       -6.807812
   26       -6.807812
   27       -6.317347
   28       -6.317347
   29       -6.303789
   30       -6.303788
   31       -6.230009
   32       -6.230009
   33       -5.845839
   34       -5.845839
   35       -5.601563
   36       -5.601563
   37       -5.572307
   38       -5.572306
   39       -5.371703
   40       -5.371703
   41       -4.703379
   42       -4.703379
   43       -4.474923
   44       -4.474923
   45       -3.706117
   46       -3.706116
   47       -3.565621
   48       -3.565620
   49       -3.554324
   50       -3.554324
   51       -3.385668
   52       -3.385667
   53       -1.961123
   54       -1.961122
   55       -1.853733
   56       -1.853732
   57       -1.813598
   58       -1.813598
   59       -1.638432
   60       -1.638432
   61        3.164527
   62        3.164527
   63        3.231581
   64        3.231581
   65        3.304686
   66        3.304686
   67        3.361781
   68        3.361782
   69        5.115846
   70        5.115847
   71        5.759066
   72        5.759066
   73        6.340800
   74        6.340802
   75        6.890932
   76        6.890932
   77        6.897767
   78        6.897768
   79        6.985911
   80        6.985912
   81        7.610358
   82        7.610358
   83        7.655131
   84        7.655132
   85        7.958824
   86        7.958824
 
  0.0000000E+00  0.2500000E+00  0.0000000E+00  0.3125000E-01
    1      -16.746522
    2      -16.665094
    3      -16.579377
    4      -16.564027
    5      -14.008396
    6      -13.892979
    7      -13.855363
    8      -13.841757
    9      -13.799671
   10      -13.778369
   11      -13.775687
   12      -13.765243
   13      -10.322986
   14      -10.294294
   15      -10.283405
   16      -10.222162
   17      -10.195096
   18      -10.181452
   19      -10.155709
   20      -10.019742
   21       -8.570433
   22       -8.247052
   23       -8.203799
   24       -8.034678
   25       -6.836522
   26       -6.660955
   27       -6.506178
   28       -6.350722
   29       -6.323009
   30       -6.313247
   31       -6.254097
   32       -6.243265
   33       -5.952951
   34       -5.887660
   35       -5.873671
   36       -5.591090
   37       -5.546780
   38       -5.531227
   39       -5.487116
   40       -5.335903
   41       -4.470340
   42       -4.361122
   43       -4.342696
   44       -4.273613
   45       -3.797715
   46       -3.753427
   47       -3.748753
   48       -3.651078
   49       -3.544111
   50       -3.520016
   51       -3.496687
   52       -3.344009
   53       -2.144377
   54       -2.138289
   55       -1.919815
   56       -1.869987
   57       -1.729455
   58       -1.636011
   59       -1.503985
   60       -1.464571
   61        2.973430
   62        2.993270
   63        3.167674
   64        3.276115
   65        3.316821
   66        3.429732
   67        3.516752
   68        3.676028
   69        4.436775
   70        5.320730
   71        5.703262
   72        6.106454
   73        6.207306
   74        6.441659
   75        6.629956
   76        6.809914
   77        6.971802
   78        6.985380
   79        6.999505
   80        7.017309
   81        7.376596
   82        7.529952
   83        7.644000
   84        7.740020
   85        7.851089
   86        8.055583
 
  0.2500000E+00  0.2500000E+00  0.0000000E+00  0.6250000E-01
    1      -16.723267
    2      -16.650585
    3      -16.605187
    4      -16.579123
    5      -13.985804
    6      -13.890976
    7      -13.852476
    8      -13.846442
    9      -13.807385
   10      -13.805995
   11      -13.764645
   12      -13.760810
   13      -10.282914
   14      -10.278931
   15      -10.275624
   16      -10.235283
   17      -10.194916
   18      -10.181569
   19      -10.175517
   20      -10.063149
   21       -8.542473
   22       -8.316557
   23       -8.178681
   24       -8.059932
   25       -6.810878
   26       -6.683907
   27       -6.469154
   28       -6.377284
   29       -6.301305
   30       -6.296240
   31       -6.250234
   32       -6.241072
   33       -5.886797
   34       -5.856034
   35       -5.747136
   36       -5.703295
   37       -5.551347
   38       -5.462056
   39       -5.447234
   40       -5.332409
   41       -4.594599
   42       -4.500105
   43       -4.425818
   44       -4.384547
   45       -3.739210
   46       -3.673855
   47       -3.668375
   48       -3.641639
   49       -3.521521
   50       -3.521457
   51       -3.469094
   52       -3.373753
   53       -2.067978
   54       -2.045794
   55       -1.923433
   56       -1.883182
   57       -1.720007
   58       -1.669366
   59       -1.597746
   60       -1.565001
   61        3.019025
   62        3.077061
   63        3.168400
   64        3.270528
   65        3.317076
   66        3.376119
   67        3.442962
   68        3.566793
   69        4.655016
   70        5.472303
   71        5.790701
   72        6.062970
   73        6.128234
   74        6.265172
   75        6.522647
   76        6.744322
   77        6.856080
   78        6.895250
   79        7.156532
   80        7.173118
   81        7.318076
   82        7.510295
   83        7.579716
   84        7.840929
   85        7.970243
   86        8.010623
 
  0.5000000E+00  0.2500000E+00  0.0000000E+00  0.3125000E-01
    1      -16.665493
    2      -16.665492
    3      -16.615167
    4      -16.615167
    5      -13.931400
    6      -13.931400
    7      -13.839179
    8      -13.839178
    9      -13.825210
   10      -13.825209
   11      -13.760015
   12      -13.760014
   13      -10.264384
   14      -10.264384
   15      -10.234190
   16      -10.234190
   17      -10.185958
   18      -10.185958
   19      -10.166014
   20      -10.166014
   21       -8.449373
   22       -8.449373
   23       -8.119279
   24       -8.119278
   25       -6.747123
   26       -6.747122
   27       -6.410796
   28       -6.410796
   29       -6.286895
   30       -6.286894
   31       -6.242314
   32       -6.242313
   33       -5.834599
   34       -5.834598
   35       -5.649654
   36       -5.649654
   37       -5.526609
   38       -5.526609
   39       -5.354844
   40       -5.354843
   41       -4.666192
   42       -4.666192
   43       -4.514536
   44       -4.514536
   45       -3.662070
   46       -3.662069
   47       -3.555477
   48       -3.555477
   49       -3.553847
   50       -3.553847
   51       -3.426362
   52       -3.426362
   53       -1.932906
   54       -1.932905
   55       -1.832813
   56       -1.832812
   57       -1.821655
   58       -1.821654
   59       -1.683034
   60       -1.683033
   61        3.137489
   62        3.137489
   63        3.237201
   64        3.237202
   65        3.305344
   66        3.305344
   67        3.386248
   68        3.386249
   69        5.242798
   70        5.242799
   71        5.784718
   72        5.784719
   73        6.194648
   74        6.194648
   75        6.697278
   76        6.697278
   77        6.814530
   78        6.814531
   79        7.162650
   80        7.162651
   81        7.533884
   82        7.533885
   83        7.642643
   84        7.642643
   85        7.994470
   86        7.994470
 
  0.0000000E+00  0.5000000E+00  0.0000000E+00  0.1562500E-01
    1      -16.706914
    2      -16.706913
    3      -16.571731
    4      -16.571730
    5      -13.902512
    6      -13.902512
    7      -13.867017
    8      -13.867016
    9      -13.807906
   10      -13.807905
   11      -13.783280
   12      -13.783279
   13      -10.288957
   14      -10.288956
   15      -10.217024
   16      -10.217023
   17      -10.189734
   18      -10.189734
   19      -10.143682
   20      -10.143681
   21       -8.331209
   22       -8.331205
   23       -8.227683
   24       -8.227682
   25       -6.666948
   26       -6.666947
   27       -6.484562
   28       -6.484561
   29       -6.281395
   30       -6.281394
   31       -6.277889
   32       -6.277888
   33       -5.795996
   34       -5.795994
   35       -5.729696
   36       -5.729694
   37       -5.594083
   38       -5.594079
   39       -5.528983
   40       -5.528983
   41       -4.420709
   42       -4.420707
   43       -4.333228
   44       -4.333227
   45       -3.639570
   46       -3.639569
   47       -3.629293
   48       -3.629293
   49       -3.581091
   50       -3.581090
   51       -3.485964
   52       -3.485962
   53       -2.151377
   54       -2.151376
   55       -1.802486
   56       -1.802485
   57       -1.775428
   58       -1.775427
   59       -1.488554
   60       -1.488553
   61        2.974955
   62        2.974956
   63        3.234146
   64        3.234147
   65        3.399491
   66        3.399493
   67        3.544426
   68        3.544427
   69        4.870716
   70        4.870722
   71        5.925866
   72        5.925870
   73        6.189325
   74        6.189329
   75        6.827271
   76        6.827274
   77        6.893642
   78        6.893644
   79        7.106832
   80        7.106833
   81        7.478470
   82        7.478471
   83        7.661187
   84        7.661194
   85        8.004412
   86        8.004417
 
  0.2500000E+00  0.5000000E+00  0.0000000E+00  0.3125000E-01
    1      -16.687777
    2      -16.687775
    3      -16.592228
    4      -16.592227
    5      -13.898647
    6      -13.898647
    7      -13.874086
    8      -13.874085
    9      -13.801622
   10      -13.801621
   11      -13.783577
   12      -13.783576
   13      -10.272608
   14      -10.272607
   15      -10.221211
   16      -10.221210
   17      -10.193824
   18      -10.193824
   19      -10.161262
   20      -10.161261
   21       -8.319202
   22       -8.319199
   23       -8.244082
   24       -8.244081
   25       -6.646854
   26       -6.646853
   27       -6.515248
   28       -6.515247
   29       -6.275549
   30       -6.275548
   31       -6.273054
   32       -6.273053
   33       -5.798391
   34       -5.798390
   35       -5.740899
   36       -5.740898
   37       -5.517859
   38       -5.517856
   39       -5.449534
   40       -5.449534
   41       -4.515181
   42       -4.515179
   43       -4.448353
   44       -4.448352
   45       -3.624572
   46       -3.624571
   47       -3.582077
   48       -3.582076
   49       -3.543297
   50       -3.543297
   51       -3.505023
   52       -3.505021
   53       -2.063025
   54       -2.063024
   55       -1.802975
   56       -1.802974
   57       -1.792517
   58       -1.792516
   59       -1.586596
   60       -1.586594
   61        3.037024
   62        3.037025
   63        3.216937
   64        3.216938
   65        3.377384
   66        3.377385
   67        3.479930
   68        3.479931
   69        5.058466
   70        5.058473
   71        5.962342
   72        5.962343
   73        6.252052
   74        6.252056
   75        6.420694
   76        6.420696
   77        7.026419
   78        7.026419
   79        7.091223
   80        7.091223
   81        7.383234
   82        7.383235
   83        7.559635
   84        7.559641
   85        8.113598
   86        8.113604
 
  0.5000000E+00  0.5000000E+00  0.0000000E+00  0.1562500E-01
    1      -16.640712
    2      -16.640711
    3      -16.640710
    4      -16.640710
    5      -13.887871
    6      -13.887870
    7      -13.887870
    8      -13.887869
    9      -13.789786
   10      -13.789786
   11      -13.789785
   12      -13.789785
   13      -10.237734
   14      -10.237734
   15      -10.237733
   16      -10.237732
   17      -10.191574
   18      -10.191574
   19      -10.191573
   20      -10.191573
   21       -8.283839
   22       -8.283838
   23       -8.283837
   24       -8.283837
   25       -6.587916
   26       -6.587915
   27       -6.587915
   28       -6.587914
   29       -6.268623
   30       -6.268623
   31       -6.268622
   32       -6.268622
   33       -5.767169
   34       -5.767168
   35       -5.767168
   36       -5.767167
   37       -5.403390
   38       -5.403390
   39       -5.403389
   40       -5.403388
   41       -4.591156
   42       -4.591156
   43       -4.591155
   44       -4.591155
   45       -3.578657
   46       -3.578656
   47       -3.578656
   48       -3.578656
   49       -3.514069
   50       -3.514068
   51       -3.514067
   52       -3.514067
   53       -1.865607
   54       -1.865606
   55       -1.865606
   56       -1.865605
   57       -1.771163
   58       -1.771163
   59       -1.771163
   60       -1.771162
   61        3.160365
   62        3.160365
   63        3.160366
   64        3.160366
   65        3.375240
   66        3.375240
   67        3.375240
   68        3.375241
   69        5.548367
   70        5.548368
   71        5.548374
   72        5.548375
   73        6.321124
   74        6.321125
   75        6.321128
   76        6.321129
   77        7.054357
   78        7.054357
   79        7.054358
   80        7.054359
   81        7.419822
   82        7.419823
   83        7.419825
   84        7.419825
   85        8.190989
   86        8.190991
 
  0.0000000E+00  0.0000000E+00  0.2500000E+00  0.3125000E-01
    1      -16.733889
    2      -16.637076
    3      -16.591428
    4      -16.591392
    5      -14.013217
    6      -13.889719
    7      -13.863594
    8      -13.829277
    9      -13.803397
   10      -13.797748
   11      -13.775659
   12      -13.749760
   13      -10.334632
   14      -10.333043
   15      -10.256622
   16      -10.242213
   17      -10.208738
   18      -10.175820
   19      -10.123219
   20       -9.999405
   21       -8.625082
   22       -8.302977
   23       -8.197678
   24       -7.936786
   25       -6.808686
   26       -6.685153
   27       -6.481224
   28       -6.402363
   29       -6.333413
   30       -6.303474
   31       -6.260636
   32       -6.235173
   33       -5.928832
   34       -5.897740
   35       -5.832116
   36       -5.584939
   37       -5.499636
   38       -5.445844
   39       -5.445507
   40       -5.290993
   41       -4.598400
   42       -4.484927
   43       -4.411878
   44       -4.399138
   45       -3.789442
   46       -3.745869
   47       -3.694947
   48       -3.649949
   49       -3.505979
   50       -3.492486
   51       -3.435651
   52       -3.364189
   53       -2.037628
   54       -2.017338
   55       -1.962187
   56       -1.848548
   57       -1.755879
   58       -1.640291
   59       -1.575261
   60       -1.534262
   61        3.071587
   62        3.074189
   63        3.145327
   64        3.284208
   65        3.293376
   66        3.358419
   67        3.488456
   68        3.643168
   69        4.546083
   70        5.593561
   71        5.757601
   72        6.170122
   73        6.200493
   74        6.478750
   75        6.529342
   76        6.630346
   77        6.723644
   78        6.785607
   79        6.800690
   80        6.904781
   81        7.167029
   82        7.512614
   83        7.645551
   84        7.718426
   85        7.877173
   86        8.057920
 
  0.2500000E+00  0.0000000E+00  0.2500000E+00  0.6250000E-01
    1      -16.713767
    2      -16.630130
    3      -16.613040
    4      -16.597860
    5      -13.988679
    6      -13.881292
    7      -13.864310
    8      -13.831379
    9      -13.830469
   10      -13.793715
   11      -13.784089
   12      -13.753294
   13      -10.310504
   14      -10.287926
   15      -10.258387
   16      -10.239681
   17      -10.202910
   18      -10.175526
   19      -10.152378
   20      -10.046674
   21       -8.578339
   22       -8.280502
   23       -8.248028
   24       -7.988714
   25       -6.786994
   26       -6.699999
   27       -6.441910
   28       -6.383550
   29       -6.322486
   30       -6.301210
   31       -6.253814
   32       -6.239860
   33       -5.897431
   34       -5.845445
   35       -5.807711
   36       -5.580789
   37       -5.544562
   38       -5.507144
   39       -5.470478
   40       -5.331702
   41       -4.679359
   42       -4.515415
   43       -4.413966
   44       -4.306413
   45       -3.764307
   46       -3.689351
   47       -3.670910
   48       -3.636481
   49       -3.512956
   50       -3.500920
   51       -3.451929
   52       -3.385064
   53       -1.986258
   54       -1.964742
   55       -1.933302
   56       -1.864941
   57       -1.745529
   58       -1.675583
   59       -1.612173
   60       -1.609238
   61        3.059941
   62        3.065437
   63        3.184186
   64        3.212687
   65        3.327684
   66        3.357826
   67        3.390536
   68        3.590826
   69        4.695047
   70        5.646736
   71        5.709564
   72        5.861674
   73        6.252426
   74        6.269207
   75        6.491251
   76        6.721750
   77        6.740355
   78        6.826708
   79        6.846812
   80        7.062049
   81        7.096278
   82        7.482019
   83        7.587921
   84        7.598699
   85        7.980590
   86        8.029308
 
  0.5000000E+00  0.0000000E+00  0.2500000E+00  0.3125000E-01
    1      -16.664173
    2      -16.664173
    3      -16.613749
    4      -16.613748
    5      -13.926808
    6      -13.926807
    7      -13.852321
    8      -13.852321
    9      -13.816755
   10      -13.816754
   11      -13.770188
   12      -13.770187
   13      -10.270904
   14      -10.270903
   15      -10.212482
   16      -10.212482
   17      -10.202634
   18      -10.202634
   19      -10.151094
   20      -10.151094
   21       -8.446688
   22       -8.446687
   23       -8.117155
   24       -8.117155
   25       -6.738532
   26       -6.738532
   27       -6.387662
   28       -6.387661
   29       -6.305021
   30       -6.305021
   31       -6.244074
   32       -6.244074
   33       -5.790887
   34       -5.790887
   35       -5.696738
   36       -5.696737
   37       -5.626393
   38       -5.626392
   39       -5.428669
   40       -5.428668
   41       -4.553897
   42       -4.553897
   43       -4.409057
   44       -4.409056
   45       -3.672984
   46       -3.672983
   47       -3.575097
   48       -3.575097
   49       -3.574256
   50       -3.574255
   51       -3.435955
   52       -3.435955
   53       -1.918307
   54       -1.918306
   55       -1.834088
   56       -1.834087
   57       -1.783381
   58       -1.783380
   59       -1.669420
   60       -1.669420
   61        3.090652
   62        3.090652
   63        3.129694
   64        3.129695
   65        3.374252
   66        3.374252
   67        3.417582
   68        3.417582
   69        5.155592
   70        5.155593
   71        5.663984
   72        5.663984
   73        6.382058
   74        6.382060
   75        6.537401
   76        6.537401
   77        6.859281
   78        6.859282
   79        6.873501
   80        6.873502
   81        7.330936
   82        7.330937
   83        7.521713
   84        7.521713
   85        8.208230
   86        8.208231
 
  0.0000000E+00  0.2500000E+00  0.2500000E+00  0.6250000E-01
    1      -16.720422
    2      -16.652013
    3      -16.591375
    4      -16.591354
    5      -13.981017
    6      -13.894919
    7      -13.856264
    8      -13.841402
    9      -13.814670
   10      -13.802264
   11      -13.769248
   12      -13.762855
   13      -10.349529
   14      -10.305325
   15      -10.277293
   16      -10.217919
   17      -10.214653
   18      -10.169495
   19      -10.115956
   20      -10.029719
   21       -8.541811
   22       -8.284501
   23       -8.211879
   24       -8.063716
   25       -6.757206
   26       -6.636644
   27       -6.525379
   28       -6.406398
   29       -6.312989
   30       -6.298212
   31       -6.266895
   32       -6.245883
   33       -5.869088
   34       -5.850722
   35       -5.817791
   36       -5.684419
   37       -5.506713
   38       -5.484207
   39       -5.402715
   40       -5.379661
   41       -4.575752
   42       -4.488963
   43       -4.423288
   44       -4.414001
   45       -3.731043
   46       -3.726430
   47       -3.679059
   48       -3.584257
   49       -3.550820
   50       -3.510296
   51       -3.433237
   52       -3.369510
   53       -2.049658
   54       -2.044897
   55       -1.891077
   56       -1.848924
   57       -1.782870
   58       -1.668788
   59       -1.577380
   60       -1.536881
   61        3.022783
   62        3.031133
   63        3.212822
   64        3.267617
   65        3.295562
   66        3.325949
   67        3.533064
   68        3.629203
   69        4.702222
   70        5.518511
   71        5.868748
   72        6.040518
   73        6.175438
   74        6.305299
   75        6.594245
   76        6.652123
   77        6.725358
   78        6.811851
   79        6.812422
   80        6.991057
   81        7.236212
   82        7.330688
   83        7.677995
   84        7.778256
   85        7.790238
   86        8.027444
 
  0.2500000E+00  0.2500000E+00  0.2500000E+00  0.1250000E+00
    1      -16.702024
    2      -16.642926
    3      -16.610774
    4      -16.600037
    5      -13.967118
    6      -13.896231
    7      -13.872719
    8      -13.846289
    9      -13.822949
   10      -13.794220
   11      -13.772266
   12      -13.753224
   13      -10.325970
   14      -10.299547
   15      -10.280440
   16      -10.231398
   17      -10.195831
   18      -10.162985
   19      -10.126431
   20      -10.063809
   21       -8.499945
   22       -8.266738
   23       -8.242066
   24       -8.084461
   25       -6.744294
   26       -6.659575
   27       -6.509497
   28       -6.429536
   29       -6.301547
   30       -6.290022
   31       -6.260753
   32       -6.249248
   33       -5.885443
   34       -5.869690
   35       -5.833868
   36       -5.620632
   37       -5.539620
   38       -5.478111
   39       -5.419468
   40       -5.326961
   41       -4.666700
   42       -4.524319
   43       -4.395981
   44       -4.319879
   45       -3.753608
   46       -3.694391
   47       -3.657439
   48       -3.609623
   49       -3.533844
   50       -3.505990
   51       -3.445284
   52       -3.388464
   53       -2.005077
   54       -1.987925
   55       -1.868090
   56       -1.858563
   57       -1.775857
   58       -1.687487
   59       -1.632647
   60       -1.595842
   61        3.011137
   62        3.027481
   63        3.157518
   64        3.225709
   65        3.290242
   66        3.366940
   67        3.497416
   68        3.600369
   69        4.838778
   70        5.597898
   71        5.782451
   72        5.962005
   73        6.074833
   74        6.223136
   75        6.347668
   76        6.650782
   77        6.731543
   78        6.863489
   79        6.995452
   80        7.064962
   81        7.137492
   82        7.416406
   83        7.594180
   84        7.686228
   85        7.816571
   86        8.008854
 
  0.5000000E+00  0.2500000E+00  0.2500000E+00  0.6250000E-01
    1      -16.656917
    2      -16.656916
    3      -16.621261
    4      -16.621260
    5      -13.929298
    6      -13.929298
    7      -13.870952
    8      -13.870950
    9      -13.805296
   10      -13.805295
   11      -13.758167
   12      -13.758166
   13      -10.292186
   14      -10.292186
   15      -10.269648
   16      -10.269647
   17      -10.151043
   18      -10.151042
   19      -10.133518
   20      -10.133518
   21       -8.389617
   22       -8.389617
   23       -8.153167
   24       -8.153167
   25       -6.705133
   26       -6.705132
   27       -6.470637
   28       -6.470636
   29       -6.287622
   30       -6.287622
   31       -6.252583
   32       -6.252583
   33       -5.883592
   34       -5.883592
   35       -5.759457
   36       -5.759456
   37       -5.498778
   38       -5.498778
   39       -5.358938
   40       -5.358937
   41       -4.531106
   42       -4.531106
   43       -4.420889
   44       -4.420888
   45       -3.693110
   46       -3.693109
   47       -3.624928
   48       -3.624928
   49       -3.525680
   50       -3.525679
   51       -3.436051
   52       -3.436050
   53       -1.924488
   54       -1.924488
   55       -1.843342
   56       -1.843341
   57       -1.760743
   58       -1.760741
   59       -1.681752
   60       -1.681752
   61        3.033216
   62        3.033217
   63        3.096070
   64        3.096070
   65        3.415539
   66        3.415540
   67        3.473892
   68        3.473893
   69        5.271459
   70        5.271460
   71        5.704230
   72        5.704230
   73        6.161527
   74        6.161527
   75        6.493725
   76        6.493726
   77        6.817016
   78        6.817018
   79        7.027029
   80        7.027029
   81        7.260776
   82        7.260776
   83        7.680528
   84        7.680529
   85        7.928971
   86        7.928972
 
  0.0000000E+00  0.5000000E+00  0.2500000E+00  0.3125000E-01
    1      -16.686956
    2      -16.686954
    3      -16.591326
    4      -16.591324
    5      -13.915292
    6      -13.915292
    7      -13.856862
    8      -13.856862
    9      -13.825221
   10      -13.825221
   11      -13.764118
   12      -13.764118
   13      -10.325718
   14      -10.325717
   15      -10.266694
   16      -10.266694
   17      -10.155018
   18      -10.155018
   19      -10.095640