benzene                                 
           1
    20.000000    0.000000    0.000000
     0.000000   20.000000    0.000000
     0.000000    0.000000   20.000000
   C    H 
   6   6
Direct configuration=     1
   0.20420000  0.30116001  0.16664000
   0.16355000  0.16739000  0.16836000
   0.15498000  0.27889001  0.12229000
   0.21277000  0.18966000  0.21270999
   0.23325001  0.25647000  0.21188000
   0.13450000  0.21208000  0.12312000
   0.21991000  0.35337001  0.16587999
   0.14783999  0.11518000  0.16912000
   0.13258000  0.31347999  0.08669000
   0.23517001  0.15507001  0.24831000
   0.27192000  0.27318999  0.24651000
   0.09583000  0.19536000  0.08849000
Direct configuration=     2
   0.20426620  0.30113529  0.16665665
   0.16348381  0.16741472  0.16834334
   0.15502667  0.27882844  0.12233776
   0.21272334  0.18972157  0.21266223
   0.23313141  0.25639099  0.21179429
   0.13461859  0.21215901  0.12320571
   0.21994069  0.35339437  0.16586966
   0.14780930  0.11515564  0.16913034
   0.13251853  0.31363722  0.08665253
   0.23523147  0.15491278  0.24834747
   0.27188745  0.27331608  0.24649514
   0.09586255  0.19523392  0.08850486
Direct configuration=     3
   0.20422421  0.30115097  0.16664609
   0.16352579  0.16739904  0.16835390
   0.15499707  0.27886749  0.12230747
   0.21275293  0.18968252  0.21269252
   0.23320663  0.25644110  0.21184865
   0.13454337  0.21210890  0.12315135
   0.21992122  0.35337892  0.16587621
   0.14782877  0.11517109  0.16912378
   0.13255752  0.31353750  0.08667630
   0.23519249  0.15501250  0.24832371
   0.27190809  0.27323611  0.24650456
   0.09584190  0.19531389  0.08849544
Direct configuration=     4
   0.20427088  0.30115710  0.16661927
   0.16347912  0.16739292  0.16838072
   0.15503800  0.27895417  0.12229091
   0.21271201  0.18959584  0.21270908
   0.23318230  0.25643013  0.21183926
   0.13456770  0.21211987  0.12316074
   0.21996260  0.35339040  0.16586742
   0.14778739  0.11515962  0.16913258
   0.13251966  0.31367211  0.08669714
   0.23523034  0.15487789  0.24830286
   0.27180959  0.27336968  0.24643904
   0.09594040  0.19518032  0.08856096
Direct configuration=     5
   0.20429033  0.30115965  0.16660810
   0.16345967  0.16739036  0.16839190
   0.15505505  0.27899028  0.12228402
   0.21269495  0.18955973  0.21271598
   0.23317216  0.25642556  0.21183535
   0.13457784  0.21212444  0.12316465
   0.21997984  0.35339518  0.16586375
   0.14777015  0.11515483  0.16913624
   0.13250389  0.31372820  0.08670583
   0.23524612  0.15482180  0.24829417
   0.27176855  0.27342534  0.24641174
   0.09598144  0.19512466  0.08858826
Direct configuration=     6
   0.20431226  0.30117795  0.16658605
   0.16343774  0.16737206  0.16841395
   0.15503281  0.27901234  0.12223193
   0.21271720  0.18953767  0.21276806
   0.23314887  0.25637432  0.21183193
   0.13460113  0.21217568  0.12316807
   0.22001688  0.35339766  0.16586234
   0.14773311  0.11515235  0.16913765
   0.13249723  0.31379851  0.08674781
   0.23525278  0.15475149  0.24825219
   0.27171027  0.27351346  0.24638004
   0.09603972  0.19503654  0.08861997
Direct configuration=     7
   0.20431363  0.30117909  0.16658467
   0.16343638  0.16737092  0.16841532
   0.15503142  0.27901371  0.12222869
   0.21271858  0.18953630  0.21277130
   0.23314742  0.25637113  0.21183172
   0.13460258  0.21217887  0.12316828
   0.22001918  0.35339782  0.16586225
   0.14773081  0.11515219  0.16913774
   0.13249681  0.31380289  0.08675043
   0.23525319  0.15474711  0.24824957
   0.27170664  0.27351894  0.24637806
   0.09604335  0.19503105  0.08862194
Direct configuration=     8
   0.20429265  0.30115554  0.16656559
   0.16345736  0.16739447  0.16843440
   0.15502612  0.27901545  0.12221495
   0.21272389  0.18953456  0.21278504
   0.23314118  0.25636810  0.21182409
   0.13460882  0.21218190  0.12317591
   0.22004709  0.35339847  0.16586669
   0.14770290  0.11515154  0.16913330
   0.13249845  0.31382685  0.08677530
   0.23525156  0.15472314  0.24822470
   0.27168826  0.27355044  0.24637658
   0.09606174  0.19499956  0.08862342
Direct configuration=     9
   0.20428329  0.30114503  0.16655708
   0.16346672  0.16740498  0.16844291
   0.15502375  0.27901623  0.12220882
   0.21272626  0.18953378  0.21279117
   0.23313840  0.25636674  0.21182068
   0.13461160  0.21218325  0.12317932
   0.22005955  0.35339876  0.16586867
   0.14769044  0.11515125  0.16913132
   0.13249918  0.31383755  0.08678640
   0.23525083  0.15471245  0.24821360
   0.27168005  0.27356449  0.24637592
   0.09606994  0.19498550  0.08862409
