  32  32   0   0
  0.3545204E+01  0.4934311E-09  0.4934311E-09  0.5380594E-09  0.5000000E-15
  1.000000000000000E-004
  CAR 
 graphite                                
     28.32671757    -13.14148519  301     19.57152826      1.00000000
    -13.141  0.0000E+00  0.0000E+00
    -13.003  0.0000E+00  0.0000E+00
    -12.865  0.0000E+00  0.0000E+00
    -12.727  0.0000E+00  0.0000E+00
    -12.589  0.0000E+00  0.0000E+00
    -12.450  0.0000E+00  0.0000E+00
    -12.312  0.0000E+00  0.0000E+00
    -12.174  0.0000E+00  0.0000E+00
    -12.036  0.0000E+00  0.0000E+00
    -11.897  0.0000E+00  0.0000E+00
    -11.759  0.0000E+00  0.0000E+00
    -11.621  0.0000E+00  0.0000E+00
    -11.483  0.0000E+00  0.0000E+00
    -11.345  0.0000E+00  0.0000E+00
    -11.206  0.0000E+00  0.0000E+00
    -11.068  0.1318E+00  0.3224E-02
    -10.930  0.4403E+00  0.4241E-01
    -10.792  0.6337E+00  0.1211E+00
    -10.653  0.7427E+00  0.2165E+00
    -10.515  0.8595E+00  0.3273E+00
    -10.377  0.9578E+00  0.4530E+00
    -10.239  0.1070E+01  0.5928E+00
    -10.100  0.1173E+01  0.7488E+00
     -9.962  0.1230E+01  0.9148E+00
     -9.824  0.1341E+01  0.1091E+01
     -9.686  0.1439E+01  0.1284E+01
     -9.548  0.1552E+01  0.1494E+01
     -9.409  0.1428E+01  0.1700E+01
     -9.271  0.1431E+01  0.1892E+01
     -9.133  0.1736E+01  0.2110E+01
     -8.995  0.2183E+01  0.2374E+01
     -8.856  0.2307E+01  0.2695E+01
     -8.718  0.2349E+01  0.3014E+01
     -8.580  0.1636E+01  0.3286E+01
     -8.442  0.1443E+01  0.3490E+01
     -8.304  0.1416E+01  0.3693E+01
     -8.165  0.1585E+01  0.3898E+01
     -8.027  0.2465E+01  0.4151E+01
     -7.889  0.2281E+01  0.4466E+01
     -7.751  0.2418E+01  0.4792E+01
     -7.612  0.2360E+01  0.5123E+01
     -7.474  0.2195E+01  0.5439E+01
     -7.336  0.1956E+01  0.5725E+01
     -7.198  0.2032E+01  0.5999E+01
     -7.059  0.2319E+01  0.6297E+01
     -6.921  0.2412E+01  0.6624E+01
     -6.783  0.2810E+01  0.6991E+01
     -6.645  0.2827E+01  0.7385E+01
     -6.507  0.3009E+01  0.7783E+01
     -6.368  0.3409E+01  0.8225E+01
     -6.230  0.3620E+01  0.8717E+01
     -6.092  0.3441E+01  0.9205E+01
     -5.954  0.3287E+01  0.9670E+01
     -5.815  0.3118E+01  0.1011E+02
     -5.677  0.3058E+01  0.1054E+02
     -5.539  0.2868E+01  0.1095E+02
     -5.401  0.2669E+01  0.1133E+02
     -5.263  0.2451E+01  0.1169E+02
     -5.124  0.2299E+01  0.1201E+02
     -4.986  0.2648E+01  0.1235E+02
     -4.848  0.2908E+01  0.1274E+02
     -4.710  0.3470E+01  0.1318E+02
     -4.571  0.3728E+01  0.1367E+02
     -4.433  0.3416E+01  0.1418E+02
     -4.295  0.3249E+01  0.1464E+02
     -4.157  0.2769E+01  0.1506E+02
     -4.018  0.2278E+01  0.1541E+02
     -3.880  0.2169E+01  0.1571E+02
     -3.742  0.2595E+01  0.1603E+02
     -3.604  0.2388E+01  0.1638E+02
     -3.466  0.2460E+01  0.1671E+02
     -3.327  0.3068E+01  0.1710E+02
     -3.189  0.3083E+01  0.1752E+02
     -3.051  0.3070E+01  0.1795E+02
     -2.913  0.2977E+01  0.1837E+02
     -2.774  0.3055E+01  0.1879E+02
     -2.636  0.3068E+01  0.1921E+02
     -2.498  0.2940E+01  0.1962E+02
     -2.360  0.3729E+01  0.2005E+02
     -2.222  0.3856E+01  0.2058E+02
     -2.083  0.4376E+01  0.2113E+02
     -1.945  0.4639E+01  0.2176E+02
     -1.807  0.4716E+01  0.2241E+02
     -1.669  0.4902E+01  0.2307E+02
     -1.530  0.4889E+01  0.2375E+02
     -1.392  0.4603E+01  0.2441E+02
     -1.254  0.3730E+01  0.2501E+02
     -1.116  0.3250E+01  0.2549E+02
     -0.977  0.3074E+01  0.2592E+02
     -0.839  0.3092E+01  0.2634E+02
     -0.701  0.2810E+01  0.2675E+02
     -0.563  0.3739E+01  0.2721E+02
     -0.425  0.3737E+01  0.2772E+02
     -0.286  0.3358E+01  0.2822E+02
     -0.148  0.3145E+01  0.2865E+02
     -0.010  0.3196E+01  0.2909E+02
      0.128  0.3594E+01  0.2954E+02
      0.267  0.4721E+01  0.3013E+02
      0.405  0.5148E+01  0.3082E+02
      0.543  0.5417E+01  0.3156E+02
      0.681  0.5510E+01  0.3230E+02
      0.819  0.5445E+01  0.3307E+02
      0.958  0.4778E+01  0.3379E+02
      1.096  0.4123E+01  0.3439E+02
      1.234  0.4095E+01  0.3496E+02
      1.372  0.4262E+01  0.3553E+02
      1.511  0.4413E+01  0.3613E+02
      1.649  0.4507E+01  0.3675E+02
      1.787  0.4435E+01  0.3736E+02
      1.925  0.5528E+01  0.3801E+02
      2.064  0.5656E+01  0.3877E+02
      2.202  0.5323E+01  0.3953E+02
      2.340  0.5119E+01  0.4025E+02
      2.478  0.5255E+01  0.4097E+02
      2.616  0.5779E+01  0.4173E+02
      2.755  0.5514E+01  0.4251E+02
      2.893  0.5960E+01  0.4330E+02
      3.031  0.5630E+01  0.4411E+02
      3.169  0.4798E+01  0.4484E+02
      3.308  0.5205E+01  0.4552E+02
      3.446  0.5159E+01  0.4623E+02
      3.584  0.4660E+01  0.4692E+02
      3.722  0.4321E+01  0.4754E+02
      3.860  0.4521E+01  0.4813E+02
      3.999  0.5982E+01  0.4883E+02
      4.137  0.7546E+01  0.4986E+02
      4.275  0.6638E+01  0.5082E+02
      4.413  0.4721E+01  0.5161E+02
      4.552  0.6958E+01  0.5244E+02
      4.690  0.6438E+01  0.5341E+02
      4.828  0.5946E+01  0.5426E+02
      4.966  0.5830E+01  0.5506E+02
      5.105  0.5737E+01  0.5587E+02
      5.243  0.4103E+01  0.5656E+02
      5.381  0.3402E+01  0.5707E+02
      5.519  0.3673E+01  0.5755E+02
      5.657  0.4788E+01  0.5812E+02
      5.796  0.5543E+01  0.5890E+02
      5.934  0.4942E+01  0.5962E+02
      6.072  0.4501E+01  0.6028E+02
      6.210  0.4233E+01  0.6088E+02
      6.349  0.3878E+01  0.6145E+02
      6.487  0.4163E+01  0.6199E+02
      6.625  0.4573E+01  0.6260E+02
      6.763  0.4776E+01  0.6325E+02
      6.901  0.4880E+01  0.6391E+02
      7.040  0.5436E+01  0.6464E+02
      7.178  0.4974E+01  0.6535E+02
      7.316  0.5195E+01  0.6605E+02
      7.454  0.4182E+01  0.6671E+02
      7.593  0.3550E+01  0.6724E+02
      7.731  0.3190E+01  0.6770E+02
      7.869  0.3217E+01  0.6815E+02
      8.007  0.3520E+01  0.6861E+02
      8.146  0.3934E+01  0.6913E+02
      8.284  0.3703E+01  0.6966E+02
      8.422  0.3536E+01  0.7016E+02
      8.560  0.3346E+01  0.7064E+02
      8.698  0.3926E+01  0.7115E+02
      8.837  0.4318E+01  0.7172E+02
      8.975  0.4800E+01  0.7234E+02
      9.113  0.5430E+01  0.7305E+02
      9.251  0.5707E+01  0.7382E+02
      9.390  0.4585E+01  0.7454E+02
      9.528  0.3466E+01  0.7510E+02
      9.666  0.3418E+01  0.7556E+02
      9.804  0.3504E+01  0.7603E+02
      9.942  0.3882E+01  0.7655E+02
     10.081  0.4779E+01  0.7714E+02
     10.219  0.5813E+01  0.7787E+02
     10.357  0.6010E+01  0.7869E+02
     10.495  0.5841E+01  0.7951E+02
     10.634  0.5705E+01  0.8029E+02
     10.772  0.6782E+01  0.8118E+02
     10.910  0.6364E+01  0.8211E+02
     11.048  0.4658E+01  0.8288E+02
     11.187  0.3761E+01  0.8345E+02
     11.325  0.3671E+01  0.8396E+02
     11.463  0.3592E+01  0.8447E+02
     11.601  0.3302E+01  0.8494E+02
     11.739  0.3027E+01  0.8538E+02
     11.878  0.2876E+01  0.8578E+02
     12.016  0.3022E+01  0.8619E+02
     12.154  0.2931E+01  0.8660E+02
     12.292  0.2611E+01  0.8698E+02
     12.431  0.2410E+01  0.8733E+02
     12.569  0.2265E+01  0.8765E+02
     12.707  0.2214E+01  0.8796E+02
     12.845  0.2174E+01  0.8827E+02
     12.983  0.2361E+01  0.8857E+02
     13.122  0.3732E+01  0.8899E+02
     13.260  0.4901E+01  0.8962E+02
     13.398  0.5077E+01  0.9028E+02
     13.536  0.5807E+01  0.9103E+02
     13.675  0.8391E+01  0.9193E+02
     13.813  0.6482E+01  0.9288E+02
     13.951  0.8985E+01  0.9390E+02
     14.089  0.8064E+01  0.9511E+02
     14.228  0.4497E+01  0.9599E+02
     14.366  0.3305E+01  0.9651E+02
     14.504  0.4477E+01  0.9702E+02
     14.642  0.6113E+01  0.9778E+02
     14.780  0.6901E+01  0.9869E+02
     14.919  0.6888E+01  0.9967E+02
     15.057  0.7312E+01  0.1007E+03
     15.195  0.8201E+01  0.1018E+03
     15.333  0.7629E+01  0.1029E+03
     15.472  0.7172E+01  0.1039E+03
     15.610  0.6327E+01  0.1048E+03
     15.748  0.4807E+01  0.1055E+03
     15.886  0.5302E+01  0.1062E+03
     16.024  0.5638E+01  0.1070E+03
     16.163  0.6048E+01  0.1078E+03
     16.301  0.5384E+01  0.1086E+03
     16.439  0.4849E+01  0.1093E+03
     16.577  0.5150E+01  0.1100E+03
     16.716  0.5458E+01  0.1107E+03
     16.854  0.5960E+01  0.1115E+03
     16.992  0.6614E+01  0.1124E+03
     17.130  0.7536E+01  0.1133E+03
     17.269  0.7378E+01  0.1144E+03
     17.407  0.6918E+01  0.1154E+03
     17.545  0.6372E+01  0.1163E+03
     17.683  0.6197E+01  0.1171E+03
     17.821  0.6803E+01  0.1180E+03
     17.960  0.6066E+01  0.1189E+03
     18.098  0.6087E+01  0.1198E+03
     18.236  0.5972E+01  0.1206E+03
     18.374  0.5846E+01  0.1214E+03
     18.513  0.5053E+01  0.1222E+03
     18.651  0.5273E+01  0.1229E+03
     18.789  0.5288E+01  0.1236E+03
     18.927  0.5193E+01  0.1243E+03
     19.065  0.4846E+01  0.1251E+03
     19.204  0.6387E+01  0.1258E+03
     19.342  0.6864E+01  0.1268E+03
     19.480  0.4843E+01  0.1276E+03
     19.618  0.4385E+01  0.1282E+03
     19.757  0.4735E+01  0.1288E+03
     19.895  0.5175E+01  0.1295E+03
     20.033  0.7554E+01  0.1304E+03
     20.171  0.9150E+01  0.1315E+03
     20.310  0.1109E+02  0.1329E+03
     20.448  0.9971E+01  0.1344E+03
     20.586  0.9054E+01  0.1357E+03
     20.724  0.9001E+01  0.1370E+03
     20.862  0.8293E+01  0.1382E+03
     21.001  0.8195E+01  0.1393E+03
     21.139  0.9179E+01  0.1406E+03
     21.277  0.7017E+01  0.1417E+03
     21.415  0.4703E+01  0.1426E+03
     21.554  0.4160E+01  0.1431E+03
     21.692  0.4028E+01  0.1437E+03
     21.830  0.3334E+01  0.1442E+03
     21.968  0.5264E+01  0.1448E+03
     22.106  0.4385E+01  0.1454E+03
     22.245  0.4415E+01  0.1460E+03
     22.383  0.4541E+01  0.1467E+03
     22.521  0.4875E+01  0.1473E+03
     22.659  0.5045E+01  0.1480E+03
     22.798  0.5307E+01  0.1487E+03
     22.936  0.5837E+01  0.1495E+03
     23.074  0.6477E+01  0.1503E+03
     23.212  0.7216E+01  0.1513E+03
     23.351  0.7737E+01  0.1523E+03
     23.489  0.7949E+01  0.1534E+03
     23.627  0.8025E+01  0.1545E+03
     23.765  0.9166E+01  0.1557E+03
     23.903  0.1014E+02  0.1570E+03
     24.042  0.1024E+02  0.1584E+03
     24.180  0.1070E+02  0.1599E+03
     24.318  0.9524E+01  0.1612E+03
     24.456  0.7709E+01  0.1624E+03
     24.595  0.6105E+01  0.1633E+03
     24.733  0.5844E+01  0.1642E+03
     24.871  0.4317E+01  0.1649E+03
     25.009  0.3300E+01  0.1654E+03
     25.147  0.3065E+01  0.1658E+03
     25.286  0.3075E+01  0.1662E+03
     25.424  0.3134E+01  0.1667E+03
     25.562  0.2320E+01  0.1671E+03
     25.700  0.2186E+01  0.1674E+03
     25.839  0.1877E+01  0.1677E+03
     25.977  0.1202E+01  0.1679E+03
     26.115  0.3705E+00  0.1680E+03
     26.253  0.3260E-01  0.1680E+03
     26.392  0.0000E+00  0.1680E+03
     26.530  0.0000E+00  0.1680E+03
     26.668  0.0000E+00  0.1680E+03
     26.806  0.0000E+00  0.1680E+03
     26.944  0.0000E+00  0.1680E+03
     27.083  0.0000E+00  0.1680E+03
     27.221  0.0000E+00  0.1680E+03
     27.359  0.0000E+00  0.1680E+03
     27.497  0.0000E+00  0.1680E+03
     27.636  0.0000E+00  0.1680E+03
     27.774  0.0000E+00  0.1680E+03
     27.912  0.0000E+00  0.1680E+03
     28.050  0.0000E+00  0.1680E+03
     28.188  0.0000E+00  0.1680E+03
     28.327  0.0000E+00  0.1680E+03
