       N       E                     dE             d eps       ncg     rms          rms(c)
DAV:   1     0.598795792355E+03    0.59880E+03   -0.81222E+04 27384   0.177E+03
DAV:   2    -0.870667711726E+02   -0.68586E+03   -0.64526E+03 33828   0.333E+02
DAV:   3    -0.125193579401E+03   -0.38127E+02   -0.36722E+02 34656   0.651E+01
DAV:   4    -0.125950585458E+03   -0.75701E+00   -0.74973E+00 33084   0.860E+00
DAV:   5    -0.125966322721E+03   -0.15737E-01   -0.15750E-01 33168   0.104E+00    0.231E+01
DAV:   6    -0.114149359970E+03    0.11817E+02   -0.14189E+01 30288   0.134E+01    0.114E+01
DAV:   7    -0.111392866249E+03    0.27565E+01   -0.42303E+00 30900   0.778E+00    0.311E+00
DAV:   8    -0.111249993943E+03    0.14287E+00   -0.47516E-01 32316   0.244E+00    0.635E-01
DAV:   9    -0.111245795233E+03    0.41987E-02   -0.54819E-02 33348   0.783E-01    0.389E-01
DAV:  10    -0.111245103976E+03    0.69126E-03   -0.69242E-03 32532   0.298E-01    0.119E-01
DAV:  11    -0.111244954786E+03    0.14919E-03   -0.79709E-04 31920   0.113E-01    0.415E-02
DAV:  12    -0.111245001748E+03   -0.46962E-04   -0.22413E-04 32484   0.527E-02    0.151E-02
DAV:  13    -0.111245023695E+03   -0.21947E-04   -0.39127E-05 33372   0.224E-02    0.973E-03
DAV:  14    -0.111245009719E+03    0.13976E-04   -0.34379E-06 22644   0.762E-03    0.413E-03
DAV:  15    -0.111245003427E+03    0.62924E-05   -0.17554E-06 17976   0.476E-03    0.704E-04
DAV:  16    -0.111245003900E+03   -0.47321E-06   -0.22842E-07 17160   0.196E-03
   1 F= -.11693685E+03 E0= -.11693685E+03  d E =0.000000E+00
