  12  12   0   0
  0.7380563E+01  0.4282512E-09  0.5680704E-09  0.3640575E-09  0.5000000E-15
  1.000000000000000E-004
  CAR 
 ethylene                                
     12.79782140    -16.79570317  301     -1.29609467      1.00000000
    -16.796  0.0000E+00  0.0000E+00
    -16.697  0.0000E+00  0.0000E+00
    -16.598  0.0000E+00  0.0000E+00
    -16.500  0.0000E+00  0.0000E+00
    -16.401  0.0000E+00  0.0000E+00
    -16.302  0.0000E+00  0.0000E+00
    -16.204  0.0000E+00  0.0000E+00
    -16.105  0.0000E+00  0.0000E+00
    -16.007  0.0000E+00  0.0000E+00
    -15.908  0.0000E+00  0.0000E+00
    -15.809  0.0000E+00  0.0000E+00
    -15.711  0.0000E+00  0.0000E+00
    -15.612  0.0000E+00  0.0000E+00
    -15.513  0.0000E+00  0.0000E+00
    -15.415  0.0000E+00  0.0000E+00
    -15.316  0.0000E+00  0.0000E+00
    -15.217  0.0000E+00  0.0000E+00
    -15.119  0.0000E+00  0.0000E+00
    -15.020  0.0000E+00  0.0000E+00
    -14.921  0.0000E+00  0.0000E+00
    -14.823  0.0000E+00  0.0000E+00
    -14.724  0.3369E-02  0.1109E-03
    -14.626  0.5719E-02  0.5616E-03
    -14.527  0.8415E-02  0.1260E-02
    -14.428  0.1136E-01  0.2232E-02
    -14.330  0.1554E-01  0.3545E-02
    -14.231  0.2303E-01  0.5396E-02
    -14.132  0.3463E-01  0.8353E-02
    -14.034  0.5068E-01  0.1240E-01
    -13.935  0.6745E-01  0.1794E-01
    -13.836  0.0000E+00  0.2000E-01
    -13.738  0.0000E+00  0.2000E-01
    -13.639  0.0000E+00  0.2000E-01
    -13.540  0.0000E+00  0.2000E-01
    -13.442  0.0000E+00  0.2000E-01
    -13.343  0.0000E+00  0.2000E-01
    -13.244  0.0000E+00  0.2000E-01
    -13.146  0.0000E+00  0.2000E-01
    -13.047  0.0000E+00  0.2000E-01
    -12.949  0.0000E+00  0.2000E-01
    -12.850  0.0000E+00  0.2000E-01
    -12.751  0.0000E+00  0.2000E-01
    -12.653  0.0000E+00  0.2000E-01
    -12.554  0.0000E+00  0.2000E-01
    -12.455  0.0000E+00  0.2000E-01
    -12.357  0.0000E+00  0.2000E-01
    -12.258  0.0000E+00  0.2000E-01
    -12.159  0.0000E+00  0.2000E-01
    -12.061  0.0000E+00  0.2000E-01
    -11.962  0.0000E+00  0.2000E-01
    -11.863  0.0000E+00  0.2000E-01
    -11.765  0.0000E+00  0.2000E-01
    -11.666  0.0000E+00  0.2000E-01
    -11.568  0.0000E+00  0.2000E-01
    -11.469  0.0000E+00  0.2000E-01
    -11.370  0.0000E+00  0.2000E-01
    -11.272  0.0000E+00  0.2000E-01
    -11.173  0.0000E+00  0.2000E-01
    -11.074  0.0000E+00  0.2000E-01
    -10.976  0.0000E+00  0.2000E-01
    -10.877  0.0000E+00  0.2000E-01
    -10.778  0.0000E+00  0.2000E-01
    -10.680  0.0000E+00  0.2000E-01
    -10.581  0.0000E+00  0.2000E-01
    -10.482  0.0000E+00  0.2000E-01
    -10.384  0.0000E+00  0.2000E-01
    -10.285  0.0000E+00  0.2000E-01
    -10.186  0.0000E+00  0.2000E-01
    -10.088  0.0000E+00  0.2000E-01
     -9.989  0.7062E-02  0.2026E-01
     -9.891  0.1678E-01  0.2144E-01
     -9.792  0.2309E-01  0.2341E-01
     -9.693  0.2300E-01  0.2565E-01
     -9.595  0.2450E-01  0.2798E-01
     -9.496  0.2917E-01  0.3060E-01
     -9.397  0.3661E-01  0.3387E-01
     -9.299  0.3195E-01  0.3778E-01
     -9.200  0.9815E-02  0.3953E-01
     -9.101  0.0000E+00  0.4000E-01
     -9.003  0.0000E+00  0.4000E-01
     -8.904  0.0000E+00  0.4000E-01
     -8.805  0.0000E+00  0.4000E-01
     -8.707  0.0000E+00  0.4000E-01
     -8.608  0.0000E+00  0.4000E-01
     -8.510  0.0000E+00  0.4000E-01
     -8.411  0.0000E+00  0.4000E-01
     -8.312  0.0000E+00  0.4000E-01
     -8.214  0.0000E+00  0.4000E-01
     -8.115  0.0000E+00  0.4000E-01
     -8.016  0.0000E+00  0.4000E-01
     -7.918  0.0000E+00  0.4000E-01
     -7.819  0.0000E+00  0.4000E-01
     -7.720  0.0000E+00  0.4000E-01
     -7.622  0.0000E+00  0.4000E-01
     -7.523  0.0000E+00  0.4000E-01
     -7.424  0.3000E-02  0.4005E-01
     -7.326  0.1221E-01  0.4079E-01
     -7.227  0.2105E-01  0.4233E-01
     -7.128  0.2113E-01  0.4454E-01
     -7.030  0.1876E-01  0.4648E-01
     -6.931  0.1863E-01  0.4833E-01
     -6.833  0.1635E-01  0.5006E-01
     -6.734  0.1672E-01  0.5169E-01
     -6.635  0.1999E-01  0.5346E-01
     -6.537  0.2062E-01  0.5567E-01
     -6.438  0.1411E-01  0.5721E-01
     -6.339  0.1238E-01  0.5849E-01
     -6.241  0.8847E-02  0.5964E-01
     -6.142  0.0000E+00  0.6000E-01
     -6.043  0.0000E+00  0.6000E-01
     -5.945  0.2097E-02  0.6008E-01
     -5.846  0.4003E-02  0.6039E-01
     -5.747  0.6480E-02  0.6089E-01
     -5.649  0.1066E-01  0.6172E-01
     -5.550  0.1909E-01  0.6313E-01
     -5.452  0.4434E-01  0.6606E-01
     -5.353  0.4206E-01  0.7072E-01
     -5.254  0.2318E-01  0.7368E-01
     -5.156  0.1922E-01  0.7579E-01
     -5.057  0.1640E-01  0.7752E-01
     -4.958  0.1752E-01  0.7910E-01
     -4.860  0.5080E-03  0.8000E-01
     -4.761  0.4592E-02  0.8048E-01
     -4.662  0.5224E-02  0.8098E-01
     -4.564  0.5803E-02  0.8152E-01
     -4.465  0.6577E-02  0.8213E-01
     -4.366  0.7487E-02  0.8282E-01
     -4.268  0.8657E-02  0.8361E-01
     -4.169  0.1016E-01  0.8454E-01
     -4.070  0.1273E-01  0.8565E-01
     -3.972  0.1764E-01  0.8713E-01
     -3.873  0.2366E-01  0.8916E-01
     -3.775  0.2215E-01  0.9146E-01
     -3.676  0.1979E-01  0.9355E-01
     -3.577  0.1545E-01  0.9516E-01
     -3.479  0.1359E-01  0.9663E-01
     -3.380  0.9086E-02  0.9772E-01
     -3.281  0.6698E-02  0.9849E-01
     -3.183  0.4972E-02  0.9907E-01
     -3.084  0.3577E-02  0.9949E-01
     -2.985  0.2492E-02  0.9978E-01
     -2.887  0.1022E-02  0.9997E-01
     -2.788  0.1856E-04  0.1000E+00
     -2.689  0.1376E-02  0.1001E+00
     -2.591  0.2225E-02  0.1002E+00
     -2.492  0.3397E-02  0.1005E+00
     -2.394  0.5105E-02  0.1009E+00
     -2.295  0.7071E-02  0.1015E+00
     -2.196  0.1061E-01  0.1024E+00
     -2.098  0.2117E-01  0.1038E+00
     -1.999  0.3500E-01  0.1066E+00
     -1.900  0.3214E-01  0.1102E+00
     -1.802  0.4215E-01  0.1136E+00
     -1.703  0.2068E-01  0.1166E+00
     -1.604  0.1389E-01  0.1182E+00
     -1.506  0.8368E-02  0.1195E+00
     -1.407  0.2769E-02  0.1200E+00
     -1.308  0.0000E+00  0.1200E+00
     -1.210  0.0000E+00  0.1200E+00
     -1.111  0.0000E+00  0.1200E+00
     -1.012  0.0000E+00  0.1200E+00
     -0.914  0.0000E+00  0.1200E+00
     -0.815  0.0000E+00  0.1200E+00
     -0.717  0.0000E+00  0.1200E+00
     -0.618  0.0000E+00  0.1200E+00
     -0.519  0.0000E+00  0.1200E+00
     -0.421  0.0000E+00  0.1200E+00
     -0.322  0.0000E+00  0.1200E+00
     -0.223  0.0000E+00  0.1200E+00
     -0.125  0.0000E+00  0.1200E+00
     -0.026  0.0000E+00  0.1200E+00
      0.073  0.0000E+00  0.1200E+00
      0.171  0.0000E+00  0.1200E+00
      0.270  0.0000E+00  0.1200E+00
      0.369  0.0000E+00  0.1200E+00
      0.467  0.0000E+00  0.1200E+00
      0.566  0.0000E+00  0.1200E+00
      0.664  0.0000E+00  0.1200E+00
      0.763  0.0000E+00  0.1200E+00
      0.862  0.0000E+00  0.1200E+00
      0.960  0.0000E+00  0.1200E+00
      1.059  0.0000E+00  0.1200E+00
      1.158  0.0000E+00  0.1200E+00
      1.256  0.0000E+00  0.1200E+00
      1.355  0.0000E+00  0.1200E+00
      1.454  0.0000E+00  0.1200E+00
      1.552  0.0000E+00  0.1200E+00
      1.651  0.0000E+00  0.1200E+00
      1.750  0.0000E+00  0.1200E+00
      1.848  0.0000E+00  0.1200E+00
      1.947  0.0000E+00  0.1200E+00
      2.046  0.0000E+00  0.1200E+00
      2.144  0.0000E+00  0.1200E+00
      2.243  0.0000E+00  0.1200E+00
      2.341  0.0000E+00  0.1200E+00
      2.440  0.3236E-02  0.1202E+00
      2.539  0.3561E-02  0.1205E+00
      2.637  0.4483E-02  0.1209E+00
      2.736  0.4985E-02  0.1214E+00
      2.835  0.5549E-02  0.1219E+00
      2.933  0.6366E-02  0.1225E+00
      3.032  0.7171E-02  0.1231E+00
      3.131  0.8011E-02  0.1239E+00
      3.229  0.9351E-02  0.1247E+00
      3.328  0.9555E-02  0.1257E+00
      3.427  0.9817E-02  0.1266E+00
      3.525  0.1018E-01  0.1276E+00
      3.624  0.1069E-01  0.1286E+00
      3.722  0.1131E-01  0.1297E+00
      3.821  0.1199E-01  0.1309E+00
      3.920  0.1456E-01  0.1322E+00
      4.018  0.1589E-01  0.1337E+00
      4.117  0.1560E-01  0.1353E+00
      4.216  0.1572E-01  0.1368E+00
      4.314  0.1068E-01  0.1381E+00
      4.413  0.8470E-02  0.1391E+00
      4.512  0.4074E-02  0.1397E+00
      4.610  0.1970E-02  0.1399E+00
      4.709  0.0000E+00  0.1400E+00
      4.808  0.0000E+00  0.1400E+00
      4.906  0.0000E+00  0.1400E+00
      5.005  0.0000E+00  0.1400E+00
      5.104  0.0000E+00  0.1400E+00
      5.202  0.0000E+00  0.1400E+00
      5.301  0.0000E+00  0.1400E+00
      5.399  0.0000E+00  0.1400E+00
      5.498  0.0000E+00  0.1400E+00
      5.597  0.0000E+00  0.1400E+00
      5.695  0.0000E+00  0.1400E+00
      5.794  0.0000E+00  0.1400E+00
      5.893  0.0000E+00  0.1400E+00
      5.991  0.3640E-02  0.1401E+00
      6.090  0.6395E-02  0.1407E+00
      6.189  0.9203E-02  0.1415E+00
      6.287  0.1087E-01  0.1424E+00
      6.386  0.1974E-01  0.1439E+00
      6.485  0.2249E-01  0.1460E+00
      6.583  0.2199E-01  0.1482E+00
      6.682  0.2226E-01  0.1503E+00
      6.780  0.2450E-01  0.1527E+00
      6.879  0.2069E-01  0.1550E+00
      6.978  0.1372E-01  0.1566E+00
      7.076  0.9984E-02  0.1577E+00
      7.175  0.9984E-02  0.1587E+00
      7.274  0.8527E-02  0.1596E+00
      7.372  0.8663E-02  0.1604E+00
      7.471  0.8844E-02  0.1613E+00
      7.570  0.9562E-02  0.1622E+00
      7.668  0.1107E-01  0.1632E+00
      7.767  0.1251E-01  0.1644E+00
      7.866  0.1297E-01  0.1656E+00
      7.964  0.1328E-01  0.1669E+00
      8.063  0.1406E-01  0.1683E+00
      8.162  0.1589E-01  0.1698E+00
      8.260  0.1648E-01  0.1714E+00
      8.359  0.1783E-01  0.1731E+00
      8.457  0.1591E-01  0.1748E+00
      8.556  0.1251E-01  0.1761E+00
      8.655  0.1227E-01  0.1773E+00
      8.753  0.1160E-01  0.1785E+00
      8.852  0.1291E-01  0.1797E+00
      8.951  0.1349E-01  0.1811E+00
      9.049  0.1210E-01  0.1824E+00
      9.148  0.1231E-01  0.1836E+00
      9.247  0.1222E-01  0.1848E+00
      9.345  0.1247E-01  0.1860E+00
      9.444  0.1142E-01  0.1872E+00
      9.543  0.6504E-02  0.1881E+00
      9.641  0.4856E-02  0.1886E+00
      9.740  0.3579E-02  0.1890E+00
      9.838  0.2567E-02  0.1893E+00
      9.937  0.1683E-02  0.1895E+00
     10.036  0.1177E-02  0.1897E+00
     10.134  0.9032E-03  0.1898E+00
     10.233  0.7008E-03  0.1899E+00
     10.332  0.4935E-03  0.1899E+00
     10.430  0.3277E-03  0.1900E+00
     10.529  0.1890E-03  0.1900E+00
     10.628  0.9080E-04  0.1900E+00
     10.726  0.1871E-04  0.1900E+00
     10.825  0.0000E+00  0.1900E+00
     10.924  0.0000E+00  0.1900E+00
     11.022  0.0000E+00  0.1900E+00
     11.121  0.0000E+00  0.1900E+00
     11.220  0.0000E+00  0.1900E+00
     11.318  0.0000E+00  0.1900E+00
     11.417  0.0000E+00  0.1900E+00
     11.515  0.0000E+00  0.1900E+00
     11.614  0.0000E+00  0.1900E+00
     11.713  0.0000E+00  0.1900E+00
     11.811  0.0000E+00  0.1900E+00
     11.910  0.0000E+00  0.1900E+00
     12.009  0.0000E+00  0.1900E+00
     12.107  0.0000E+00  0.1900E+00
     12.206  0.0000E+00  0.1900E+00
     12.305  0.0000E+00  0.1900E+00
     12.403  0.0000E+00  0.1900E+00
     12.502  0.0000E+00  0.1900E+00
     12.601  0.0000E+00  0.1900E+00
     12.699  0.0000E+00  0.1900E+00
     12.798  0.0000E+00  0.1900E+00
