   12   12  200    1
  0.7380563E+01  0.4282512E-09  0.5680704E-09  0.3640575E-09  0.5000000E-15
  1.000000000000000E-004
  CAR 
 ethylene                                
     24    350     19
 
  0.0000000E+00  0.0000000E+00  0.0000000E+00  0.8680556E-03
    1      -14.795703
    2      -13.931579
    3       -9.488190
    4       -9.375171
    5       -6.367320
    6       -6.226084
    7       -6.029346
    8       -5.499288
    9       -3.884773
   10       -2.806933
   11       -1.966691
   12       -1.556809
   13        2.354963
   14        4.308013
   15        6.160598
   16        6.270487
   17        8.834496
   18        9.472310
   19        9.486134
 
  0.8333333E-01  0.0000000E+00  0.0000000E+00  0.1736111E-02
    1      -14.774193
    2      -13.934466
    3       -9.507248
    4       -9.422595
    5       -6.456998
    6       -6.223005
    7       -5.915446
    8       -5.460522
    9       -3.901900
   10       -2.853107
   11       -1.943647
   12       -1.572028
   13        2.444910
   14        4.350603
   15        6.138872
   16        6.294768
   17        8.772256
   18        9.210053
   19        9.420824
 
  0.1666667E+00  0.0000000E+00  0.0000000E+00  0.1736111E-02
    1      -14.711526
    2      -13.945900
    3       -9.563521
    4       -9.544758
    5       -6.579248
    6       -6.218195
    7       -5.719527
    8       -5.367536
    9       -3.938446
   10       -2.975127
   11       -1.889802
   12       -1.609799
   13        2.698687
   14        4.462550
   15        6.095739
   16        6.365079
   17        8.538882
   18        8.625033
   19        9.324363
 
  0.2500000E+00  0.0000000E+00  0.0000000E+00  0.1736111E-02
    1      -14.613468
    2      -13.973322
    3       -9.694893
    4       -9.651276
    5       -6.644185
    6       -6.225438
    7       -5.532595
    8       -5.271972
    9       -3.956433
   10       -3.142217
   11       -1.831385
   12       -1.653793
   13        3.074725
   14        4.592876
   15        6.085643
   16        6.473405
   17        8.034298
   18        8.130774
   19        9.064686
 
  0.3333333E+00  0.0000000E+00  0.0000000E+00  0.1736111E-02
    1      -14.489740
    2      -14.025776
    3       -9.824156
    4       -9.754829
    5       -6.635382
    6       -6.263839
    7       -5.381290
    8       -5.214008
    9       -3.919476
   10       -3.327942
   11       -1.784886
   12       -1.691034
   13        3.517127
   14        4.657764
   15        6.168940
   16        6.608486
   17        7.504467
   18        7.671850
   19        8.946143
 
  0.4166667E+00  0.0000000E+00  0.0000000E+00  0.1736111E-02
    1      -14.353893
    2      -14.109194
    3       -9.898211
    4       -9.848593
    5       -6.563154
    6       -6.344111
    7       -5.276521
    8       -5.198673
    9       -3.821872
   10       -3.512306
   11       -1.754487
   12       -1.716945
   13        3.961207
   14        4.579816
   15        6.371130
   16        6.766575
   17        7.052167
   18        7.271853
   19        8.971274
 
  0.5000000E+00  0.0000000E+00  0.0000000E+00  0.8680556E-03
    1      -14.221934
    2      -14.221934
    3       -9.903868
    4       -9.903867
    5       -6.454344
    6       -6.454343
    7       -5.218262
    8       -5.218261
    9       -3.680874
   10       -3.680874
   11       -1.735116
   12       -1.735116
   13        4.336730
   14        4.336731
   15        6.670038
   16        6.670038
   17        6.977752
   18        6.977753
   19        9.077454
 
  0.0000000E+00  0.8333333E-01  0.0000000E+00  0.1736111E-02
    1      -14.783252
    2      -13.949374
    3       -9.479560
    4       -9.371873
    5       -6.384513
    6       -6.266472
    7       -5.988437
    8       -5.492659
    9       -3.871681
   10       -2.829937
   11       -1.949654
   12       -1.549619
   13        2.379129
   14        4.261707
   15        6.151039
   16        6.285321
   17        8.796594
   18        9.411249
   19        9.486714
 
  0.8333333E-01  0.8333333E-01  0.0000000E+00  0.3472222E-02
    1      -14.761971
    2      -13.951537
    3       -9.503814
    4       -9.416559
    5       -6.474923
    6       -6.233110
    7       -5.900698
    8       -5.455302
    9       -3.887460
   10       -2.871413
   11       -1.934842
   12       -1.563548
   13        2.467911
   14        4.305498
   15        6.119304
   16        6.321307
   17        8.746850
   18        9.146915
   19        9.429151
 
  0.1666667E+00  0.8333333E-01  0.0000000E+00  0.3472222E-02
    1      -14.700046
    2      -13.960845
    3       -9.582806
    4       -9.522702
    5       -6.586057
    6       -6.212975
    7       -5.721877
    8       -5.365926
    9       -3.921058
   10       -2.983907
   11       -1.900095
   12       -1.598188
   13        2.718634
   14        4.421576
   15        6.068841
   16        6.401718
   17        8.558874
   18        8.600556
   19        9.197161
 
  0.2500000E+00  0.8333333E-01  0.0000000E+00  0.3472222E-02
    1      -14.603296
    2      -13.984882
    3       -9.714969
    4       -9.637423
    5       -6.639413
    6       -6.214427
    7       -5.539467
    8       -5.273906
    9       -3.937101
   10       -3.142337
   11       -1.861820
   12       -1.639867
   13        3.090707
   14        4.560419
   15        6.057924
   16        6.510753
   17        8.023982
   18        8.184572
   19        8.970394
 
  0.3333333E+00  0.8333333E-01  0.0000000E+00  0.3472222E-02
    1      -14.481567
    2      -14.033065
    3       -9.840228
    4       -9.753709
    5       -6.621717
    6       -6.248808
    7       -5.388387
    8       -5.217560
    9       -3.901018
   10       -3.321916
   11       -1.827412
   12       -1.680635
   13        3.528916
   14        4.638280
   15        6.140225
   16        6.644255
   17        7.491010
   18        7.735176
   19        8.905877
 
  0.4166667E+00  0.8333333E-01  0.0000000E+00  0.3472222E-02
    1      -14.348530
    2      -14.111857
    3       -9.912486
    4       -9.855448
    5       -6.544361
    6       -6.325702
    7       -5.282640
    8       -5.202765
    9       -3.806060
   10       -3.502204
   11       -1.794297
   12       -1.720031
   13        3.968637
   14        4.573168
   15        6.341130
   16        6.808344
   17        7.027411
   18        7.335020
   19        8.970892
 
  0.5000000E+00  0.8333333E-01  0.0000000E+00  0.1736111E-02
    1      -14.220234
    2      -14.220233
    3       -9.915538
    4       -9.915538
    5       -6.434224
    6       -6.434223
    7       -5.223205
    8       -5.223204
    9       -3.667823
   10       -3.667822
   11       -1.758491
   12       -1.758491
   13        4.338700
   14        4.338701
   15        6.642861
   16        6.642861
   17        7.028374
   18        7.028375
   19        9.101205
 
  0.0000000E+00  0.1666667E+00  0.0000000E+00  0.1736111E-02
    1      -14.746384
    2      -14.000707
    3       -9.455829
    4       -9.362930
    5       -6.428879
    6       -6.343704
    7       -5.908287
    8       -5.479405
    9       -3.831279
   10       -2.895430
   11       -1.901286
   12       -1.532925
   13        2.451171
   14        4.129224
   15        6.131845
   16        6.323504
   17        8.665750
   18        9.362171
   19        9.459466
 
  0.8333333E-01  0.1666667E+00  0.0000000E+00  0.3472222E-02
    1      -14.725820
    2      -14.000851
    3       -9.492639
    4       -9.401996
    5       -6.514635
    6       -6.270391
    7       -5.855677
    8       -5.445823
    9       -3.843657
   10       -2.926189
   11       -1.905038
   12       -1.545140
   13        2.536653
   14        4.176027
   15        6.088172
   16        6.375934
   17        8.628758
   18        9.098403
   19        9.428582
 
  0.1666667E+00  0.1666667E+00  0.0000000E+00  0.3472222E-02
    1      -14.666119
    2      -14.004194
    3       -9.599456
    4       -9.498924
    5       -6.597123
    6       -6.211572
    7       -5.718577
    8       -5.365544
    9       -3.869824
   10       -3.014378
   11       -1.913600
   12       -1.578164
   13        2.778774
   14        4.302581
   15        6.028146
   16        6.473843
   17        8.477983
   18        8.655619
   19        9.097800
 
  0.2500000E+00  0.1666667E+00  0.0000000E+00  0.3472222E-02
    1      -14.573324
    2      -14.018690
    3       -9.743895
    4       -9.625874
    5       -6.620618
    6       -6.191958
    7       -5.553146
    8       -5.281996
    9       -3.881053
   10       -3.147668
   11       -1.918702
   12       -1.626607
   13        3.139590
   14        4.463374
   15        6.017179
   16        6.583842
   17        8.013667
   18        8.300548
   19        8.826261
 
  0.3333333E+00  0.1666667E+00  0.0000000E+00  0.3472222E-02
    1      -14.457607
    2      -14.054629
    3       -9.872903
    4       -9.761716
    5       -6.580268
    6       -6.211964
    7       -5.405902
    8       -5.229180
    9       -3.847404
   10       -3.307586
   11       -1.909348
   12       -1.687613
   13        3.565724
   14        4.576699
   15        6.099540
   16        6.708644
   17        7.493728
   18        7.853757
   19        8.840562
 
  0.4166667E+00  0.1666667E+00  0.0000000E+00  0.3472222E-02
    1      -14.332981
    2      -14.120013
    3       -9.946477
    4       -9.878475
    5       -6.490716
    6       -6.277193
    7       -5.299226
    8       -5.215368
    9       -3.759841
   10       -3.474213
   11       -1.877830
   12       -1.756739
   13        3.992071
   14        4.550195
   15        6.300794
   16        6.855569
   17        7.037982
   18        7.443210
   19        8.986466
 
  0.5000000E+00  0.1666667E+00  0.0000000E+00  0.1736111E-02
    1      -14.215572
    2      -14.215571
    3       -9.946965
    4       -9.946965
    5       -6.378925
    6       -6.378924
    7       -5.237528
    8       -5.237527
    9       -3.630054
   10       -3.630054
   11       -1.824200
   12       -1.824200
   13        4.344065
   14        4.344066
   15        6.608131
   16        6.608131
   17        7.121311
   18        7.121311
   19        9.172955
 
  0.0000000E+00  0.2500000E+00  0.0000000E+00  0.1736111E-02
    1      -14.686643
    2      -14.079944
    3       -9.422856
    4       -9.351097
    5       -6.484064
    6       -6.423305
    7       -5.820129
    8       -5.473455
    9       -3.761648
   10       -2.995013
   11       -1.829355
   12       -1.518499
   13        2.569601
   14        3.928481
   15        6.123820
   16        6.365461
   17        8.491932
   18        9.338711
   19        9.416484
 
  0.8333333E-01  0.2500000E+00  0.0000000E+00  0.3472222E-02
    1      -14.667291
    2      -14.077163
    3       -9.473153
    4       -9.386682
    5       -6.552816
    6       -6.333491
    7       -5.787491
    8       -5.444706
    9       -3.770106
   10       -3.014970
   11       -1.851016
   12       -1.531810
   13        2.650188
   14        3.979042
   15        6.078656
   16        6.423943
   17        8.459701
   18        9.138711
   19        9.371730
 
  0.1666667E+00  0.2500000E+00  0.0000000E+00  0.3472222E-02
    1      -14.611338
    2      -14.071792
    3       -9.602470
    4       -9.487281
    5       -6.595839
    6       -6.237587
    7       -5.691847
    8       -5.375215
    9       -3.787767
   10       -3.074550
   11       -1.903857
   12       -1.572510
   13        2.879564
   14        4.118792
   15        6.020688
   16        6.528555
   17        8.341520
   18        8.788307
   19        9.025486
 
  0.2500000E+00  0.2500000E+00  0.0000000E+00  0.3472222E-02
    1      -14.525177
    2      -14.072129
    3       -9.762787
    4       -9.631506
    5       -6.580415
    6       -6.182139
    7       -5.556786
    8       -5.300654
    9       -3.793690
   10       -3.171080
   11       -1.959499
   12       -1.640666
   13        3.223530
   14        4.307860
   15        6.017394
   16        6.634253
   17        7.992718
   18        8.429132
   19        8.747975
 
  0.3333333E+00  0.2500000E+00  0.0000000E+00  0.3472222E-02
    1      -14.419515
    2      -14.089524
    3       -9.903319
    4       -9.786446
    5       -6.512473
    6       -6.173910
    7       -5.423374
    8       -5.250787
    9       -3.763840
   10       -3.296424
   11       -1.989375
   12       -1.731153
   13        3.630658
   14        4.470243
   15        6.104181
   16        6.746042
   17        7.517171
   18        7.942002
   19        8.846366
 
  0.4166667E+00  0.2500000E+00  0.0000000E+00  0.3472222E-02
    1      -14.308815
    2      -14.134055
    3       -9.985198
    4       -9.916053
    5       -6.410846
    6       -6.216099
    7       -5.320964
    8       -5.236865
    9       -3.687547
   10       -3.436184
   11       -1.976410
   12       -1.830694
   13        4.033707
   14        4.505398
   15        6.304268
   16        6.859650
   17        7.095806
   18        7.512779
   19        9.058577
 
  0.5000000E+00  0.2500000E+00  0.0000000E+00  0.1736111E-02
    1      -14.209160
    2      -14.209160
    3       -9.988878
    4       -9.988878
    5       -6.302318
    6       -6.302317
    7       -5.259426
    8       -5.259426
    9       -3.572680
   10       -3.572679
   11       -1.919281
   12       -1.919281
   13        4.351328
   14        4.351328
   15        6.609938
   16        6.609938
   17        7.181693
   18        7.181693
   19        9.296503
 
  0.0000000E+00  0.3333333E+00  0.0000000E+00  0.1736111E-02
    1      -14.606658
    2      -14.179133
    3       -9.388370
    4       -9.340543
    5       -6.533183
    6       -6.492368
    7       -5.732480
    8       -5.486138
    9       -3.663098
   10       -3.119007
   11       -1.745237
   12       -1.518739
   13        2.731774
   14        3.684570
   15        6.144811
   16        6.381291
   17        8.383823
   18        9.105732
   19        9.542904
 
  0.8333333E-01  0.3333333E+00  0.0000000E+00  0.3472222E-02
    1      -14.589022
    2      -14.172990
    3       -9.447364
    4       -9.378129
    5       -6.573355
    6       -6.408007
    7       -5.708751
    8       -5.461727
    9       -3.668596
   10       -3.131130
   11       -1.777746
   12       -1.536907
   13        2.806639
   14        3.739099
   15        6.108436
   16        6.430958
   17        8.364999
   18        9.080303
   19        9.362004
 
  0.1666667E+00  0.3333333E+00  0.0000000E+00  0.3472222E-02
    1      -14.538377
    2      -14.157502
    3       -9.590894
    4       -9.491513
    5       -6.571564
    6       -6.295735
    7       -5.639000
    8       -5.401213
    9       -3.680009
   10       -3.167129
   11       -1.860723
   12       -1.593472
   13        3.020922
   14        3.892689
   15        6.066343
   16        6.520800
   17        8.278193
   18        8.883706
   19        8.995144
 
  0.2500000E+00  0.3333333E+00  0.0000000E+00  0.3472222E-02
    1      -14.461579
    2      -14.141096
    3       -9.765492
    4       -9.654134
    5       -6.516917
    6       -6.205577
    7       -5.535841
    8       -5.332917
    9       -3.682890
   10       -3.226031
   11       -1.960424
   12       -1.687279
   13        3.344176
   14        4.111230
   15        6.079185
   16        6.614436
   17        7.988537
   18        8.436074
   19        8.869766
 
  0.3333333E+00  0.3333333E+00  0.0000000E+00  0.3472222E-02
    1      -14.369978
    2      -14.135963
    3       -9.920522
    4       -9.823835
    5       -6.425259
    6       -6.158795
    7       -5.426972
    8       -5.283321
    9       -3.658927
   10       -3.306221
   11       -2.038379
   12       -1.806378
   13        3.725958
   14        4.326706
   15        6.174005
   16        6.720761
   17        7.552955
   18        7.938463
   19        9.004216
 
  0.4166667E+00  0.3333333E+00  0.0000000E+00  0.3472222E-02
    1      -14.278463
    2      -14.154265
    3      -10.016077
    4       -9.959742
    5       -6.318867
    6       -6.165188
    7       -5.339008
    8       -5.266215
    9       -3.598045
   10       -3.403453
   11       -2.063053
   12       -1.927824
   13        4.094340
   14        4.437604
   15        6.368235
   16        6.841101
   17        7.141084
   18        7.502336
   19        9.227365
 
  0.5000000E+00  0.3333333E+00  0.0000000E+00  0.1736111E-02
    1      -14.202699
    2      -14.202699
    3      -10.029714
    4      -10.029714
    5       -6.223758
    6       -6.223757
    7       -5.284680
    8       -5.284680
    9       -3.506819
   10       -3.506818
   11       -2.022327
   12       -2.022327
   13        4.358465
   14        4.358466
   15        6.658833
   16        6.658833
   17        7.170395
   18        7.170395
   19        9.471778
 
  0.0000000E+00  0.4166667E+00  0.0000000E+00  0.1736111E-02
    1      -14.510206
    2      -14.289459
    3       -9.359701
    4       -9.336059
    5       -6.563303
    6       -6.542358
    7       -5.650103
    8       -5.521618
    9       -3.540260
   10       -3.257818
   11       -1.661788
   12       -1.542141
   13        2.933454
   14        3.423588
   15        6.200006
   16        6.348887
   17        8.407511
   18        8.822003
   19        9.710365
 
  0.8333333E-01  0.4166667E+00  0.0000000E+00  0.3472222E-02
    1      -14.494800
    2      -14.279918
    3       -9.419691
    4       -9.380951
    5       -6.568028
    6       -6.479184
    7       -5.629619
    8       -5.500158
    9       -3.544519
   10       -3.265167
   11       -1.697151
   12       -1.567431
   13        3.002496
   14        3.482377
   15        6.180308
   16        6.377087
   17        8.408481
   18        8.837052
   19        9.492433
 
  0.1666667E+00  0.4166667E+00  0.0000000E+00  0.3472222E-02
    1      -14.451039
    2      -14.254129
    3       -9.567539
    4       -9.510293
    5       -6.522251
    6       -6.372835
    7       -5.571992
    8       -5.445087
    9       -3.553870
   10       -3.285716
   11       -1.791663
   12       -1.642662
   13        3.200900
   14        3.650222
   15        6.164795
   16        6.433649
   17        8.342689
   18        8.717540
   19        9.189907
 
  0.2500000E+00  0.4166667E+00  0.0000000E+00  0.3472222E-02
    1      -14.386300
    2      -14.220359
    3       -9.751070
    4       -9.687560
    5       -6.435447
    6       -6.264677
    7       -5.490803
    8       -5.378721
    9       -3.558281
   10       -3.315831
   11       -1.917182
   12       -1.759746
   13        3.500778
   14        3.897440
   15        6.198219
   16        6.509203
   17        8.052368
   18        8.323930
   19        9.147130
 
  0.3333333E+00  0.4166667E+00  0.0000000E+00  0.3472222E-02
    1      -14.312559
    2      -14.191171
    3       -9.919218
    4       -9.864718
    5       -6.330747
    6       -6.182548
    7       -5.407911
    8       -5.325001
    9       -3.544615
   10       -3.352516
   11       -2.036304
   12       -1.897896
   13        3.850779
   14        4.163652
   15        6.301258
   16        6.617148
   17        7.623237
   18        7.852448
   19        9.295521
 
  0.4166667E+00  0.4166667E+00  0.0000000E+00  0.3472222E-02
    1      -14.244907
    2      -14.180379
    3      -10.030448
    4       -9.998913
    5       -6.232325
    6       -6.145908
    7       -5.343095
    8       -5.299360
    9       -3.506230
   10       -3.397145
   11       -2.108452
   12       -2.025151
   13        4.171807
   14        4.352699
   15        6.485494
   16        6.765320
   17        7.203361
   18        7.419735
   19        9.481291
 
  0.5000000E+00  0.4166667E+00  0.0000000E+00  0.1736111E-02
    1      -14.197932
    2      -14.197932
    3      -10.058967
    4      -10.058967
    5       -6.164339
    6       -6.164338
    7       -5.305895
    8       -5.305894
    9       -3.451407
   10       -3.451407
   11       -2.104603
   12       -2.104603
   13        4.363617
   14        4.363617
   15        6.743104
   16        6.743104
   17        7.096431
   18        7.096432
   19        9.660793
 
  0.0000000E+00  0.5000000E+00  0.0000000E+00  0.8680556E-03
    1      -14.402354
    2      -14.402353
    3       -9.341790
    4       -9.341789
    5       -6.566995
    6       -6.566995
    7       -5.577947
    8       -5.577946
    9       -3.401696
   10       -3.401696
   11       -1.591096
   12       -1.591096
   13        3.167735
   14        3.167736
   15        6.277573
   16        6.277573
   17        8.567464
   18        8.567464
   19        9.896298
 
  0.8333333E-01  0.5000000E+00  0.0000000E+00  0.1736111E-02
    1      -14.389670
    2      -14.389670
    3       -9.395805
    4       -9.395805
    5       -6.535302
    6       -6.535302
    7       -5.557871
    8       -5.557871
    9       -3.406565
   10       -3.406565
   11       -1.623125
   12       -1.623124
   13        3.231340
   14        3.231341
   15        6.280360
   16        6.280360
   17        8.583670
   18        8.583670
   19        9.639549
 
  0.1666667E+00  0.5000000E+00  0.0000000E+00  0.1736111E-02
    1      -14.354280
    2      -14.354280
    3       -9.538162
    4       -9.538162
    5       -6.452778
    6       -6.452777
    7       -5.504105
    8       -5.504104
    9       -3.418729
   10       -3.418729
   11       -1.713201
   12       -1.713201
   13        3.414121
   14        3.414121
   15        6.298859
   16        6.298859
   17        8.511027
   18        8.511027
   19        9.397123
 
  0.2500000E+00  0.5000000E+00  0.0000000E+00  0.1736111E-02
    1      -14.304063
    2      -14.304063
    3       -9.722831
    4       -9.722831
    5       -6.346674
    6       -6.346673
    7       -5.434138
    8       -5.434138
    9       -3.431372
   10       -3.431371
   11       -1.843180
   12       -1.843179
   13        3.688559
   14        3.688560
   15        6.353757
   16        6.353757
   17        8.178937
   18        8.178938
   19        9.456037
 
  0.3333333E+00  0.5000000E+00  0.0000000E+00  0.1736111E-02
    1      -14.251466
    2      -14.251466
    3       -9.899170
    4       -9.899170
    5       -6.244326
    6       -6.244326
    7       -5.370017
    8       -5.370017
    9       -3.436506
   10       -3.436506
   11       -1.983110
   12       -1.983110
   13        3.999991
   14        3.999991
   15        6.461670
   16        6.461671
   17        7.732725
   18        7.732725
   19        9.623923
 
  0.4166667E+00  0.5000000E+00  0.0000000E+00  0.1736111E-02
    1      -14.211277
    2      -14.211277
    3      -10.024372
    4      -10.024372
    5       -6.169651
    6       -6.169651
    7       -5.328262
    8       -5.328261
    9       -3.432761
   10       -3.432761
   11       -2.093842
   12       -2.093842
   13        4.260696
   14        4.260696
   15        6.631458
   16        6.631458
   17        7.305550
   18        7.305550
   19        9.728440
 
  0.5000000E+00  0.5000000E+00  0.0000000E+00  0.8680556E-03
    1      -14.196180
    2      -14.196180
    3      -10.069550
    4      -10.069549
    5       -6.142052
    6       -6.142052
    7       -5.314389
    8       -5.314389
    9       -3.429181
   10       -3.429181
   11       -2.136604
   12       -2.136603
   13        4.365474
   14        4.365474
   15        6.801700
   16        6.801700
   17        7.037924
   18        7.037924
   19        9.753378
 
  0.0000000E+00  0.0000000E+00  0.1250000E+00  0.1736111E-02
    1      -14.727946
    2      -13.916007
    3       -9.438822
    4       -9.340321
    5       -6.628091
    6       -6.444905
    7       -5.835900
    8       -5.464546
    9       -3.909293
   10       -2.938993
   11       -2.014447
   12       -1.551885
   13        2.349843
   14        4.228708
   15        6.207366
   16        6.490856
   17        8.653557
   18        8.928493
   19        9.382899
 
  0.8333333E-01  0.0000000E+00  0.1250000E+00  0.1736111E-02
    1      -14.705305
    2      -13.918512
    3       -9.479238
    4       -9.376353
    5       -6.754995
    6       -6.463953
    7       -5.621923
    8       -5.443498
    9       -3.775542
   10       -2.985938
   11       -2.028612
   12       -1.723777
   13        2.421997
   14        4.274816
   15        6.052538
   16        6.426592
   17        8.620678
   18        8.808452
   19        9.651411
 
  0.1666667E+00  0.0000000E+00  0.1250000E+00  0.1736111E-02
    1      -14.643035
    2      -13.928422
    3       -9.557158
    4       -9.483777
    5       -6.834359
    6       -6.465594
    7       -5.412819
    8       -5.378019
    9       -3.688357
   10       -3.127389
   11       -1.998113
   12       -1.895639
   13        2.633293
   14        4.391812
   15        5.941352
   16        6.441388
   17        8.506547
   18        8.523398
   19        9.538822
 
  0.2500000E+00  0.0000000E+00  0.1250000E+00  0.1736111E-02
    1      -14.547041
    2      -13.953148
    3       -9.662716
    4       -9.618480
    5       -6.846985
    6       -6.455481
    7       -5.320451
    8       -5.236347
    9       -3.644217
   10       -3.339752
   11       -2.020505
   12       -1.934130
   13        2.949129
   14        4.542904
   15        5.903982
   16        6.529871
   17        8.282841
   18        8.331808
   19        9.011492
 
  0.3333333E+00  0.0000000E+00  0.1250000E+00  0.1736111E-02
    1      -14.427255
    2      -14.001581
    3       -9.776431
    4       -9.734250
    5       -6.791472
    6       -6.445172
    7       -5.314453
    8       -5.108845
    9       -3.618735
   10       -3.588301
   11       -2.077869
   12       -1.853296
   13        3.332671
   14        4.656586
   15        5.964410
   16        6.671319
   17        8.068372
   18        8.108973
   19        8.623711
 
  0.4166667E+00  0.0000000E+00  0.1250000E+00  0.1736111E-02
    1      -14.297336
    2      -14.079557
    3       -9.871566
    4       -9.798355
    5       -6.682137
    6       -6.448124
    7       -5.370173
    8       -5.038617
    9       -3.839644
   10       -3.585101
   11       -2.074633
   12       -1.764858
   13        3.740391
   14        4.637056
   15        6.143032
   16        6.839571
   17        7.769248
   18        7.868968
   19        8.497487
 
  0.5000000E+00  0.0000000E+00  0.1250000E+00  0.1736111E-02
    1      -14.185707
    2      -14.173090
    3       -9.920951
    4       -9.798323
    5       -6.546244
    6       -6.470330
    7       -5.470780
    8       -5.024147
    9       -4.065106
   10       -3.528998
   11       -2.031965
   12       -1.671579
   13        4.114852
   14        4.426786
   15        6.428515
   16        7.036158
   17        7.422578
   18        7.661912
   19        8.548533
 
 -0.4166667E+00  0.0000000E+00  0.1250000E+00  0.1736111E-02
    1      -14.310562
    2      -14.069115
    3       -9.905123
    4       -9.741839
    5       -6.501050
    6       -6.421273
    7       -5.599198
    8       -5.050750
    9       -4.241597
   10       -3.444753
   11       -1.975641
   12       -1.575382
   13        4.048665
   14        4.385405
   15        6.771835
   16        7.097898
   17        7.310501
   18        7.509463
   19        8.646077
 
 -0.3333333E+00  0.0000000E+00  0.1250000E+00  0.1736111E-02
    1      -14.439513
    2      -13.994262
    3       -9.819823
    4       -9.651427
    5       -6.515510
    6       -6.345072
    7       -5.747553
    8       -5.103721
    9       -4.343111
   10       -3.333137
   11       -1.929974
   12       -1.483489
   13        3.578608
   14        4.498406
   15        6.834485
   16        7.058862
   17        7.448760
   18        7.705267
   19        8.743720
 
 -0.2500000E+00  0.0000000E+00  0.1250000E+00  0.1736111E-02
    1      -14.557098
    2      -13.948929
    3       -9.680796
    4       -9.555717
    5       -6.493238
    6       -6.332506
    7       -5.904328
    8       -5.190508
    9       -4.338135
   10       -3.204496
   11       -1.912282
   12       -1.412144
   13        3.104838
   14        4.465100
   15        6.646970
   16        7.007909
   17        7.713588
   18        8.164703
   19        8.891348
 
 -0.1666667E+00  0.0000000E+00  0.1250000E+00  0.1736111E-02
    1      -14.650097
    2      -13.926491
    3       -9.523367
    4       -9.479890
    5       -6.453933
    6       -6.364222
    7       -6.026025
    8       -5.307824
    9       -4.231552
   10       -3.078200
   11       -1.928538
   12       -1.386160
   13        2.706267
   14        4.359252
   15        6.507399
   16        6.813014
   17        8.134830
   18        8.474028
   19        9.233087
 
 -0.8333333E-01  0.0000000E+00  0.1250000E+00  0.1736111E-02
    1      -14.708930
    2      -13.917869
    3       -9.439112
    4       -9.395239
    5       -6.497967
    6       -6.408822
    7       -6.003015
    8       -5.414169
    9       -4.072336
   10       -2.979578
   11       -1.970508
   12       -1.430508
   13        2.443780
   14        4.262979
   15        6.367077
   16        6.626398
   17        8.589787
   18        8.602733
   19        9.325097
 
  0.0000000E+00  0.8333333E-01  0.1250000E+00  0.3472222E-02
    1      -14.716043
    2      -13.932363
    3       -9.433119
    4       -9.337252
    5       -6.638661
    6       -6.450653
    7       -5.833416
    8       -5.459251
    9       -3.897013
   10       -2.956072
   11       -2.000434
   12       -1.547236
   13        2.372929
   14        4.186728
   15        6.201539
   16        6.511276
   17        8.531090
   18        9.031392