ethylene                                
           1
     4.282512    0.000000    0.000000
     0.000000    5.680704    0.000000
     0.000000    0.000000    3.640575
   C    H 
   4   8
Direct configuration=     1
   0.88344002  0.05382000  0.95924997
   0.11656000  0.94617999  0.04075000
   0.61655998  0.55382001  0.54075003
   0.38344002  0.44617999  0.45925000
   0.81309998  0.16980000  0.11850000
   0.18690000  0.83020002  0.88150001
   0.68690002  0.66979998  0.38150001
   0.31309998  0.33020002  0.61849999
   0.75699997  0.02870000  0.73109996
   0.24300000  0.97130001  0.26890001
   0.74300003  0.52869999  0.76890004
   0.25700000  0.47130001  0.23109999
Direct configuration=     2
   0.84203968  0.05643889  0.90877754
   0.15796033  0.94356110  0.09122243
   0.65796032  0.55643890  0.59122246
   0.34203968  0.44356110  0.40877757
   0.77649429  0.22404180  0.18786297
   0.22350569  0.77595821  0.81213703
   0.72350571  0.72404179  0.31213703
   0.27649429  0.27595821  0.68786297
   0.73542174  0.02298368  0.68911387
   0.26457823  0.97701633  0.31088610
   0.76457826  0.52298367  0.81088613
   0.23542177  0.47701633  0.18911390
Direct configuration=     3
   0.87099926  0.05460697  0.94408306
   0.12900076  0.94539301  0.05591692
   0.62900074  0.55460699  0.55591694
   0.37099926  0.44539301  0.44408309
   0.80210001  0.18609961  0.13934350
   0.19789998  0.81390041  0.86065650
   0.69789999  0.68609959  0.36065650
   0.30210001  0.31390041  0.63934350
   0.75051573  0.02698225  0.71848318
   0.24948424  0.97301776  0.28151679
   0.74948427  0.52698224  0.78151682
   0.25051576  0.47301776  0.21848321
Direct configuration=     4
   0.87933545  0.06584439  0.98043444
   0.12066456  0.93415559  0.01956554
   0.62066455  0.56584441  0.51956556
   0.37933545  0.43415559  0.48043447
   0.77592405  0.21701141  0.17173630
   0.22407593  0.78298860  0.82826371
   0.72407595  0.71701140  0.32826371
   0.27592405  0.28298860  0.67173629
   0.71792130  0.01775996  0.65361195
   0.28207867  0.98224005  0.34638802
   0.78207870  0.51775995  0.84638805
   0.21792133  0.48224005  0.15361198
Direct configuration=     5
   0.87334322  0.05776669  0.95430427
   0.12665680  0.94223330  0.04569570
   0.62665678  0.55776670  0.54569573
   0.37334322  0.44223330  0.45430430
   0.79473990  0.19479133  0.14845165
   0.20526008  0.80520868  0.85154836
   0.70526010  0.69479132  0.35154836
   0.29473990  0.30520868  0.64845164
   0.74135089  0.02438914  0.70024281
   0.25864908  0.97561086  0.29975716
   0.75864911  0.52438914  0.79975719
   0.24135092  0.47561086  0.20024284
Direct configuration=     6
   0.87323688  0.05762335  0.95384060
   0.12676313  0.94237663  0.04615938
   0.62676312  0.55762337  0.54615940
   0.37323688  0.44237663  0.45384063
   0.79507379  0.19439704  0.14803847
   0.20492620  0.80560297  0.85196154
   0.70492621  0.69439703  0.35196154
   0.29507379  0.30560297  0.64803846
   0.74176665  0.02450678  0.70107027
   0.25823332  0.97549323  0.29892970
   0.75823335  0.52450677  0.79892973
   0.24176668  0.47549323  0.20107030
Direct configuration=     7
   0.86593970  0.06533553  0.96094751
   0.13406031  0.93466445  0.03905247
   0.63406030  0.56533555  0.53905249
   0.36593970  0.43466445  0.46094754
   0.79159610  0.19448853  0.14359226
   0.20840388  0.80551148  0.85640775
   0.70840390  0.69448852  0.35640775
   0.29159610  0.30551148  0.64359225
   0.74182721  0.02477268  0.70187032
   0.25817276  0.97522732  0.29812965
   0.75817279  0.52477268  0.79812968
   0.24182724  0.47522732  0.20187035
Direct configuration=     8
   0.87111990  0.05986073  0.95590238
   0.12888011  0.94013926  0.04409760
   0.62888010  0.55986074  0.54409762
   0.37111990  0.44013926  0.45590241
   0.79406488  0.19442358  0.14674858
   0.20593511  0.80557643  0.85325143
   0.70593512  0.69442357  0.35325143
   0.29406488  0.30557643  0.64674857
   0.74178422  0.02458392  0.70130237
   0.25821575  0.97541609  0.29869760
   0.75821578  0.52458391  0.79869763
   0.24178425  0.47541609  0.20130240
Direct configuration=     9
   0.87246128  0.06054970  0.95936100
   0.12753874  0.93945028  0.04063897
   0.62753872  0.56054972  0.54063900
   0.37246128  0.43945028  0.45936103
   0.79043354  0.19556089  0.14438321
   0.20956644  0.80443912  0.85561680
   0.70956646  0.69556088  0.35561680
   0.29043354  0.30443912  0.64438320
   0.74267105  0.02554504  0.70476160
   0.25732892  0.97445497  0.29523837
   0.75732895  0.52554503  0.79523840
   0.24267108  0.47445497  0.20476163
Direct configuration=    10
   0.87300967  0.06083138  0.96077499
   0.12699034  0.93916861  0.03922498
   0.62699033  0.56083139  0.53922501
   0.37300967  0.43916861  0.46077502
   0.78894894  0.19602586  0.14341617
   0.21105105  0.80397416  0.85658384
   0.71105106  0.69602584  0.35658384
   0.28894894  0.30397416  0.64341616
   0.74303361  0.02593798  0.70617584
   0.25696636  0.97406203  0.29382413
   0.75696639  0.52593797  0.79382416
   0.24303364  0.47406203  0.20617587
Direct configuration=    11
   0.87244145  0.06104176  0.96055051
   0.12755856  0.93895823  0.03944946
   0.62755855  0.56104177  0.53944949
   0.37244145  0.43895823  0.46055054
   0.78640863  0.19718352  0.14257466
   0.21359135  0.80281649  0.85742535
   0.71359137  0.69718351  0.35742535
   0.28640863  0.30281649  0.64257465
   0.74370153  0.02678446  0.70906998
   0.25629844  0.97321554  0.29092999
   0.75629847  0.52678446  0.79093002
   0.24370156  0.47321554  0.20907001
Direct configuration=    12
   0.87227188  0.06110454  0.96048352
   0.12772814  0.93889544  0.03951645
   0.62772812  0.56110456  0.53951648
   0.37227188  0.43889544  0.46048355
   0.78565053  0.19752900  0.14232353
   0.21434945  0.80247101  0.85767648
   0.71434947  0.69752899  0.35767648
   0.28565053  0.30247101  0.64232352
   0.74390086  0.02703708  0.70993368
   0.25609911  0.97296293  0.29006629
   0.75609914  0.52703707  0.79006632
   0.24390089  0.47296293  0.20993371
Direct configuration=    13
   0.87233519  0.06103367  0.96043604
   0.12766483  0.93896631  0.03956394
   0.62766481  0.56103369  0.53956396
   0.37233519  0.43896631  0.46043607
   0.78509771  0.19783708  0.14230108
   0.21490228  0.80216293  0.85769892
   0.71490229  0.69783707  0.35769892
   0.28509771  0.30216293  0.64230108
   0.74344355  0.02722399  0.70977306
   0.25655642  0.97277601  0.29022691
   0.75655645  0.52722399  0.79022694
   0.24344358  0.47277601  0.20977309
Direct configuration=    14
   0.87246202  0.06089171  0.96034091
   0.12753800  0.93910828  0.03965906
   0.62753798  0.56089172  0.53965909
   0.37246202  0.43910828  0.46034094
   0.78399026  0.19845424  0.14225613
   0.21600973  0.80154577  0.85774388
   0.71600974  0.69845423  0.35774388
   0.28399026  0.30154577  0.64225612
   0.74252745  0.02759843  0.70945130
   0.25747252  0.97240157  0.29054867
   0.75747255  0.52759843  0.79054870
   0.24252748  0.47240157  0.20945133
Direct configuration=    15
   0.87228080  0.06099142  0.96033038
   0.12771922  0.93900857  0.03966959
   0.62771920  0.56099143  0.53966962
   0.37228080  0.43900857  0.46033041
   0.78367743  0.19856889  0.14212838
   0.21632256  0.80143112  0.85787163
   0.71632257  0.69856888  0.35787163
   0.28367743  0.30143112  0.64212837
   0.74218760  0.02773243  0.70932381
   0.25781237  0.97226758  0.29067616
   0.75781240  0.52773242  0.79067619
   0.24218763  0.47226758  0.20932384
Direct configuration=    16
   0.87177669  0.06126878  0.96030108
   0.12822332  0.93873120  0.03969889
   0.62822331  0.56126880  0.53969892
   0.37177669  0.43873120  0.46030111
   0.78280720  0.19888783  0.14177302
   0.21719279  0.80111219  0.85822699
   0.71719280  0.69888781  0.35822699
   0.28280720  0.30111219  0.64177301
   0.74124220  0.02810517  0.70896916
   0.25875777  0.97189484  0.29103081
   0.75875780  0.52810516  0.79103084
   0.24124223  0.47189484  0.20896919
Direct configuration=    17
   0.87179774  0.06126492  0.96033369
   0.12820228  0.93873507  0.03966628
   0.62820226  0.56126493  0.53966631
   0.37179774  0.43873507  0.46033372
   0.78277157  0.19881073  0.14159083
   0.21722842  0.80118929  0.85840917
   0.71722843  0.69881071  0.35840917
   0.28277157  0.30118929  0.64159083
   0.74112677  0.02817837  0.70899674
   0.25887320  0.97182164  0.29100323
   0.75887323  0.52817836  0.79100326
   0.24112680  0.47182164  0.20899677
Direct configuration=    18
   0.87186087  0.06125331  0.96043152
   0.12813915  0.93874667  0.03956846
   0.62813913  0.56125333  0.53956848
   0.37186087  0.43874667  0.46043155
   0.78266469  0.19857944  0.14104427
   0.21733530  0.80142058  0.85895574
   0.71733531  0.69857942  0.35895574
   0.28266469  0.30142058  0.64104426
   0.74078048  0.02839797  0.70907947
   0.25921949  0.97160204  0.29092050
   0.75921952  0.52839796  0.79092053
   0.24078051  0.47160204  0.20907950
Direct configuration=    19
   0.87188265  0.06114819  0.96025118
   0.12811737  0.93885180  0.03974879
   0.62811735  0.56114820  0.53974882
   0.37188265  0.43885180  0.46025121
   0.78267184  0.19849335  0.14091549
   0.21732814  0.80150666  0.85908452
   0.71732816  0.69849334  0.35908452
   0.28267184  0.30150666  0.64091548
   0.74074610  0.02847656  0.70923415
   0.25925387  0.97152345  0.29076582
   0.75925390  0.52847655  0.79076585
   0.24074613  0.47152345  0.20923418
Direct configuration=    20
   0.87190549  0.06103789  0.96006199
   0.12809452  0.93896209  0.03993798
   0.62809451  0.56103791  0.53993801
   0.37190549  0.43896209  0.46006202
   0.78267935  0.19840304  0.14078038
   0.21732064  0.80159697  0.85921963
   0.71732065  0.69840303  0.35921963
   0.28267935  0.30159697  0.64078037
   0.74071002  0.02855901  0.70939643
   0.25928995  0.97144100  0.29060354
   0.75928998  0.52855900  0.79060357
   0.24071005  0.47144100  0.20939646
