  32  32   0   0
  0.8992511E+01  0.4932875E-09  0.4932875E-09  0.1366141E-08  0.5000000E-15
  1.000000000000000E-004
  CAR 
 graphite                                
     15.27815295    -17.09357734  301      4.51750318      1.00000000
    -17.094  0.0000E+00  0.0000E+00
    -16.986  0.0000E+00  0.0000E+00
    -16.878  0.0000E+00  0.0000E+00
    -16.770  0.0000E+00  0.0000E+00
    -16.662  0.0000E+00  0.0000E+00
    -16.554  0.0000E+00  0.0000E+00
    -16.446  0.0000E+00  0.0000E+00
    -16.338  0.0000E+00  0.0000E+00
    -16.230  0.0000E+00  0.0000E+00
    -16.122  0.0000E+00  0.0000E+00
    -16.015  0.0000E+00  0.0000E+00
    -15.907  0.0000E+00  0.0000E+00
    -15.799  0.0000E+00  0.0000E+00
    -15.691  0.0000E+00  0.0000E+00
    -15.583  0.0000E+00  0.0000E+00
    -15.475  0.0000E+00  0.0000E+00
    -15.367  0.0000E+00  0.0000E+00
    -15.259  0.0000E+00  0.0000E+00
    -15.151  0.0000E+00  0.0000E+00
    -15.043  0.4589E+00  0.8876E-02
    -14.935  0.2789E+01  0.1707E+00
    -14.828  0.3739E+01  0.5042E+00
    -14.720  0.5139E+01  0.9975E+00
    -14.612  0.4857E+01  0.1526E+01
    -14.504  0.5073E+01  0.2065E+01
    -14.396  0.5003E+01  0.2610E+01
    -14.288  0.4843E+01  0.3142E+01
    -14.180  0.4849E+01  0.3662E+01
    -14.072  0.5090E+01  0.4198E+01
    -13.964  0.5331E+01  0.4760E+01
    -13.856  0.7261E+01  0.5451E+01
    -13.748  0.7683E+01  0.6261E+01
    -13.641  0.5997E+01  0.7089E+01
    -13.533  0.2412E+01  0.7505E+01
    -13.425  0.1863E+01  0.7726E+01
    -13.317  0.2114E+01  0.7935E+01
    -13.209  0.2495E+01  0.8184E+01
    -13.101  0.2944E+01  0.8475E+01
    -12.993  0.1008E+02  0.9041E+01
    -12.885  0.8746E+01  0.1009E+02
    -12.777  0.6922E+01  0.1097E+02
    -12.669  0.4018E+01  0.1147E+02
    -12.562  0.4123E+01  0.1191E+02
    -12.454  0.4233E+01  0.1236E+02
    -12.346  0.4376E+01  0.1282E+02
    -12.238  0.4515E+01  0.1330E+02
    -12.130  0.4642E+01  0.1380E+02
    -12.022  0.4769E+01  0.1430E+02
    -11.914  0.5512E+01  0.1486E+02
    -11.806  0.6392E+01  0.1549E+02
    -11.698  0.6056E+01  0.1617E+02
    -11.590  0.5621E+01  0.1680E+02
    -11.482  0.5457E+01  0.1739E+02
    -11.375  0.5621E+01  0.1799E+02
    -11.267  0.5785E+01  0.1861E+02
    -11.159  0.5950E+01  0.1924E+02
    -11.051  0.5825E+01  0.1989E+02
    -10.943  0.5578E+01  0.2050E+02
    -10.835  0.5404E+01  0.2109E+02
    -10.727  0.5175E+01  0.2167E+02
    -10.619  0.3978E+01  0.2216E+02
    -10.511  0.4518E+01  0.2261E+02
    -10.403  0.4996E+01  0.2313E+02
    -10.296  0.5178E+01  0.2368E+02
    -10.188  0.6076E+01  0.2425E+02
    -10.080  0.8719E+01  0.2503E+02
     -9.972  0.1066E+02  0.2617E+02
     -9.864  0.8358E+01  0.2720E+02
     -9.756  0.6063E+01  0.2798E+02
     -9.648  0.4706E+01  0.2854E+02
     -9.540  0.4239E+01  0.2902E+02
     -9.432  0.3773E+01  0.2945E+02
     -9.324  0.8027E+01  0.2997E+02
     -9.216  0.6033E+01  0.3065E+02
     -9.109  0.1965E+01  0.3098E+02
     -9.001  0.1762E+01  0.3118E+02
     -8.893  0.1558E+01  0.3136E+02
     -8.785  0.1355E+01  0.3151E+02
     -8.677  0.1256E+01  0.3165E+02
     -8.569  0.1720E+01  0.3181E+02
     -8.461  0.2219E+01  0.3202E+02
     -8.353  0.2717E+01  0.3229E+02
     -8.245  0.4497E+01  0.3264E+02
     -8.137  0.9401E+01  0.3339E+02
     -8.029  0.5855E+01  0.3439E+02
     -7.922  0.4922E+01  0.3494E+02
     -7.814  0.6074E+01  0.3553E+02
     -7.706  0.7227E+01  0.3625E+02
     -7.598  0.8380E+01  0.3709E+02
     -7.490  0.9532E+01  0.3806E+02
     -7.382  0.7576E+01  0.3902E+02
     -7.274  0.5573E+01  0.3968E+02
     -7.166  0.5580E+01  0.4028E+02
     -7.058  0.5585E+01  0.4089E+02
     -6.950  0.5433E+01  0.4148E+02
     -6.843  0.5262E+01  0.4206E+02
     -6.735  0.5116E+01  0.4262E+02
     -6.627  0.4997E+01  0.4316E+02
     -6.519  0.4879E+01  0.4370E+02
     -6.411  0.4760E+01  0.4422E+02
     -6.303  0.4642E+01  0.4472E+02
     -6.195  0.4523E+01  0.4522E+02
     -6.087  0.4403E+01  0.4570E+02
     -5.979  0.4496E+01  0.4617E+02
     -5.871  0.5131E+01  0.4670E+02
     -5.763  0.5717E+01  0.4728E+02
     -5.656  0.6302E+01  0.4793E+02
     -5.548  0.6888E+01  0.4864E+02
     -5.440  0.7474E+01  0.4942E+02
     -5.332  0.8060E+01  0.5025E+02
     -5.224  0.8646E+01  0.5115E+02
     -5.116  0.6873E+01  0.5208E+02
     -5.008  0.4223E+01  0.5260E+02
     -4.900  0.6994E+01  0.5321E+02
     -4.792  0.6242E+01  0.5395E+02
     -4.684  0.4792E+01  0.5455E+02
     -4.577  0.3342E+01  0.5499E+02
     -4.469  0.1892E+01  0.5527E+02
     -4.361  0.1293E+01  0.5541E+02
     -4.253  0.2768E+01  0.5563E+02
     -4.145  0.4243E+01  0.5601E+02
     -4.037  0.5718E+01  0.5655E+02
     -3.929  0.9827E+01  0.5736E+02
     -3.821  0.1133E+02  0.5857E+02
     -3.713  0.1212E+02  0.5978E+02
     -3.605  0.1116E+02  0.6119E+02
     -3.497  0.5028E+01  0.6208E+02
     -3.390  0.5184E+01  0.6260E+02
     -3.282  0.6359E+01  0.6322E+02
     -3.174  0.7901E+01  0.6396E+02
     -3.066  0.1307E+02  0.6509E+02
     -2.958  0.1902E+02  0.6681E+02
     -2.850  0.6694E+01  0.6885E+02
     -2.742  0.6831E+01  0.6957E+02
     -2.634  0.7076E+01  0.7032E+02
     -2.526  0.7480E+01  0.7111E+02
     -2.418  0.8780E+01  0.7198E+02
     -2.310  0.1690E+02  0.7318E+02
     -2.203  0.1441E+02  0.7492E+02
     -2.095  0.1102E+02  0.7629E+02
     -1.987  0.1367E+02  0.7747E+02
     -1.879  0.4424E+02  0.7985E+02
     -1.771  0.1811E+02  0.8233E+02
     -1.663  0.1555E+02  0.8436E+02
     -1.555  0.1402E+02  0.8585E+02
     -1.447  0.1649E+02  0.8748E+02
     -1.339  0.1048E+02  0.8908E+02
     -1.231  0.6903E+01  0.9001E+02
     -1.124  0.7145E+01  0.9073E+02
     -1.016  0.7995E+01  0.9155E+02
     -0.908  0.8832E+01  0.9246E+02
     -0.800  0.1042E+02  0.9349E+02
     -0.692  0.1068E+02  0.9465E+02
     -0.584  0.1079E+02  0.9580E+02
     -0.476  0.2634E+02  0.9744E+02
     -0.368  0.1160E+02  0.9878E+02
     -0.260  0.1206E+02  0.1000E+03
     -0.152  0.1113E+02  0.1013E+03
     -0.044  0.1016E+02  0.1024E+03
      0.063  0.1004E+02  0.1035E+03
      0.171  0.9665E+01  0.1046E+03
      0.279  0.9642E+01  0.1056E+03
      0.387  0.9553E+01  0.1067E+03
      0.495  0.9591E+01  0.1077E+03
      0.603  0.9247E+01  0.1087E+03
      0.711  0.9073E+01  0.1097E+03
      0.819  0.9113E+01  0.1107E+03
      0.927  0.9658E+01  0.1117E+03
      1.035  0.9558E+01  0.1127E+03
      1.142  0.9909E+01  0.1138E+03
      1.250  0.1104E+02  0.1150E+03
      1.358  0.9770E+01  0.1161E+03
      1.466  0.8021E+01  0.1170E+03
      1.574  0.6479E+01  0.1178E+03
      1.682  0.6090E+01  0.1185E+03
      1.790  0.4646E+01  0.1191E+03
      1.898  0.3250E+01  0.1195E+03
      2.006  0.2816E+01  0.1198E+03
      2.114  0.3622E+01  0.1202E+03
      2.222  0.5156E+01  0.1206E+03
      2.329  0.7690E+01  0.1213E+03
      2.437  0.9805E+01  0.1222E+03
      2.545  0.8315E+01  0.1233E+03
      2.653  0.7133E+01  0.1241E+03
      2.761  0.5556E+01  0.1248E+03
      2.869  0.4353E+01  0.1253E+03
      2.977  0.3584E+01  0.1258E+03
      3.085  0.3184E+01  0.1261E+03
      3.193  0.2829E+01  0.1265E+03
      3.301  0.2468E+01  0.1267E+03
      3.409  0.2149E+01  0.1270E+03
      3.516  0.1856E+01  0.1272E+03
      3.624  0.1529E+01  0.1274E+03
      3.732  0.1308E+01  0.1275E+03
      3.840  0.1086E+01  0.1277E+03
      3.948  0.8651E+00  0.1278E+03
      4.056  0.6655E+00  0.1279E+03
      4.164  0.4884E+00  0.1279E+03
      4.272  0.3248E+00  0.1280E+03
      4.380  0.1732E+00  0.1280E+03
      4.488  0.3205E-01  0.1280E+03
      4.595  0.7066E-01  0.1280E+03
      4.703  0.1909E+00  0.1280E+03
      4.811  0.3233E+00  0.1280E+03
      4.919  0.4703E+00  0.1281E+03
      5.027  0.6340E+00  0.1281E+03
      5.135  0.8242E+00  0.1282E+03
      5.243  0.1057E+01  0.1283E+03
      5.351  0.1292E+01  0.1285E+03
      5.459  0.1528E+01  0.1286E+03
      5.567  0.1765E+01  0.1288E+03
      5.675  0.2767E+01  0.1290E+03
      5.782  0.3520E+01  0.1294E+03
      5.890  0.3875E+01  0.1298E+03
      5.998  0.4856E+01  0.1302E+03
      6.106  0.9230E+01  0.1309E+03
      6.214  0.1345E+02  0.1321E+03
      6.322  0.9150E+01  0.1333E+03
      6.430  0.7263E+01  0.1341E+03
      6.538  0.6225E+01  0.1348E+03
      6.646  0.5686E+01  0.1355E+03
      6.754  0.5402E+01  0.1361E+03
      6.862  0.4914E+01  0.1366E+03
      6.969  0.4209E+01  0.1371E+03
      7.077  0.3781E+01  0.1376E+03
      7.185  0.3697E+01  0.1380E+03
      7.293  0.3937E+01  0.1384E+03
      7.401  0.4383E+01  0.1388E+03
      7.509  0.4761E+01  0.1393E+03
      7.617  0.4859E+01  0.1398E+03
      7.725  0.4697E+01  0.1404E+03
      7.833  0.4553E+01  0.1409E+03
      7.941  0.4361E+01  0.1413E+03
      8.048  0.4226E+01  0.1418E+03
      8.156  0.4133E+01  0.1423E+03
      8.264  0.4067E+01  0.1427E+03
      8.372  0.4014E+01  0.1431E+03
      8.480  0.3971E+01  0.1436E+03
      8.588  0.3940E+01  0.1440E+03
      8.696  0.3761E+01  0.1444E+03
      8.804  0.3661E+01  0.1448E+03
      8.912  0.3876E+01  0.1452E+03
      9.020  0.3836E+01  0.1456E+03
      9.128  0.3767E+01  0.1460E+03
      9.235  0.3730E+01  0.1464E+03
      9.343  0.3770E+01  0.1469E+03
      9.451  0.3813E+01  0.1473E+03
      9.559  0.3820E+01  0.1477E+03
      9.667  0.3827E+01  0.1481E+03
      9.775  0.3835E+01  0.1485E+03
      9.883  0.3844E+01  0.1489E+03
      9.991  0.3861E+01  0.1493E+03
     10.099  0.3907E+01  0.1497E+03
     10.207  0.5300E+01  0.1502E+03
     10.314  0.6171E+01  0.1509E+03
     10.422  0.5850E+01  0.1515E+03
     10.530  0.5556E+01  0.1522E+03
     10.638  0.5433E+01  0.1527E+03
     10.746  0.4572E+01  0.1533E+03
     10.854  0.5423E+01  0.1540E+03
     10.962  0.3103E+01  0.1544E+03
     11.070  0.2455E+01  0.1547E+03
     11.178  0.2922E+01  0.1550E+03
     11.286  0.3454E+01  0.1553E+03
     11.394  0.3498E+01  0.1557E+03
     11.501  0.3055E+01  0.1561E+03
     11.609  0.2967E+01  0.1564E+03
     11.717  0.3455E+01  0.1567E+03
     11.825  0.6636E+01  0.1572E+03
     11.933  0.6913E+01  0.1580E+03
     12.041  0.8472E+01  0.1588E+03
     12.149  0.1086E+02  0.1599E+03
     12.257  0.1287E+02  0.1612E+03
     12.365  0.1315E+02  0.1626E+03
     12.473  0.1334E+02  0.1640E+03
     12.581  0.1352E+02  0.1655E+03
     12.688  0.1165E+02  0.1669E+03
     12.796  0.4639E+01  0.1678E+03
     12.904  0.1805E+00  0.1680E+03
     13.012  0.9137E-01  0.1680E+03
     13.120  0.3228E-01  0.1680E+03
     13.228  0.3255E-02  0.1680E+03
     13.336  0.0000E+00  0.1680E+03
     13.444  0.0000E+00  0.1680E+03
     13.552  0.0000E+00  0.1680E+03
     13.660  0.0000E+00  0.1680E+03
     13.767  0.0000E+00  0.1680E+03
     13.875  0.0000E+00  0.1680E+03
     13.983  0.0000E+00  0.1680E+03
     14.091  0.0000E+00  0.1680E+03
     14.199  0.0000E+00  0.1680E+03
     14.307  0.0000E+00  0.1680E+03
     14.415  0.0000E+00  0.1680E+03
     14.523  0.0000E+00  0.1680E+03
     14.631  0.0000E+00  0.1680E+03
     14.739  0.0000E+00  0.1680E+03
     14.847  0.0000E+00  0.1680E+03
     14.954  0.0000E+00  0.1680E+03
     15.062  0.0000E+00  0.1680E+03
     15.170  0.0000E+00  0.1680E+03
     15.278  0.0000E+00  0.1680E+03
