    4    4  200    1
  0.8643287E+01  0.2466437E-09  0.2466437E-09  0.6565433E-09  0.5000000E-15
  1.000000000000000E-004
  CAR 
 graphite                                
     16    215     12
 
  0.0000000E+00  0.0000000E+00  0.0000000E+00  0.8680556E-03
    1      -14.785626
    2      -14.431161
    3       -3.727216
    4       -1.535998
    5        1.861930
    6        1.878417
    7        1.885443
    8        1.901191
    9        9.366394
   10       13.197035
   11       13.204730
   12       13.263489
 
  0.8333333E-01  0.6938894E-17  0.0000000E+00  0.3472222E-02
    1      -14.619725
    2      -14.268718
    3       -3.525803
    4       -1.348873
    5        1.213096
    6        1.254672
    7        1.521416
    8        1.556586
    9        9.564151
   10       13.247337
   11       13.346450
   12       13.893963
 
  0.1666667E+00  0.1387779E-16  0.0000000E+00  0.3472222E-02
    1      -14.123839
    2      -13.783147
    3       -2.925840
    4       -0.794389
    5       -0.445458
    6       -0.366946
    7        0.720753
    8        0.770754
    9       10.159107
   10       13.133757
   11       13.347145
   12       14.008698
 
  0.2500000E+00  0.2775558E-16  0.0000000E+00  0.3472222E-02
    1      -13.303902
    2      -12.980139
    3       -2.567402
    4       -2.447173
    5       -1.942562
    6       -0.164147
    7       -0.104802
    8        0.102242
    9       11.142548
   10       11.772188
   11       12.494905
   12       12.791336
 
  0.3333333E+00  0.2775558E-16  0.0000000E+00  0.3472222E-02
    1      -12.172157
    2      -11.871821
    3       -4.793587
    4       -4.632650
    5       -0.900231
    6       -0.835674
    7       -0.614548
    8        1.271098
    9        9.328923
   10       10.340212
   11       12.304266
   12       12.527806
 
  0.4166667E+00  0.2775558E-16  0.0000000E+00  0.3472222E-02
    1      -10.759061
    2      -10.490809
    3       -6.912600
    4       -6.717803
    5       -1.374472
    6       -1.307204
    7        0.940654
    8        2.457489
    9        7.198622
   10        8.297849
   11       12.129303
   12       12.567963
 
  0.5000000E+00  0.5551115E-16  0.0000000E+00  0.1736111E-02
    1       -9.438997
    2       -9.304798
    3       -8.361362
    4       -8.260886
    5       -1.537219
    6       -1.469057
    7        2.048938
    8        2.821745
    9        6.396443
   10        7.123121
   11       12.037287
   12       12.499535
 
  0.8333333E-01  0.8333333E-01  0.0000000E+00  0.1736111E-02
    1      -14.288605
    2      -13.944482
    3       -3.124771
    4       -0.977714
    5        0.178800
    6        0.218118
    7        0.846307
    8        0.875835
    9        9.962421
   10       13.524503
   11       13.657235
   12       14.583484
 
  0.1666667E+00  0.8333333E-01  0.0000000E+00  0.3472222E-02
    1      -13.630453
    2      -13.299957
    3       -2.332093
    4       -1.556821
    5       -1.473756
    6       -0.250064
    7       -0.163343
    8       -0.108971
    9       10.759095
   10       12.710488
   11       13.223464
   12       13.598422
 
  0.2500000E+00  0.8333333E-01  0.0000000E+00  0.3472222E-02
    1      -12.654216
    2      -12.343869
    3       -3.657644
    4       -3.524609
    5       -1.171823
    6       -1.059238
    7       -0.986723
    8        0.793372
    9       10.435716
   10       11.218652
   11       11.936015
   12       13.293245
 
  0.3333333E+00  0.8333333E-01  0.0000000E+00  0.3472222E-02
    1      -11.378718
    2      -11.095347
    3       -5.803544
    4       -5.628624
    5       -1.698984
    6       -1.618223
    7        0.292829
    8        2.029825
    9        8.136633
   10        9.154333
   11       12.932983
   12       13.285372
 
  0.4166667E+00  0.8333333E-01  0.0000000E+00  0.3472222E-02
    1       -9.875186
    2       -9.639892
    3       -7.753443
    4       -7.561609
    5       -2.029934
    6       -1.945851
    7        1.817033
    8        2.935101
    9        6.549808
   10        7.397063
   11       12.768480
   12       13.246348
 
  0.5000000E+00  0.8333333E-01  0.0000000E+00  0.3472222E-02
    1       -9.877581
    2       -9.642170
    3       -7.750716
    4       -7.558685
    5       -2.030794
    6       -1.946678
    7        1.815501
    8        2.934818
    9        6.549377
   10        7.399253
   11       12.769469
   12       13.247349
 
 -0.4166667E+00  0.8333333E-01  0.0000000E+00  0.3472222E-02
    1      -11.380901
    2      -11.097499
    3       -5.800052
    4       -5.625047
    5       -1.701388
    6       -1.620553
    7        0.290933
    8        2.028313
    9        8.136757
   10        9.157106
   11       12.935749
   12       13.286000
 
 -0.3333333E+00  0.8333333E-01  0.0000000E+00  0.3472222E-02
    1      -12.655917
    2      -12.345561
    3       -3.654328
    4       -3.521190
    5       -1.173462
    6       -1.062409
    7       -0.989818
    8        0.791848
    9       10.434524
   10       11.221131
   11       11.933730
   12       13.297780
 
 -0.2500000E+00  0.8333333E-01  0.0000000E+00  0.3472222E-02
    1      -13.631665
    2      -13.301161
    3       -2.333324
    4       -1.555903
    5       -1.472794
    6       -0.251254
    7       -0.164459
    8       -0.110264
    9       10.757397
   10       12.706942
   11       13.225406
   12       13.604281
 
 -0.1666667E+00  0.8333333E-01  0.0000000E+00  0.3472222E-02
    1      -14.289330
    2      -13.945202
    3       -3.125534
    4       -0.978405
    5        0.170725
    6        0.210993
    7        0.853803
    8        0.883327
    9        9.961363
   10       13.531512
   11       13.665780
   12       14.558669
 
 -0.8333333E-01  0.8333333E-01  0.0000000E+00  0.1736111E-02
    1      -14.619966
    2      -14.268957
    3       -3.526059
    4       -1.349125
    5        1.200256
    6        1.242278
    7        1.534314
    8        1.569182
    9        9.563782
   10       13.251597
   11       13.351050
   12       13.908971
 
  0.1666667E+00  0.1666667E+00  0.0000000E+00  0.1736111E-02
    1      -12.815971
    2      -12.502289
    3       -2.883500
    4       -2.818007
    5       -1.520496
    6       -1.472586
    7       -1.359718
    8        0.630627
    9       10.972620
   10       11.516858
   11       11.756604
   12       14.771268
 
  0.2500000E+00  0.1666667E+00  0.0000000E+00  0.3472222E-02
    1      -11.694649
    2      -11.404360
    3       -4.642634
    4       -4.517520
    5       -2.598101
    6       -2.511027
    7       -0.045546
    8        1.785485
    9        8.951990
   10        9.655377
   11       13.122158
   12       14.874922
 
  0.3333333E+00  0.1666667E+00  0.0000000E+00  0.3472222E-02
    1      -10.300893
    2      -10.042970
    3       -6.579618
    4       -6.403494
    5       -3.187778
    6       -3.077909
    7        1.504365
    8        2.997985
    9        7.021996
   10        7.847981
   11       14.574739
   12       14.828315
 
  0.4166667E+00  0.1666667E+00  0.0000000E+00  0.3472222E-02
    1       -9.013846
    2       -8.884877
    3       -7.958028
    4       -7.869519
    5       -3.376963
    6       -3.261684
    7        2.646425
    8        3.402565
    9        6.331545
   10        6.642497
   11       14.511940
   12       15.123903
 
  0.5000000E+00  0.1666667E+00  0.0000000E+00  0.3472222E-02
    1      -10.305645
    2      -10.047694
    3       -6.573280
    4       -6.396864
    5       -3.190270
    6       -3.080282
    7        1.500675
    8        2.995573
    9        7.020498
   10        7.854273
   11       14.576574
   12       14.822221
 
 -0.4166667E+00  0.1666667E+00  0.0000000E+00  0.3472222E-02
    1      -11.698535
    2      -11.408239
    3       -4.636940
    4       -4.511448
    5       -2.601382
    6       -2.514155
    7       -0.049070
    8        1.782211
    9        8.948643
   10        9.661571
   11       13.116844
   12       14.881054
 
 -0.3333333E+00  0.1666667E+00  0.0000000E+00  0.3472222E-02
    1      -12.818882
    2      -12.505198
    3       -2.885100
    4       -2.818041
    5       -1.518468
    6       -1.469734
    7       -1.362570
    8        0.627824
    9       10.965464
   10       11.521575
   11       11.752663
   12       14.790993
 
 -0.2500000E+00  0.1666667E+00  0.0000000E+00  0.3472222E-02
    1      -13.632387
    2      -13.301879
    3       -2.334071
    4       -1.566974
    5       -1.482990
    6       -0.252038
    7       -0.152469
    8       -0.097821
    9       10.756457
   10       12.702129
   11       13.224365
   12       13.623959
 
 -0.1666667E+00  0.1666667E+00  0.0000000E+00  0.1736111E-02
    1      -14.124804
    2      -13.784105
    3       -2.926849
    4       -0.795400
    5       -0.458940
    6       -0.380037
    7        0.735371
    8        0.785192
    9       10.157761
   10       13.152298
   11       13.364881
   12       14.001842
 
  0.2500000E+00  0.2500000E+00  0.0000000E+00  0.1736111E-02
    1      -10.450705
    2      -10.187914
    3       -5.666991
    4       -5.576468
    5       -4.068925
    6       -4.002050
    7        1.381767
    8        2.994676
    9        7.344405
   10        8.021172
   11       14.624922
   12       16.686098
 
  0.3333333E+00  0.2500000E+00  0.0000000E+00  0.3472222E-02
    1       -9.004151
    2       -8.788710
    3       -7.113857
    4       -6.968829
    5       -4.803612
    6       -4.689352
    7        2.931885
    8        4.055782
    9        5.925781
   10        6.529841
   11       16.260248
   12       16.581350
 
  0.4166667E+00  0.2500000E+00  0.0000000E+00  0.3472222E-02
    1       -9.011421
    2       -8.795771
    3       -7.106470
    4       -6.960202
    5       -4.804603
    6       -4.690164
    7        2.927362
    8        4.054461
    9        5.919358
   10        6.540238
   11       16.249548
   12       16.581990
 
  0.5000000E+00  0.2500000E+00  0.0000000E+00  0.3472222E-02
    1      -10.457255
    2      -10.194502
    3       -5.663345
    4       -5.570676
    5       -4.067875
    6       -3.999643
    7        1.376513
    8        2.989384
    9        7.338759
   10        8.030923
   11       14.615766
   12       16.704130
 
 -0.4166667E+00  0.2500000E+00  0.0000000E+00  0.3472222E-02
    1      -11.699758
    2      -11.409476
    3       -4.646997
    4       -4.520664
    5       -2.589523
    6       -2.501744
    7       -0.050186
    8        1.780558
    9        8.944225
   10        9.660489
   11       13.115461
   12       14.912163
 
 -0.3333333E+00  0.2500000E+00  0.0000000E+00  0.3472222E-02
    1      -12.657850
    2      -12.347492
    3       -3.667052
    4       -3.533513
    5       -1.175368
    6       -1.045752
    7       -0.973171
    8        0.789615
    9       10.426782
   10       11.217985
   11       11.931578
   12       13.326453
 
 -0.2500000E+00  0.2500000E+00  0.0000000E+00  0.1736111E-02
    1      -13.306074
    2      -12.982305
    3       -2.580168
    4       -2.459608
    5       -1.944772
    6       -0.147835
    7       -0.088623
    8        0.099924
    9       11.139874
   10       11.763259
   11       12.491822
   12       12.818750
 
  0.3333333E+00  0.3333333E+00  0.0000000E+00  0.1736111E-02
    1       -7.800420
    2       -7.686100
    3       -7.683833
    4       -7.571728
    5       -5.635631
    6       -5.634529
    7        4.153361
    8        4.834664
    9        4.844719
   10        5.684184
   11       16.096441
   12       16.122062
 
  0.4166667E+00  0.3333333E+00  0.0000000E+00  0.3472222E-02
    1       -9.014040
    2       -8.799107
    3       -7.111806
    4       -6.965686
    5       -4.795804
    6       -4.680708
    7        2.927183
    8        4.045461
    9        5.922544
   10        6.540295
   11       16.249862
   12       16.612807
 
  0.5000000E+00  0.3333333E+00  0.0000000E+00  0.3472222E-02
    1      -10.308822
    2      -10.051063
    3       -6.582977
    4       -6.406418
    5       -3.175279
    6       -3.065245
    7        1.498649
    8        2.989368
    9        7.017472
   10        7.851524
   11       14.602547
   12       14.832397
 
 -0.4166667E+00  0.3333333E+00  0.0000000E+00  0.3472222E-02
    1      -11.384601
    2      -11.101276
    3       -5.811042
    4       -5.635831
    5       -1.683430
    6       -1.602698
    7        0.287753
    8        2.023241
    9        8.130042
   10        9.151873
   11       12.965242
   12       13.307824
 
 -0.3333333E+00  0.3333333E+00  0.0000000E+00  0.1736111E-02
    1      -12.176040
    2      -11.875714
    3       -4.804497
    4       -4.643304
    5       -0.882589
    6       -0.818149
    7       -0.618217
    8        1.266661
    9        9.320464
   10       10.335162
   11       12.319611
   12       12.548345
 
  0.4166667E+00  0.4166667E+00  0.0000000E+00  0.1736111E-02
    1       -9.023398
    2       -8.897349
    3       -7.958410
    4       -7.871821
    5       -3.362425
    6       -3.247143
    7        2.646524
    8        3.384882
    9        6.337849
   10        6.637570
   11       14.548941
   12       15.161758
 
  0.5000000E+00  0.4166667E+00  0.0000000E+00  0.3472222E-02
    1       -9.884334
    2       -9.649744
    3       -7.757430
    4       -7.565876
    5       -2.012872
    6       -1.928861
    7        1.812978
    8        2.921585
    9        6.550585
   10        7.391262
   11       12.804013
   12       13.282007
 
 -0.4166667E+00  0.4166667E+00  0.0000000E+00  0.1736111E-02
    1      -10.765351
    2      -10.497291
    3       -6.920667
    4       -6.725799
    5       -1.356001
    6       -1.288846
    7        0.936074
    8        2.448588
    9        7.194623
   10        8.291000
   11       12.162691
   12       12.601190
 
  0.5000000E+00  0.5000000E+00  0.0000000E+00  0.8680556E-03
    1       -9.449285
    2       -9.318119
    3       -8.362811
    4       -8.264441
    5       -1.518470
    6       -1.450416
    7        2.048497
    8        2.803068
    9        6.402106
   10        7.111433
   11       12.071519
   12       12.533793
 
  0.0000000E+00  0.0000000E+00  0.1250000E+00  0.1736111E-02
    1      -14.773085
    2      -14.445717
    3       -3.657399
    4       -1.640234
    5        1.862862
    6        1.879324
    7        1.884667
    8        1.900439
    9        9.573975
   10       13.200513
   11       13.204504
   12       13.260493
 
  0.8333333E-01  0.6938894E-17  0.1250000E+00  0.6944444E-02
    1      -14.607298
    2      -14.283124
    3       -3.456412
    4       -1.452355
    5        1.214700
    6        1.253068
    7        1.522736
    8        1.555295
    9        9.769949
   10       13.249144
   11       13.343058
   12       13.939243
 
  0.1666667E+00  0.1387779E-16  0.1250000E+00  0.6944444E-02
    1      -14.111753
    2      -13.797085
    3       -2.857723
    4       -0.895382
    5       -0.442430
    6       -0.369937
    7        0.722613
    8        0.768820
    9       10.358839
   10       13.136151
   11       13.337813
   12       14.028660
 
  0.2500000E+00  0.2775558E-16  0.1250000E+00  0.6944444E-02
    1      -13.292357
    2      -12.993330
    3       -2.562963
    4       -2.451919
    5       -1.876668
    6       -0.161835
    7       -0.107053
    8        0.006456
    9       11.311426
   10       11.815489
   11       12.455559
   12       12.804236
 
  0.3333333E+00  0.2775558E-16  0.1250000E+00  0.6944444E-02
    1      -12.161391
    2      -11.883985
    3       -4.787634
    4       -4.638968
    5       -0.897818
    6       -0.838144
    7       -0.552778
    8        1.185033
    9        9.355328
   10       10.292022
   11       12.361890
   12       12.589374
 
  0.4166667E+00  0.2775558E-16  0.1250000E+00  0.6944444E-02
    1      -10.749359
    2      -10.501582
    3       -6.905521
    4       -6.725573
    5       -1.371927
    6       -1.309788
    7        0.994222
    8        2.396021
    9        7.219915
   10        8.238785
   11       12.145985
   12       12.551403
 
  0.5000000E+00  0.5551115E-16  0.1250000E+00  0.3472222E-02
    1       -9.432941
    2       -9.308644
    3       -8.359700
    4       -8.266519
    5       -1.534648
    6       -1.471711
    7        2.087624
    8        2.807671
    9        6.385677
   10        7.063124
   11       12.054049
   12       12.481406
 
  0.8333333E-01  0.8333333E-01  0.1250000E+00  0.3472222E-02
    1      -14.276398
    2      -13.958576
    3       -3.056237
    4       -1.079489
    5        0.180433
    6        0.216749
    7        0.847279
    8        0.874578
    9       10.164586
   10       13.523351
   11       13.652100
   12       14.645149
 
  0.1666667E+00  0.8333333E-01  0.1250000E+00  0.6944444E-02
    1      -13.618697
    2      -13.313437
    3       -2.265398
    4       -1.553690
    5       -1.476875
    6       -0.348055
    7       -0.161362
    8       -0.111175
    9       10.952079
   10       12.726500
   11       13.194545
   12       13.609593
 
  0.2500000E+00  0.8333333E-01  0.1250000E+00  0.6944444E-02
    1      -12.643118
    2      -12.356474
    3       -3.652739
    4       -3.529802
    5       -1.108161
    6       -1.056481
    7       -0.989537
    8        0.702320
    9       10.456387
   10       11.183589
   11       12.120931
   12       13.306536
 
  0.3333333E+00  0.8333333E-01  0.1250000E+00  0.6944444E-02
    1      -11.368535
    2      -11.106776
    3       -5.797140
    4       -5.635558
    5       -1.695970
    6       -1.621372
    7        0.351009
    8        1.953130
    9        8.163688
   10        9.106187
   11       12.955197
   12       13.301422
 
  0.4166667E+00  0.8333333E-01  0.1250000E+00  0.6944444E-02
    1       -9.866539
    2       -9.649153
    3       -7.746722
    4       -7.569460
    5       -2.026798
    6       -1.949125
    7        1.862668
    8        2.900514
    9        6.552804
   10        7.342386
   11       12.785474
   12       13.227107
 
  0.5000000E+00  0.8333333E-01  0.1250000E+00  0.6944444E-02
    1       -9.868935
    2       -9.651435
    3       -7.743989
    4       -7.566542
    5       -2.027651
    6       -1.949963
    7        1.861157
    8        2.900146
    9        6.552514
   10        7.344494
   11       12.786461
   12       13.228070
 
 -0.4166667E+00  0.8333333E-01  0.1250000E+00  0.6944444E-02
    1      -11.370712
    2      -11.108942
    3       -5.793652
    4       -5.631981
    5       -1.698369
    6       -1.623697
    7        0.349121
    8        1.951588
    9        8.163937
   10        9.108857
   11       12.958002
   12       13.302867
 
 -0.3333333E+00  0.8333333E-01  0.1250000E+00  0.6944444E-02
    1      -12.644819
    2      -12.358167
    3       -3.649420
    4       -3.526386
    5       -1.109810
    6       -1.059634
    7       -0.992639
    8        0.700788
    9       10.455390
   10       11.185924
   11       12.118555
   12       13.311039
 
 -0.2500000E+00  0.8333333E-01  0.1250000E+00  0.6944444E-02
    1      -13.619909
    2      -13.314642
    3       -2.266628
    4       -1.552770
    5       -1.475911
    6       -0.349242
    7       -0.162492
    8       -0.112458
    9       10.950406
   10       12.723182
   11       13.196393
   12       13.615357
 
 -0.1666667E+00  0.8333333E-01  0.1250000E+00  0.6944444E-02
    1      -14.277124
    2      -13.959297
    3       -3.056996
    4       -1.080233
    5        0.172362
    6        0.209571
    7        0.854778
    8        0.882067
    9       10.163522
   10       13.530341
   11       13.660593
   12       14.575039
 
 -0.8333333E-01  0.8333333E-01  0.1250000E+00  0.3472222E-02
    1      -14.607541
    2      -14.283364
    3       -3.456671
    4       -1.452606
    5        1.201868
    6        1.240654
    7        1.535622
    8        1.567902
    9        9.769578
   10       13.253363
   11       13.347650
   12       13.899510
 
  0.1666667E+00  0.1666667E+00  0.1250000E+00  0.3472222E-02
    1      -12.804772
    2      -12.515057
    3       -2.880905
    4       -2.820377
    5       -1.519043
    6       -1.474758
    7       -1.295344
    8        0.537925
    9       10.992578
   10       11.490679
   11       11.943047
   12       14.776774
 
  0.2500000E+00  0.1666667E+00  0.1250000E+00  0.6944444E-02
    1      -11.684224
    2      -11.416093
    3       -4.637906
    4       -4.522340
    5       -2.595105
    6       -2.514585
    7        0.014659
    8        1.702331
    9        8.976744
   10        9.626957
   11       13.280573
   12       14.887442
 
  0.3333333E+00  0.1666667E+00  0.1250000E+00  0.6944444E-02
    1      -10.291554
    2      -10.053302
    3       -6.573187
    4       -6.410485
    5       -3.183780
    6       -3.082241
    7        1.556863
    8        2.936845
    9        7.043146
   10        7.809457
   11       14.606937
   12       14.884049
 
  0.4166667E+00  0.1666667E+00  0.1250000E+00  0.6944444E-02
    1       -9.008040
    2       -8.888586
    3       -7.956623
    4       -7.874543
    5       -3.372756
    6       -3.266225
    7        2.685116
    8        3.390388
    9        6.311910
   10        6.609139
   11       14.528558
   12       15.091678
 
  0.5000000E+00  0.1666667E+00  0.1250000E+00  0.6944444E-02
    1      -10.296312
    2      -10.058026
    3       -6.566838
    4       -6.403867
    5       -3.186269
    6       -3.084619
    7        1.553191
    8        2.934327
    9        7.042007
   10        7.815442
   11       14.609223
   12       14.878590
 
 -0.4166667E+00  0.1666667E+00  0.1250000E+00  0.6944444E-02
    1      -11.688109
    2      -11.419981
    3       -4.632199
    4       -4.516283
    5       -2.598390
    6       -2.517719
    7        0.011138
    8        1.699036
    9        8.973752
   10        9.632728
   11       13.275125
   12       14.893478
 
 -0.3333333E+00  0.1666667E+00  0.1250000E+00  0.6944444E-02
    1      -12.807683
    2      -12.517957
    3       -2.882436
    4       -2.820472
    5       -1.516982
    6       -1.471932
    7       -1.298191
    8        0.535119
    9       10.985827
   10       11.494866
   11       11.939124
   12       14.796299
 
 -0.2500000E+00  0.1666667E+00  0.1250000E+00  0.6944444E-02
    1      -13.620629
    2      -13.315360
    3       -2.267375
    4       -1.563808
    5       -1.486148
    6       -0.350027
    7       -0.150477
    8       -0.100028
    9       10.949417
   10       12.718735
   11       13.195387
   12       13.634745
 
 -0.1666667E+00  0.1666667E+00  0.1250000E+00  0.3472222E-02
    1      -14.112717
    2      -13.798043
    3       -2.858733
    4       -0.896391
    5       -0.455921
    6       -0.383043
    7        0.737228
    8        0.783265
    9       10.357487
   10       13.154579
   11       13.355521
   12       14.022545
 
  0.2500000E+00  0.2500000E+00  0.1250000E+00  0.3472222E-02
    1      -10.441191
    2      -10.198456
    3       -5.663328
    4       -5.579662
    5       -4.067088
    6       -4.005248
    7        1.436440
    8        2.924425
    9        7.370579
   10        7.994480
   11       14.713495
   12       16.489269
 
  0.3333333E+00  0.2500000E+00  0.1250000E+00  0.6944444E-02
    1       -8.996196
    2       -8.797154
    3       -7.108597
    4       -6.974567
    5       -4.799753
    6       -4.694160
    7        2.976875
    8        4.020391
    9        5.938341
   10        6.496515
   11       15.962799
   12       16.209771
 
  0.4166667E+00  0.2500000E+00  0.1250000E+00  0.6944444E-02
    1       -9.003459
    2       -8.804226
    3       -7.101159
    4       -6.965984
    5       -4.800733
    6       -4.694962
    7        2.972369
    8        4.018753
    9        5.932665
   10        6.506397
   11       15.949897
   12       16.218409
 
  0.5000000E+00  0.2500000E+00  0.1250000E+00  0.6944444E-02
    1      -10.447749
    2      -10.205042
    3       -5.659606
    4       -5.573966
    5       -4.065971
    6       -4.002883
    7        1.431185
    8        2.919125
    9        7.365388
   10        8.003553
   11       14.704108
   12       16.504174
 
 -0.4166667E+00  0.2500000E+00  0.1250000E+00  0.6944444E-02
    1      -11.689333
    2      -11.421210
    3       -4.642225
    4       -4.525533
    5       -2.586495
    6       -2.505324
    7        0.010015
    8        1.697426
    9        8.969330
   10        9.631441
   11       13.274002
   12       14.924421
 
 -0.3333333E+00  0.2500000E+00  0.1250000E+00  0.6944444E-02
    1      -12.646750
    2      -12.360097
    3       -3.662130
    4       -3.538727
    5       -1.111704
    6       -1.042996
    7       -0.975989
    8        0.698581
    9       10.447576
   10       11.182500
   11       12.116889
   12       13.339631
 
 -0.2500000E+00  0.2500000E+00  0.1250000E+00  0.3472222E-02
    1      -13.294527
    2      -12.995491
    3       -2.575717
    4       -2.464363
    5       -1.878878
    6       -0.145529
    7       -0.090869
    8        0.004142
    9       11.308070
   10       11.807737
   11       12.452518
   12       12.831522
 
  0.3333333E+00  0.3333333E+00  0.1250000E+00  0.3472222E-02
    1       -7.792124
    2       -7.685569
    3       -7.683384
    4       -7.580771
    5       -5.636579
    6       -5.635559
    7        4.204400
    8        4.841277
    9        4.850590
   10        5.616105
   11       15.833847
   12       15.854913
 
  0.4166667E+00  0.3333333E+00  0.1250000E+00  0.6944444E-02
    1       -9.006100
    2       -8.807526
    3       -7.106514
    4       -6.971475
    5       -4.791903
    6       -4.685525
    7        2.972052
    8        4.010408
    9        5.935325
   10        6.506291
   11       15.948601
   12       16.231873
 
  0.5000000E+00  0.3333333E+00  0.1250000E+00  0.6944444E-02
    1      -10.299494
    2      -10.061387
    3       -6.576536
    4       -6.413435
    5       -3.171273
    6       -3.069575
    7        1.551093
    8        2.928437
    9        7.038686
   10        7.812460
   11       14.639503
   12       14.888131
 
 -0.4166667E+00  0.3333333E+00  0.1250000E+00  0.6944444E-02
    1      -11.374413
    2      -11.112699
    3       -5.804627
    4       -5.642770
    5       -1.680408
    6       -1.605835
    7        0.345910
    8        1.946660
    9        8.157042
   10        9.103407
   11       12.988553
   12       13.329094
 
 -0.3333333E+00  0.3333333E+00  0.1250000E+00  0.3472222E-02
    1      -12.165274
    2      -11.887887
    3       -4.798540
    4       -4.649646
    5       -0.880188
    6       -0.820616
    7       -0.556462
    8        1.180651
    9        9.346792
   10       10.286722
   11       12.385005
   12       12.608980
 
  0.4166667E+00  0.4166667E+00  0.1250000E+00  0.3472222E-02
    1       -9.017684
    2       -8.900944
    3       -7.957083
    4       -7.876784
    5       -3.358219
    6       -3.251676
    7        2.684836
    8        3.373594
    9        6.317417
   10        6.604168
   11       14.565582
   12       15.129057
 
  0.5000000E+00  0.4166667E+00  0.1250000E+00  0.6944444E-02
    1       -9.875713
    2       -9.658974
    3       -7.750726
    4       -7.573722
    5       -2.009736
    6       -1.932134
    7        1.858431
    8        2.887583
    9        6.552953
   10        7.336499
   11       12.821017
   12       13.262697
 
 -0.4166667E+00  0.4166667E+00  0.1250000E+00  0.3472222E-02
    1      -10.755656
    2      -10.508056
    3       -6.913587
    4       -6.733575
    5       -1.353460
    6       -1.291426
    7        0.989566
    8        2.387434
    9        7.215503
   10        8.231828
   11       12.179405
   12       12.584646
 
  0.5000000E+00  0.5000000E+00  0.1250000E+00  0.1736111E-02
    1       -9.443329
    2       -9.321841
    3       -8.361239
    4       -8.270010
    5       -1.515903
    6       -1.453066
    7        2.086780
    8        2.789918
    9        6.390307
   10        7.051666
   11       12.088281
   12       12.515632
 
  0.0000000E+00  0.0000000E+00  0.2500000E+00  0.1736111E-02
    1      -14.736993
    2      -14.486653
    3       -3.454680
    4       -1.923771
    5        1.865359
    6        1.881738
    7        1.882016
    8        1.897873
    9       10.165533
   10       13.206042
   11       13.210948
   12       13.251093
 
  0.8333333E-01  0.6938894E-17  0.2500000E+00  0.6944444E-02
    1      -14.571540
    2      -14.323626
    3       -3.254840
    4       -1.733796
    5        1.219189
    6        1.248585
    7        1.526556
    8        1.551439
    9       10.356153
   10       13.252273
   11       13.333760
   12       13.915750
 
  0.1666667E+00  0.1387779E-16  0.2500000E+00  0.6944444E-02
    1      -14.076972
    2      -13.836318
    3       -2.659887
    4       -1.170098
    5       -0.433930
    6       -0.378516
    7        0.728013
    8        0.763435
    9       10.926738
   10       13.141652
   11       13.313916
   12       14.084323
 
  0.2500000E+00  0.2775558E-16  0.2500000E+00  0.6944444E-02
    1      -13.259190
    2      -13.030470
    3       -2.550228
    4       -2.465323
    5       -1.685577
    6       -0.254949
    7       -0.155453
    8       -0.113503
    9       11.680669
   10       12.042569
   11       12.351098
   12       12.839101
 
  0.3333333E+00  0.2775558E-16  0.2500000E+00  0.6944444E-02
    1      -12.130484
    2      -11.918277
    3       -4.770690
    4       -4.656896
    5       -0.890856
    6       -0.845158
    7       -0.373819
    8        0.948477
    9        9.438473
   10       10.159178
   11       12.439781
   12       12.662647
 