mesh: [     9,     9,     4 ]
nqpoint: 50     
reciprocal_lattice:
- [   0.40553429,   0.23434576,   0.00000000 ] # a*
- [   0.00018224,   0.46837588,   0.00000000 ] # b*
- [   0.00000000,   0.00000000,   0.15231287 ] # c*
natom:   4      
lattice:
- [     2.466437248995937,    -0.000959642981403,     0.000000000000000 ] # a
- [    -1.234049699648306,     2.135517492938035,     0.000000000000000 ] # b
- [     0.000000000000000,     0.000000000000000,     6.565433220864240 ] # c
points:
- symbol: C  # 1
  coordinates: [  0.999346608899160,  0.000653437440448,  0.250000000000000 ]
  mass: 12.010700
- symbol: C  # 2
  coordinates: [  0.000653437440448,  0.999346608899160,  0.750000000000000 ]
  mass: 12.010700
- symbol: C  # 3
  coordinates: [  0.332584924946424,  0.667415057713967,  0.250000000000000 ]
  mass: 12.010700
- symbol: C  # 4
  coordinates: [  0.667415057713967,  0.332584924946424,  0.750000000000000 ]
  mass: 12.010700
phonon:
- q-position: [    0.0000000,    0.0000000,    0.1250000 ]
  weight: 2    
  band:
  - # 1
    frequency:    -2.5352402854
  - # 2
    frequency:    -0.8371308393
  - # 3
    frequency:    -0.7436189849
  - # 4
    frequency:     0.8344155082
  - # 5
    frequency:     1.1407580257
  - # 6
    frequency:     2.6023017118
  - # 7
    frequency:    22.3640178152
  - # 8
    frequency:    26.2383923427
  - # 9
    frequency:    43.7068023176
  - # 10
    frequency:    43.8251303179
  - # 11
    frequency:    43.9228600220
  - # 12
    frequency:    43.9901331058

- q-position: [    0.1111111,    0.0000000,    0.1250000 ]
  weight: 8    
  band:
  - # 1
    frequency:     3.6153982943
  - # 2
    frequency:     5.4308585937
  - # 3
    frequency:     5.9884156018
  - # 4
    frequency:     6.0377333011
  - # 5
    frequency:    11.3214320257
  - # 6
    frequency:    11.5001723544
  - # 7
    frequency:    22.0766449199
  - # 8
    frequency:    25.6456468160
  - # 9
    frequency:    43.6638204224
  - # 10
    frequency:    43.6923251473
  - # 11
    frequency:    44.0509747727
  - # 12
    frequency:    44.2140360493

- q-position: [    0.2222222,    0.0000000,    0.1250000 ]
  weight: 8    
  band:
  - # 1
    frequency:     7.4128879203
  - # 2
    frequency:     9.1072069174
  - # 3
    frequency:    11.5659173400
  - # 4
    frequency:    11.5946283771
  - # 5
    frequency:    21.2748137901
  - # 6
    frequency:    22.0505879836
  - # 7
    frequency:    22.1610446663
  - # 8
    frequency:    23.9944270941
  - # 9
    frequency:    43.1631210474
  - # 10
    frequency:    43.2073117240
  - # 11
    frequency:    44.4655608929
  - # 12
    frequency:    44.6022587379

- q-position: [    0.3333333,    0.0000000,    0.1250000 ]
  weight: 8    
  band:
  - # 1
    frequency:    10.8760843373
  - # 2
    frequency:    12.2260311682
  - # 3
    frequency:    15.9787124678
  - # 4
    frequency:    15.9892268062
  - # 5
    frequency:    20.1283662098
  - # 6
    frequency:    21.6563051180
  - # 7
    frequency:    31.0620213035
  - # 8
    frequency:    31.1509456379
  - # 9
    frequency:    42.4664140088
  - # 10
    frequency:    42.5096346526
  - # 11
    frequency:    44.1478993973
  - # 12
    frequency:    44.2479791517

- q-position: [    0.4444444,    0.0000000,    0.1250000 ]
  weight: 8    
  band:
  - # 1
    frequency:    13.6163904724
  - # 2
    frequency:    14.2553847968
  - # 3
    frequency:    18.5015847968
  - # 4
    frequency:    18.5028994797
  - # 5
    frequency:    19.0087253343
  - # 6
    frequency:    19.3926882474
  - # 7
    frequency:    37.8306171859
  - # 8
    frequency:    37.9048084873
  - # 9
    frequency:    41.9232906212
  - # 10
    frequency:    41.9458682377
  - # 11
    frequency:    42.1530848666
  - # 12
    frequency:    42.2359839538

- q-position: [    0.1111111,    0.1111111,    0.1250000 ]
  weight: 4    
  band:
  - # 1
    frequency:     7.2292674744
  - # 2
    frequency:     7.8088945587
  - # 3
    frequency:    10.6641753697
  - # 4
    frequency:    10.6973175684
  - # 5
    frequency:    18.9155846256
  - # 6
    frequency:    19.0721472028
  - # 7
    frequency:    21.5162244067
  - # 8
    frequency:    24.4209873391
  - # 9
    frequency:    43.4498235707
  - # 10
    frequency:    43.4943906761
  - # 11
    frequency:    44.2940896304
  - # 12
    frequency:    44.4917082124

- q-position: [    0.2222222,    0.1111111,    0.1250000 ]
  weight: 8    
  band:
  - # 1
    frequency:    10.3746919560
  - # 2
    frequency:    11.0570558318
  - # 3
    frequency:    15.9105193297
  - # 4
    frequency:    15.9140191974
  - # 5
    frequency:    20.5102885427
  - # 6
    frequency:    22.3406618676
  - # 7
    frequency:    27.2588317975
  - # 8
    frequency:    27.3624924959
  - # 9
    frequency:    43.0482143787
  - # 10
    frequency:    43.0812321496
  - # 11
    frequency:    44.2350276951
  - # 12
    frequency:    44.3498242440

- q-position: [    0.3333333,    0.1111111,    0.1250000 ]
  weight: 8    
  band:
  - # 1
    frequency:    13.1973798782
  - # 2
    frequency:    13.6474284601
  - # 3
    frequency:    19.2879063521
  - # 4
    frequency:    19.7214467819
  - # 5
    frequency:    19.7285224194
  - # 6
    frequency:    19.9302173119
  - # 7
    frequency:    34.3642918115
  - # 8
    frequency:    34.4389908363
  - # 9
    frequency:    42.3326777765
  - # 10
    frequency:    42.3805287697
  - # 11
    frequency:    43.2159590476
  - # 12
    frequency:    43.2878704094

- q-position: [   -0.5555556,    0.1111111,    0.1250000 ]
  weight: 8    
  band:
  - # 1
    frequency:    14.3153004011
  - # 2
    frequency:    14.9583583497
  - # 3
    frequency:    18.5776582781
  - # 4
    frequency:    18.6572028686
  - # 5
    frequency:    21.1916159211
  - # 6
    frequency:    21.1992327586
  - # 7
    frequency:    39.4384036607
  - # 8
    frequency:    39.4680177908
  - # 9
    frequency:    39.7210488442
  - # 10
    frequency:    39.7895186166
  - # 11
    frequency:    42.6155559681
  - # 12
    frequency:    42.6464640029

- q-position: [   -0.4444444,    0.1111111,    0.1250000 ]
  weight: 8    
  band:
  - # 1
    frequency:    12.2479986606
  - # 2
    frequency:    13.7761470360
  - # 3
    frequency:    19.3879037176
  - # 4
    frequency:    19.8938289033
  - # 5
    frequency:    19.9156110869
  - # 6
    frequency:    20.3552825156
  - # 7
    frequency:    34.4842657416
  - # 8
    frequency:    34.5511746126
  - # 9
    frequency:    42.2315077948
  - # 10
    frequency:    42.2679233338
  - # 11
    frequency:    43.1241102920
  - # 12
    frequency:    43.2219715781

- q-position: [   -0.3333333,    0.1111111,    0.1250000 ]
  weight: 8    
  band:
  - # 1
    frequency:     9.0761718173
  - # 2
    frequency:    11.2546147004
  - # 3
    frequency:    16.1560890451
  - # 4
    frequency:    16.2064554208
  - # 5
    frequency:    20.5747789116
  - # 6
    frequency:    22.7565687575
  - # 7
    frequency:    27.4068687207
  - # 8
    frequency:    27.4733244453
  - # 9
    frequency:    42.9347919758
  - # 10
    frequency:    42.9875720026
  - # 11
    frequency:    44.1594735445
  - # 12
    frequency:    44.2459720946

- q-position: [   -0.2222222,    0.1111111,    0.1250000 ]
  weight: 8    
  band:
  - # 1
    frequency:     5.4362437005
  - # 2
    frequency:     8.2970913313
  - # 3
    frequency:    10.7988221580
  - # 4
    frequency:    10.9377662644
  - # 5
    frequency:    19.1725702878
  - # 6
    frequency:    19.1973133887
  - # 7
    frequency:    21.5440013300
  - # 8
    frequency:    24.7088426822
  - # 9
    frequency:    43.3190306508
  - # 10
    frequency:    43.4643031533
  - # 11
    frequency:    44.3196727775
  - # 12
    frequency:    44.3458499560

- q-position: [   -0.1111111,    0.1111111,    0.1250000 ]
  weight: 4    
  band:
  - # 1
    frequency:     2.0040680768
  - # 2
    frequency:     5.6410069370
  - # 3
    frequency:     5.7598534091
  - # 4
    frequency:     6.0925507341
  - # 5
    frequency:    11.6232865000
  - # 6
    frequency:    11.6984812578
  - # 7
    frequency:    22.0835869109
  - # 8
    frequency:    25.7480443489
  - # 9
    frequency:    43.5288998020
  - # 10
    frequency:    43.7972301826
  - # 11
    frequency:    44.0461446522
  - # 12
    frequency:    44.1469732320

- q-position: [    0.2222222,    0.2222222,    0.1250000 ]
  weight: 4    
  band:
  - # 1
    frequency:    13.0885664350
  - # 2
    frequency:    13.3840688946
  - # 3
    frequency:    19.3837393713
  - # 4
    frequency:    20.1226185751
  - # 5
    frequency:    21.6596880671
  - # 6
    frequency:    21.6656113051
  - # 7
    frequency:    31.9960798038
  - # 8
    frequency:    32.0711760365
  - # 9
    frequency:    42.8549683059
  - # 10
    frequency:    42.9131505849
  - # 11
    frequency:    43.2480382637
  - # 12
    frequency:    43.2888097136

- q-position: [    0.3333333,    0.2222222,    0.1250000 ]
  weight: 8    
  band:
  - # 1
    frequency:    15.0688225795
  - # 2
    frequency:    15.3902402568
  - # 3
    frequency:    18.0018299927
  - # 4
    frequency:    18.1992061536
  - # 5
    frequency:    25.5496355921
  - # 6
    frequency:    25.5588870597
  - # 7
    frequency:    36.1195892840
  - # 8
    frequency:    36.1644370797
  - # 9
    frequency:    40.1099410731
  - # 10
    frequency:    40.1266898140
  - # 11
    frequency:    43.4814918375
  - # 12
    frequency:    43.5290486118

- q-position: [   -0.5555556,    0.2222222,    0.1250000 ]
  weight: 8    
  band:
  - # 1
    frequency:    14.1959118788
  - # 2
    frequency:    15.3887634055
  - # 3
    frequency:    18.3293536924
  - # 4
    frequency:    18.5813683933
  - # 5
    frequency:    25.6822576683
  - # 6
    frequency:    25.7107600484
  - # 7
    frequency:    36.2461887332
  - # 8
    frequency:    36.2764584044
  - # 9
    frequency:    39.9438354040
  - # 10
    frequency:    39.9726137083
  - # 11
    frequency:    43.4431807151
  - # 12
    frequency:    43.4789185075

- q-position: [   -0.4444444,    0.2222222,    0.1250000 ]
  weight: 8    
  band:
  - # 1
    frequency:    11.6851800745
  - # 2
    frequency:    13.4515418478
  - # 3
    frequency:    19.4920551991
  - # 4
    frequency:    20.8467737434
  - # 5
    frequency:    21.9284515756
  - # 6
    frequency:    21.9772117516
  - # 7
    frequency:    32.1705587057
  - # 8
    frequency:    32.2003226277
  - # 9
    frequency:    42.6892143176
  - # 10
    frequency:    42.7238327991
  - # 11
    frequency:    43.1295157752
  - # 12
    frequency:    43.1973403560

- q-position: [   -0.3333333,    0.2222222,    0.1250000 ]
  weight: 8    
  band:
  - # 1
    frequency:     8.8325081779
  - # 2
    frequency:    11.1690572851
  - # 3
    frequency:    16.0960804071
  - # 4
    frequency:    16.1845720367
  - # 5
    frequency:    20.5453517572
  - # 6
    frequency:    22.9313116686
  - # 7
    frequency:    27.5381480821
  - # 8
    frequency:    27.5465125796
  - # 9
    frequency:    42.8906431947
  - # 10
    frequency:    43.0509214566
  - # 11
    frequency:    44.0947169265
  - # 12
    frequency:    44.1721484100

- q-position: [   -0.2222222,    0.2222222,    0.1250000 ]
  weight: 4    
  band:
  - # 1
    frequency:     6.2148600971
  - # 2
    frequency:     9.1596735592
  - # 3
    frequency:    11.5118715194
  - # 4
    frequency:    11.6882743759
  - # 5
    frequency:    21.2772874594
  - # 6
    frequency:    22.3310114172
  - # 7
    frequency:    22.3684247869
  - # 8
    frequency:    24.3245184121
  - # 9
    frequency:    43.0340808467
  - # 10
    frequency:    43.2581471308
  - # 11
    frequency:    44.3770012948
  - # 12
    frequency:    44.4811498468

- q-position: [   -0.6666667,    0.3333333,    0.1250000 ]
  weight: 4    
  band:
  - # 1
    frequency:    16.1037177988
  - # 2
    frequency:    16.4288660629
  - # 3
    frequency:    16.9466749985
  - # 4
    frequency:    17.2920500757
  - # 5
    frequency:    29.1456407765
  - # 6
    frequency:    29.1777557584
  - # 7
    frequency:    37.2106942524
  - # 8
    frequency:    37.2235884882
  - # 9
    frequency:    37.2735331192
  - # 10
    frequency:    37.2793204549
  - # 11
    frequency:    43.8475310604
  - # 12
    frequency:    43.8830991303

- q-position: [   -0.5555556,    0.3333333,    0.1250000 ]
  weight: 8    
  band:
  - # 1
    frequency:    14.3238408546
  - # 2
    frequency:    15.2360598601
  - # 3
    frequency:    18.2795690210
  - # 4
    frequency:    18.6728854237
  - # 5
    frequency:    25.7192639869
  - # 6
    frequency:    25.7553992901
  - # 7
    frequency:    36.2038790771
  - # 8
    frequency:    36.2184225566
  - # 9
    frequency:    39.9562535858
  - # 10
    frequency:    39.9838946934
  - # 11
    frequency:    43.4446253053
  - # 12
    frequency:    43.4650671649

- q-position: [   -0.4444444,    0.3333333,    0.1250000 ]
  weight: 8    
  band:
  - # 1
    frequency:    12.3129727111
  - # 2
    frequency:    13.5991924016
  - # 3
    frequency:    19.2720769160
  - # 4
    frequency:    19.8581925093
  - # 5
    frequency:    19.8977267476
  - # 6
    frequency:    20.5697363637
  - # 7
    frequency:    34.5437435931
  - # 8
    frequency:    34.5776712695
  - # 9
    frequency:    42.2272191883
  - # 10
    frequency:    42.3063337279
  - # 11
    frequency:    43.0750807252
  - # 12
    frequency:    43.1442597555

- q-position: [   -0.3333333,    0.3333333,    0.1250000 ]
  weight: 4    
  band:
  - # 1
    frequency:    10.2362761994
  - # 2
    frequency:    12.0772320517
  - # 3
    frequency:    15.9810068757
  - # 4
    frequency:    16.0561953103
  - # 5
    frequency:    20.0692899483
  - # 6
    frequency:    22.1300377222
  - # 7
    frequency:    31.2661547474
  - # 8
    frequency:    31.3062233155
  - # 9
    frequency:    42.3780756752
  - # 10
    frequency:    42.5302943906
  - # 11
    frequency:    44.0126128781
  - # 12
    frequency:    44.1121418621

- q-position: [   -0.5555556,    0.4444444,    0.1250000 ]
  weight: 4    
  band:
  - # 1
    frequency:    14.3680735355
  - # 2
    frequency:    14.8004051579
  - # 3
    frequency:    18.6259115247
  - # 4
    frequency:    18.7322690245
  - # 5
    frequency:    21.2320988984
  - # 6
    frequency:    21.2446045340
  - # 7
    frequency:    39.4449169132
  - # 8
    frequency:    39.4707811914
  - # 9
    frequency:    39.6784397829
  - # 10
    frequency:    39.7492659129
  - # 11
    frequency:    42.6098477844
  - # 12
    frequency:    42.6110365461

- q-position: [   -0.4444444,    0.4444444,    0.1250000 ]
  weight: 4    
  band:
  - # 1
    frequency:    13.5425985189
  - # 2
    frequency:    14.1671766141
  - # 3
    frequency:    18.4957832586
  - # 4
    frequency:    18.5159289503
  - # 5
    frequency:    18.8954882628
  - # 6
    frequency:    19.6593293482
  - # 7
    frequency:    37.8940964355
  - # 8
    frequency:    37.9519238957
  - # 9
    frequency:    41.8933524816
  - # 10
    frequency:    41.9511981128
  - # 11
    frequency:    42.0734440332
  - # 12
    frequency:    42.1603926415

- q-position: [    0.0000000,    0.0000000,    0.3750000 ]
  weight: 2    
  band:
  - # 1
    frequency:    -2.6415981038
  - # 2
    frequency:    -2.1447841539
  - # 3
    frequency:    -1.6244257206
  - # 4
    frequency:    -1.3689731299
  - # 5
    frequency:     2.4036071674
  - # 6
    frequency:     3.4680576330
  - # 7
    frequency:    24.9333107372
  - # 8
    frequency:    26.5220615827
  - # 9
    frequency:    42.8165608602
  - # 10
    frequency:    42.9366490501
  - # 11
    frequency:    43.0854120191
  - # 12
    frequency:    43.1267865772

- q-position: [    0.1111111,    0.0000000,    0.3750000 ]
  weight: 8    
  band:
  - # 1
    frequency:     4.5618856549
  - # 2
    frequency:     5.4186118939
  - # 3
    frequency:     5.8528938197
  - # 4
    frequency:     5.8735560661
  - # 5
    frequency:    11.2787419750
  - # 6
    frequency:    11.3536994039
  - # 7
    frequency:    24.4289238498
  - # 8
    frequency:    25.8923959225
  - # 9
    frequency:    42.9217209896
  - # 10
    frequency:    42.9544368441
  - # 11
    frequency:    43.3145461851
  - # 12
    frequency:    43.3569785706

- q-position: [    0.2222222,    0.0000000,    0.3750000 ]
  weight: 8    
  band:
  - # 1
    frequency:     7.9756705387
  - # 2
    frequency:     8.6950115452
  - # 3
    frequency:    11.5594478521
  - # 4
    frequency:    11.5709382138
  - # 5
    frequency:    22.0617713625
  - # 6
    frequency:    22.1079175018
  - # 7
    frequency:    23.0333231220
  - # 8
    frequency:    24.1481791656
  - # 9
    frequency:    42.6751291271
  - # 10
    frequency:    42.6944576904
  - # 11
    frequency:    43.9708523562
  - # 12
    frequency:    44.0250454134

- q-position: [    0.3333333,    0.0000000,    0.3750000 ]
  weight: 8    
  band:
  - # 1
    frequency:    11.2082367020
  - # 2
    frequency:    11.7618748155
  - # 3
    frequency:    15.9961271586
  - # 4
    frequency:    16.0002808914
  - # 5
    frequency:    21.0781274788
  - # 6
    frequency:    21.7064697016
  - # 7
    frequency:    31.1122120386
  - # 8
    frequency:    31.1488732270
  - # 9
    frequency:    42.2557515952
  - # 10
    frequency:    42.2738871847
  - # 11
    frequency:    43.9239514297
  - # 12
    frequency:    43.9653059384

- q-position: [    0.4444444,    0.0000000,    0.3750000 ]
  weight: 8    
  band:
  - # 1
    frequency:    13.7831815274
  - # 2
    frequency:    14.0469185097
  - # 3
    frequency:    18.5052294139
  - # 4
    frequency:    18.5057518689
  - # 5
    frequency:    19.2098626882
  - # 6
    frequency:    19.3703463274
  - # 7
    frequency:    37.8786346533
  - # 8
    frequency:    37.9092491426
  - # 9
    frequency:    41.9015586620
  - # 10
    frequency:    41.9109394408
  - # 11
    frequency:    42.1198835635
  - # 12
    frequency:    42.1543725392

- q-position: [    0.1111111,    0.1111111,    0.3750000 ]
  weight: 4    
  band:
  - # 1
    frequency:     7.5271623986
  - # 2
    frequency:     7.8872677602
  - # 3
    frequency:    10.5594859433
  - # 4
    frequency:    10.5735181747
  - # 5
    frequency:    18.8997008972
  - # 6
    frequency:    18.9646622518
  - # 7
    frequency:    23.4109105229
  - # 8
    frequency:    24.6024744674
  - # 9
    frequency:    42.9487534126
  - # 10
    frequency:    42.9674041240
  - # 11
    frequency:    43.7113146497
  - # 12
    frequency:    43.7943858070

- q-position: [    0.2222222,    0.1111111,    0.3750000 ]
  weight: 8    
  band:
  - # 1
    frequency:    10.6083255625
  - # 2
    frequency:    10.9044010982
  - # 3
    frequency:    15.8614436271
  - # 4
    frequency:    15.8628405638
  - # 5
    frequency:    21.6637897842
  - # 6
    frequency:    22.4148719265
  - # 7
    frequency:    27.2572149267
  - # 8
    frequency:    27.3000150315
  - # 9
    frequency:    42.7811664746
  - # 10
    frequency:    42.7955639231
  - # 11
    frequency:    43.9363534946
  - # 12
    frequency:    43.9838861650

- q-position: [    0.3333333,    0.1111111,    0.3750000 ]
  weight: 8    
  band:
  - # 1
    frequency:    13.3328681037
  - # 2
    frequency:    13.5175441832
  - # 3
    frequency:    19.6427734889
  - # 4
    frequency:    19.7063834126
  - # 5
    frequency:    19.7094911292
  - # 6
    frequency:    19.9074630614
  - # 7
    frequency:    34.3834482473
  - # 8
    frequency:    34.4142911301
  - # 9
    frequency:    42.2762130972
  - # 10
    frequency:    42.2959772514
  - # 11
    frequency:    43.1644754075
  - # 12
    frequency:    43.1940694699

- q-position: [   -0.5555556,    0.1111111,    0.3750000 ]
  weight: 8    
  band:
  - # 1
    frequency:    14.4766328112
  - # 2
    frequency:    14.7473636147
  - # 3
    frequency:    18.5799477213
  - # 4
    frequency:    18.6171227088
  - # 5
    frequency:    21.2181265522
  - # 6
    frequency:    21.2212760423
  - # 7
    frequency:    39.4438982696
  - # 8
    frequency:    39.4572854095
  - # 9
    frequency:    39.7724632590
  - # 10
    frequency:    39.7996796094
  - # 11
    frequency:    42.6331117761
  - # 12
    frequency:    42.6458340667

- q-position: [   -0.4444444,    0.1111111,    0.3750000 ]
  weight: 8    
  band:
  - # 1
    frequency:    12.5069028057
  - # 2
    frequency:    13.1397639282
  - # 3
    frequency:    19.9713262544
  - # 4
    frequency:    19.9944009499
  - # 5
    frequency:    20.0026616473
  - # 6
    frequency:    20.3727790164
  - # 7
    frequency:    34.5693139264
  - # 8
    frequency:    34.5967477324
  - # 9
    frequency:    42.1365957500
  - # 10
    frequency:    42.1516256698
  - # 11
    frequency:    43.0086724582
  - # 12
    frequency:    43.0493717353

- q-position: [   -0.3333333,    0.1111111,    0.3750000 ]
  weight: 8    
  band:
  - # 1
    frequency:     9.5491149027
  - # 2
    frequency:    10.4628307243
  - # 3
    frequency:    16.3032654196
  - # 4
    frequency:    16.3235573300
  - # 5
    frequency:    21.9436642754
  - # 6
    frequency:    22.8376743030
  - # 7
    frequency:    27.4612488190
  - # 8
    frequency:    27.4887361931
  - # 9
    frequency:    42.5896000547
  - # 10
    frequency:    42.6124549143
  - # 11
    frequency:    43.8250495175
  - # 12
    frequency:    43.8592881117

- q-position: [   -0.2222222,    0.1111111,    0.3750000 ]
  weight: 8    
  band:
  - # 1
    frequency:     6.3420312311
  - # 2
    frequency:     7.5519937559
  - # 3
    frequency:    10.9140266438
  - # 4
    frequency:    10.9707254424
  - # 5
    frequency:    19.1934098043
  - # 6
    frequency:    19.2036023162
  - # 7
    frequency:    23.5863124889
  - # 8
    frequency:    24.8826966437
  - # 9
    frequency:    42.7022778405
  - # 10
    frequency:    42.7690437870
  - # 11
    frequency:    43.7454530920
  - # 12
    frequency:    43.7571424764

- q-position: [   -0.1111111,    0.1111111,    0.3750000 ]
  weight: 4    
  band:
  - # 1
    frequency:     3.8228729123
  - # 2
    frequency:     5.2733782992
  - # 3
    frequency:     5.6926978035
  - # 4
    frequency:     5.8820754640
  - # 5
    frequency:    11.6237001476
  - # 6
    frequency:    11.6554625865
  - # 7
    frequency:    24.4882058158
  - # 8
    frequency:    25.9900259830
  - # 9
    frequency:    42.7338622570
  - # 10
    frequency:    42.8473844044
  - # 11
    frequency:    43.3802284745
  - # 12
    frequency:    43.4228055753

- q-position: [    0.2222222,    0.2222222,    0.3750000 ]
  weight: 4    
  band:
  - # 1
    frequency:    13.1900615501
  - # 2
    frequency:    13.3124578926
  - # 3
    frequency:    19.7956323012
  - # 4
    frequency:    20.0987957603
  - # 5
    frequency:    21.6444201214
  - # 6
    frequency:    21.6468694421
  - # 7
    frequency:    31.9967472166
  - # 8
    frequency:    32.0277683444
  - # 9
    frequency:    42.7768111362
  - # 10
    frequency:    42.8009477035
  - # 11
    frequency:    43.1904043707
  - # 12
    frequency:    43.2073788062

- q-position: [    0.3333333,    0.2222222,    0.3750000 ]
  weight: 8    
  band:
  - # 1
    frequency:    15.1736634032
  - # 2
    frequency:    15.3162453154
  - # 3
    frequency:    17.9306707143
  - # 4
    frequency:    18.0076541831
  - # 5
    frequency:    25.5732173629
  - # 6
    frequency:    25.5770346171
  - # 7
    frequency:    36.1465755635
  - # 8
    frequency:    36.1652746161
  - # 9
    frequency:    40.1767543091
  - # 10
    frequency:    40.1835981000
  - # 11
    frequency:    43.5287312864
  - # 12
    frequency:    43.5483326902

- q-position: [   -0.5555556,    0.2222222,    0.3750000 ]
  weight: 8    
  band:
  - # 1
    frequency:    14.3144945582
  - # 2
    frequency:    14.8207603703
  - # 3
    frequency:    18.4710555829
  - # 4
    frequency:    18.5806513369
  - # 5
    frequency:    25.7997779725
  - # 6
    frequency:    25.8114690327
  - # 7
    frequency:    36.3370306871
  - # 8
    frequency:    36.3492652966
  - # 9
    frequency:    39.9288142407
  - # 10
    frequency:    39.9410361870
  - # 11
    frequency:    43.4567559978
  - # 12
    frequency:    43.4713903395

- q-position: [   -0.4444444,    0.2222222,    0.3750000 ]
  weight: 8    
  band:
  - # 1
    frequency:    11.9018793552
  - # 2
    frequency:    12.6508726819
  - # 3
    frequency:    20.2916077279
  - # 4
    frequency:    20.8448870999
  - # 5
    frequency:    22.1173503093
  - # 6
    frequency:    22.1371594085
  - # 7
    frequency:    32.2346013391
  - # 8
    frequency:    32.2468427550
  - # 9
    frequency:    42.5353800203
  - # 10
    frequency:    42.5499337413
  - # 11
    frequency:    42.9929638146
  - # 12
    frequency:    43.0209336105

- q-position: [   -0.3333333,    0.2222222,    0.3750000 ]
  weight: 8    
  band:
  - # 1
    frequency:     9.2670392376
  - # 2
    frequency:    10.2767499089
  - # 3
    frequency:    16.2471351908
  - # 4
    frequency:    16.2828901972
  - # 5
    frequency:    22.0098528851
  - # 6
    frequency:    22.9850940176
  - # 7
    frequency:    27.6237518438
  - # 8
    frequency:    27.6271485601
  - # 9
    frequency:    42.5439267100
  - # 10
    frequency:    42.6111737627
  - # 11
    frequency:    43.7611725436
  - # 12
    frequency:    43.7936988718

- q-position: [   -0.2222222,    0.2222222,    0.3750000 ]
  weight: 4    
  band:
  - # 1
    frequency:     6.9816773283
  - # 2
    frequency:     8.2530840906
  - # 3
    frequency:    11.6208628676
  - # 4
    frequency:    11.6929088546
  - # 5
    frequency:    22.4341098804
  - # 6
    frequency:    22.4492981532
  - # 7
    frequency:    23.2096434676
  - # 8
    frequency:    24.4556533330
  - # 9
    frequency:    42.4910203682
  - # 10
    frequency:    42.5853136029
  - # 11
    frequency:    43.8977828594
  - # 12
    frequency:    43.9415105069

- q-position: [   -0.6666667,    0.3333333,    0.3750000 ]
  weight: 4    
  band:
  - # 1
    frequency:    16.0332029507
  - # 2
    frequency:    16.2791367306
  - # 3
    frequency:    16.9547448049
  - # 4
    frequency:    16.9940064704
  - # 5
    frequency:    29.2433122042
  - # 6
    frequency:    29.2564906108
  - # 7
    frequency:    37.2684345707
  - # 8
    frequency:    37.2739787723
  - # 9
    frequency:    37.3502663203
  - # 10
    frequency:    37.3525585278
  - # 11
    frequency:    43.9069117019
  - # 12
    frequency:    43.9214186624

- q-position: [   -0.5555556,    0.3333333,    0.3750000 ]
  weight: 8    
  band:
  - # 1
    frequency:    14.3551753611
  - # 2
    frequency:    14.7488945956
  - # 3
    frequency:    18.4680989994
  - # 4
    frequency:    18.6245649767
  - # 5
    frequency:    25.8707331620
  - # 6
    frequency:    25.8855996784
  - # 7
    frequency:    36.2556544606
  - # 8
    frequency:    36.2614305958
  - # 9
    frequency:    39.9499607438
  - # 10
    frequency:    39.9614032599
  - # 11
    frequency:    43.4557930726
  - # 12
    frequency:    43.4642215539

- q-position: [   -0.4444444,    0.3333333,    0.3750000 ]
  weight: 8    
  band:
  - # 1
    frequency:    12.4510082565
  - # 2
    frequency:    13.0103761810
  - # 3
    frequency:    19.9558905563
  - # 4
    frequency:    19.9731676374
  - # 5
    frequency:    19.9826165643
  - # 6
    frequency:    20.5075522714
  - # 7
    frequency:    34.6355135831
  - # 8
    frequency:    34.6494134384
  - # 9
    frequency:    42.1334229739
  - # 10
    frequency:    42.1656053872
  - # 11
    frequency:    42.9530193726
  - # 12
    frequency:    42.9813989856

- q-position: [   -0.3333333,    0.3333333,    0.3750000 ]
  weight: 4    
  band:
  - # 1
    frequency:    10.5112558373
  - # 2
    frequency:    11.3200509695
  - # 3
    frequency:    16.0593842634
  - # 4
    frequency:    16.0900294680
  - # 5
    frequency:    21.2784192931
  - # 6
    frequency:    22.1197248075
  - # 7
    frequency:    31.3939700680
  - # 8
    frequency:    31.4105106615
  - # 9
    frequency:    42.1453646860
  - # 10
    frequency:    42.2089137155
  - # 11
    frequency:    43.7589845985
  - # 12
    frequency:    43.8005206940

- q-position: [   -0.5555556,    0.4444444,    0.3750000 ]
  weight: 4    
  band:
  - # 1
    frequency:    14.4389226252
  - # 2
    frequency:    14.6207853537
  - # 3
    frequency:    18.6593885801
  - # 4
    frequency:    18.7050831971
  - # 5
    frequency:    21.2910541825
  - # 6
    frequency:    21.2962217400
  - # 7
    frequency:    39.4522559999
  - # 8
    frequency:    39.4629235501
  - # 9
    frequency:    39.7154347480
  - # 10
    frequency:    39.7445821325
  - # 11
    frequency:    42.6157781886
  - # 12
    frequency:    42.6163954714

- q-position: [   -0.4444444,    0.4444444,    0.3750000 ]
  weight: 4    
  band:
  - # 1
    frequency:    13.6493337303
  - # 2
    frequency:    13.9224989830
  - # 3
    frequency:    18.5109620005
  - # 4
    frequency:    18.5192620581
  - # 5
    frequency:    19.2481890497
  - # 6
    frequency:    19.5581148959
  - # 7
    frequency:    37.9687763465
  - # 8
    frequency:    37.9926299566
  - # 9
    frequency:    41.8747596812
  - # 10
    frequency:    41.8987361402
  - # 11
    frequency:    42.0187900915
  - # 12
    frequency:    42.0549209295

