# Thermal properties / unit cell (natom)

unit:
  temperature:   K
  free_energy:   kJ/mol
  entropy:       J/K/mol
  heat_capacity: J/K/mol

natom:     4
num_modes: 3888
num_integrated_modes: 3874

zero_point_energy:      65.9075251
high_T_entropy:        229.4109940

thermal_properties:
- temperature:         0.0000000
  free_energy:        65.9075251
  entropy:             0.0000000
  heat_capacity:       0.0000000
  energy:             65.9075251

- temperature:        10.0000000
  free_energy:        65.9075134
  entropy:             0.0062410
  heat_capacity:       0.0228023
  energy:             65.9075758

- temperature:        20.0000000
  free_energy:        65.9072842
  entropy:             0.0440069
  heat_capacity:       0.0998945
  energy:             65.9081643

- temperature:        30.0000000
  free_energy:        65.9065556
  entropy:             0.1059245
  heat_capacity:       0.2263092
  energy:             65.9097333

- temperature:        40.0000000
  free_energy:        65.9050619
  entropy:             0.1990911
  heat_capacity:       0.4519350
  energy:             65.9130255

- temperature:        50.0000000
  free_energy:        65.9024300
  entropy:             0.3352078
  heat_capacity:       0.8023299
  energy:             65.9191904

- temperature:        60.0000000
  free_energy:        65.8981890
  entropy:             0.5218384
  heat_capacity:       1.2809685
  energy:             65.9294993

- temperature:        70.0000000
  free_energy:        65.8918101
  entropy:             0.7633800
  heat_capacity:       1.8907211
  energy:             65.9452467

- temperature:        80.0000000
  free_energy:        65.8827279
  entropy:             1.0629469
  heat_capacity:       2.6353230
  energy:             65.9677636

- temperature:        90.0000000
  free_energy:        65.8703500
  entropy:             1.4228253
  heat_capacity:       3.5150821
  energy:             65.9984043

- temperature:       100.0000000
  free_energy:        65.8540658
  entropy:             1.8443411
  heat_capacity:       4.5250655
  energy:             66.0384999

- temperature:       110.0000000
  free_energy:        65.8332568
  entropy:             2.3277333
  heat_capacity:       5.6554897
  energy:             66.0893075

- temperature:       120.0000000
  free_energy:        65.8073076
  entropy:             2.8721603
  heat_capacity:       6.8929750
  energy:             66.1519668

- temperature:       130.0000000
  free_energy:        65.7756161
  entropy:             3.4758158
  heat_capacity:       8.2219879
  energy:             66.2274721

- temperature:       140.0000000
  free_energy:        65.7376024
  entropy:             4.1361056
  heat_capacity:       9.6261995
  energy:             66.3166572

- temperature:       150.0000000
  free_energy:        65.6927157
  entropy:             4.8498508
  heat_capacity:      11.0896218
  energy:             66.4201934

- temperature:       160.0000000
  free_energy:        65.6404391
  entropy:             5.6134900
  heat_capacity:      12.5974496
  energy:             66.5385974

- temperature:       170.0000000
  free_energy:        65.5802922
  entropy:             6.4232609
  heat_capacity:      14.1365902
  energy:             66.6722465

- temperature:       180.0000000
  free_energy:        65.5118328
  entropy:             7.2753529
  heat_capacity:      15.6959087
  energy:             66.8213963

- temperature:       190.0000000
  free_energy:        65.4346565
  entropy:             8.1660247
  heat_capacity:      17.2662467
  energy:             66.9862012

- temperature:       200.0000000
  free_energy:        65.3483957
  entropy:             9.0916886
  heat_capacity:      18.8402850
  energy:             67.1667334

- temperature:       210.0000000
  free_energy:        65.2527174
  entropy:            10.0489650
  heat_capacity:      20.4123123
  energy:             67.3630000

- temperature:       220.0000000
  free_energy:        65.1473215
  entropy:            11.0347124
  heat_capacity:      21.9779550
  energy:             67.5749582

- temperature:       230.0000000
  free_energy:        65.0319379
  entropy:            12.0460384
  heat_capacity:      23.5339052
  energy:             67.8025268

- temperature:       240.0000000
  free_energy:        64.9063243
  entropy:            13.0802973
  heat_capacity:      25.0776709
  energy:             68.0455957

- temperature:       250.0000000
  free_energy:        64.7702636
  entropy:            14.1350785
  heat_capacity:      26.6073620
  energy:             68.3040332

- temperature:       260.0000000
  free_energy:        64.6235617
  entropy:            15.2081900
  heat_capacity:      28.1215166
  energy:             68.5776911

- temperature:       270.0000000
  free_energy:        64.4660453
  entropy:            16.2976389
  heat_capacity:      29.6189665
  energy:             68.8664078

- temperature:       280.0000000
  free_energy:        64.2975605
  entropy:            17.4016106
  heat_capacity:      31.0987377
  energy:             69.1700115

- temperature:       290.0000000
  free_energy:        64.1179703
  entropy:            18.5184502
  heat_capacity:      32.5599810
  energy:             69.4883208

- temperature:       300.0000000
  free_energy:        63.9271537
  entropy:            19.6466436
  heat_capacity:      34.0019262
  energy:             69.8211467

- temperature:       310.0000000
  free_energy:        63.7250042
  entropy:            20.7848014
  heat_capacity:      35.4238550
  energy:             70.1682926

- temperature:       320.0000000
  free_energy:        63.5114287
  entropy:            21.9316443
  heat_capacity:      36.8250858
  energy:             70.5295548

- temperature:       330.0000000
  free_energy:        63.2863463
  entropy:            23.0859905
  heat_capacity:      38.2049694
  energy:             70.9047232

- temperature:       340.0000000
  free_energy:        63.0496875
  entropy:            24.2467456
  heat_capacity:      39.5628894
  energy:             71.2935810

- temperature:       350.0000000
  free_energy:        62.8013934
  entropy:            25.4128926
  heat_capacity:      40.8982665
  energy:             71.6959058

- temperature:       360.0000000
  free_energy:        62.5414149
  entropy:            26.5834849
  heat_capacity:      42.2105639
  energy:             72.1114694

- temperature:       370.0000000
  free_energy:        62.2697119
  entropy:            27.7576397
  heat_capacity:      43.4992942
  energy:             72.5400385

- temperature:       380.0000000
  free_energy:        61.9862529
  entropy:            28.9345325
  heat_capacity:      44.7640241
  energy:             72.9813753

- temperature:       390.0000000
  free_energy:        61.6910146
  entropy:            30.1133926
  heat_capacity:      46.0043796
  energy:             73.4352378

- temperature:       400.0000000
  free_energy:        61.3839809
  entropy:            31.2934991
  heat_capacity:      47.2200492
  energy:             73.9013806

- temperature:       410.0000000
  free_energy:        61.0651428
  entropy:            32.4741777
  heat_capacity:      48.4107861
  energy:             74.3795556

- temperature:       420.0000000
  free_energy:        60.7344976
  entropy:            33.6547976
  heat_capacity:      49.5764087
  energy:             74.8695126

- temperature:       430.0000000
  free_energy:        60.3920490
  entropy:            34.8347691
  heat_capacity:      50.7168006
  energy:             75.3709997

- temperature:       440.0000000
  free_energy:        60.0378062
  entropy:            36.0135411
  heat_capacity:      51.8319086
  energy:             75.8837643

- temperature:       450.0000000
  free_energy:        59.6717839
  entropy:            37.1905994
  heat_capacity:      52.9217411
  energy:             76.4075536

- temperature:       460.0000000
  free_energy:        59.2940015
  entropy:            38.3654643
  heat_capacity:      53.9863644
  energy:             76.9421151

- temperature:       470.0000000
  free_energy:        58.9044834
  entropy:            39.5376891
  heat_capacity:      55.0258998
  energy:             77.4871973

- temperature:       480.0000000
  free_energy:        58.5032579
  entropy:            40.7068585
  heat_capacity:      56.0405194
  energy:             78.0425500

- temperature:       490.0000000
  free_energy:        58.0903577
  entropy:            41.8725870
  heat_capacity:      57.0304420
  energy:             78.6079253

- temperature:       500.0000000
  free_energy:        57.6658189
  entropy:            43.0345171
  heat_capacity:      57.9959292
  energy:             79.1830774

- temperature:       510.0000000
  free_energy:        57.2296811
  entropy:            44.1923183
  heat_capacity:      58.9372806
  energy:             79.7677634

- temperature:       520.0000000
  free_energy:        56.7819873
  entropy:            45.3456854
  heat_capacity:      59.8548300
  energy:             80.3617437

- temperature:       530.0000000
  free_energy:        56.3227831
  entropy:            46.4943373
  heat_capacity:      60.7489412
  energy:             80.9647819

- temperature:       540.0000000
  free_energy:        55.8521171
  entropy:            47.6380159
  heat_capacity:      61.6200040
  energy:             81.5766457

- temperature:       550.0000000
  free_energy:        55.3700402
  entropy:            48.7764843
  heat_capacity:      62.4684303
  energy:             82.1971065

- temperature:       560.0000000
  free_energy:        54.8766055
  entropy:            49.9095263
  heat_capacity:      63.2946511
  energy:             82.8259403

- temperature:       570.0000000
  free_energy:        54.3718684
  entropy:            51.0369450
  heat_capacity:      64.0991127
  energy:             83.4629270

- temperature:       580.0000000
  free_energy:        53.8558860
  entropy:            52.1585613
  heat_capacity:      64.8822737
  energy:             84.1078515

- temperature:       590.0000000
  free_energy:        53.3287171
  entropy:            53.2742136
  heat_capacity:      65.6446024
  energy:             84.7605031

- temperature:       600.0000000
  free_energy:        52.7904221
  entropy:            54.3837561
  heat_capacity:      66.3865743
  energy:             85.4206757

- temperature:       610.0000000
  free_energy:        52.2410627
  entropy:            55.4870583
  heat_capacity:      67.1086693
  energy:             86.0881683

- temperature:       620.0000000
  free_energy:        51.6807021
  entropy:            56.5840038
  heat_capacity:      67.8113702
  energy:             86.7627844

- temperature:       630.0000000
  free_energy:        51.1094042
  entropy:            57.6744896
  heat_capacity:      68.4951604
  energy:             87.4443327

- temperature:       640.0000000
  free_energy:        50.5272341
  entropy:            58.7584252
  heat_capacity:      69.1605223
  energy:             88.1326262

- temperature:       650.0000000
  free_energy:        49.9342578
  entropy:            59.8357315
  heat_capacity:      69.8079360
  energy:             88.8274833

- temperature:       660.0000000
  free_energy:        49.3305418
  entropy:            60.9063407
  heat_capacity:      70.4378777
  energy:             89.5287267

- temperature:       670.0000000
  free_energy:        48.7161535
  entropy:            61.9701950
  heat_capacity:      71.0508188
  energy:             90.2361842

- temperature:       680.0000000
  free_energy:        48.0911606
  entropy:            63.0272461
  heat_capacity:      71.6472248
  energy:             90.9496880

- temperature:       690.0000000
  free_energy:        47.4556314
  entropy:            64.0774546
  heat_capacity:      72.2275544
  energy:             91.6690751

- temperature:       700.0000000
  free_energy:        46.8096344
  entropy:            65.1207894
  heat_capacity:      72.7922590
  energy:             92.3941870

- temperature:       710.0000000
  free_energy:        46.1532386
  entropy:            66.1572268
  heat_capacity:      73.3417818
  energy:             93.1248696

- temperature:       720.0000000
  free_energy:        45.4865129
  entropy:            67.1867507
  heat_capacity:      73.8765574
  energy:             93.8609735

- temperature:       730.0000000
  free_energy:        44.8095266
  entropy:            68.2093512
  heat_capacity:      74.3970116
  energy:             94.6023531

- temperature:       740.0000000
  free_energy:        44.1223490
  entropy:            69.2250248
  heat_capacity:      74.9035605
  energy:             95.3488673

- temperature:       750.0000000
  free_energy:        43.4250492
  entropy:            70.2337734
  heat_capacity:      75.3966112
  energy:             96.1003793

- temperature:       760.0000000
  free_energy:        42.7176966
  entropy:            71.2356043
  heat_capacity:      75.8765605
  energy:             96.8567559

- temperature:       770.0000000
  free_energy:        42.0003602
  entropy:            72.2305298
  heat_capacity:      76.3437957
  energy:             97.6178681

- temperature:       780.0000000
  free_energy:        41.2731090
  entropy:            73.2185663
  heat_capacity:      76.7986941
  energy:             98.3835907

- temperature:       790.0000000
  free_energy:        40.5360117
  entropy:            74.1997346
  heat_capacity:      77.2416228
  energy:             99.1538021

- temperature:       800.0000000
  free_energy:        39.7891371
  entropy:            75.1740592
  heat_capacity:      77.6729392
  energy:             99.9283844

- temperature:       810.0000000
  free_energy:        39.0325533
  entropy:            76.1415680
  heat_capacity:      78.0929907
  energy:            100.7072233

- temperature:       820.0000000
  free_energy:        38.2663283
  entropy:            77.1022921
  heat_capacity:      78.5021149
  energy:            101.4902078

- temperature:       830.0000000
  free_energy:        37.4905299
  entropy:            78.0562655
  heat_capacity:      78.9006397
  energy:            102.2772303

- temperature:       840.0000000
  free_energy:        36.7052254
  entropy:            79.0035249
  heat_capacity:      79.2888833
  energy:            103.0681863

- temperature:       850.0000000
  free_energy:        35.9104817
  entropy:            79.9441095
  heat_capacity:      79.6671547
  energy:            103.8629747

- temperature:       860.0000000
  free_energy:        35.1063653
  entropy:            80.8780603
  heat_capacity:      80.0357535
  energy:            104.6614972

- temperature:       870.0000000
  free_energy:        34.2929424
  entropy:            81.8054208
  heat_capacity:      80.3949700
  energy:            105.4636585

- temperature:       880.0000000
  free_energy:        33.4702787
  entropy:            82.7262358
  heat_capacity:      80.7450860
  energy:            106.2693663

- temperature:       890.0000000
  free_energy:        32.6384394
  entropy:            83.6405522
  heat_capacity:      81.0863742
  energy:            107.0785308

- temperature:       900.0000000
  free_energy:        31.7974892
  entropy:            84.5484178
  heat_capacity:      81.4190991
  energy:            107.8910652

- temperature:       910.0000000
  free_energy:        30.9474924
  entropy:            85.4498821
  heat_capacity:      81.7435168
  energy:            108.7068851

- temperature:       920.0000000
  free_energy:        30.0885127
  entropy:            86.3449956
  heat_capacity:      82.0598753
  energy:            109.5259087

- temperature:       930.0000000
  free_energy:        29.2206135
  entropy:            87.2338098
  heat_capacity:      82.3684146
  energy:            110.3480565

- temperature:       940.0000000
  free_energy:        28.3438573
  entropy:            88.1163770
  heat_capacity:      82.6693673
  energy:            111.1732517

- temperature:       950.0000000
  free_energy:        27.4583066
  entropy:            88.9927503
  heat_capacity:      82.9629583
  energy:            112.0014194

- temperature:       960.0000000
  free_energy:        26.5640228
  entropy:            89.8629836
  heat_capacity:      83.2494056
  energy:            112.8324870

- temperature:       970.0000000
  free_energy:        25.6610672
  entropy:            90.7271311
  heat_capacity:      83.5289198
  energy:            113.6663844

- temperature:       980.0000000
  free_energy:        24.7495003
  entropy:            91.5852477
  heat_capacity:      83.8017050
  energy:            114.5030430

- temperature:       990.0000000
  free_energy:        23.8293821
  entropy:            92.4373884
  heat_capacity:      84.0679586
  energy:            115.3423967

- temperature:      1000.0000000
  free_energy:        22.9007723
  entropy:            93.2836088
  heat_capacity:      84.3278715
  energy:            116.1843810
