   32   32    1    1
  0.8555981E+01  0.4932875E-09  0.4932875E-09  0.1299823E-08  0.5000000E-15
  1.000000000000000E-004
  CAR 
 graphite                                
    128    163     84
 
  0.0000000E+00  0.0000000E+00  0.0000000E+00  0.3086420E-02
    1      -14.705667
    2      -14.522733
    3      -14.522081
    4      -14.323289
    5       -9.362106
    6       -9.352020
    7       -9.348918
    8       -9.283079
    9       -9.281363
   10       -9.271067
   11       -9.269622
   12       -9.269603
   13       -9.265450
   14       -9.219668
   15       -9.206233
   16       -9.203794
   17       -8.269275
   18       -8.267656
   19       -8.266799
   20       -8.232743
   21       -8.231722
   22       -8.229550
   23       -8.229187
   24       -8.229173
   25       -8.226433
   26       -8.161489
   27       -8.160555
   28       -8.157978
   29       -3.680344
   30       -2.649171
   31       -2.647203
   32       -1.443394
   33       -1.440995
   34       -1.425377
   35       -1.406170
   36       -1.405152
   37       -1.405143
   38       -1.401034
   39       -1.388465
   40       -1.386470
   41       -1.375819
   42       -1.367562
   43       -1.364740
   44       -1.349487
   45        1.960800
   46        1.969192
   47        1.972375
   48        1.977766
   49        1.983395
   50        1.988547
   51        1.991776
   52        1.999814
   53        2.110133
   54        2.112719
   55        2.114578
   56        2.601743
   57        2.604420
   58        2.611646
   59        2.612011
   60        2.612139
   61        2.616210
   62        2.906055
   63        2.925972
   64        2.927575
   65        6.495639
   66        6.497746
   67        6.505690
   68        6.609007
   69        6.612361
   70        6.614529
   71        6.616758
   72        6.617136
   73        6.621133
   74        7.240367
   75        7.247042
   76        7.250464
   77        9.555076
   78       12.112941
   79       12.117631
   80       12.148577
   81       12.354037
   82       12.357204
   83       12.358693
   84       12.383259
 
  0.1111111E+00 -0.2081668E-16  0.0000000E+00  0.6172840E-02
    1      -14.631824
    2      -14.449604
    3      -14.448956
    4      -14.251069
    5      -10.158787
    6      -10.026395
    7      -10.025720
    8       -9.886616
    9       -9.617049
   10       -9.608249
   11       -9.502572
   12       -9.501616
   13       -9.492871
   14       -9.491891
   15       -9.386499
   16       -9.376151
   17       -7.979990
   18       -7.976214
   19       -7.891155
   20       -7.888873
   21       -7.885748
   22       -7.884655
   23       -7.786395
   24       -7.781534
   25       -7.469407
   26       -7.365547
   27       -7.363965
   28       -7.253289
   29       -3.590689
   30       -2.562209
   31       -2.560245
   32       -1.670523
   33       -1.653426
   34       -1.629132
   35       -1.628945
   36       -1.612749
   37       -1.610788
   38       -1.586753
   39       -1.569635
   40       -1.368681
   41       -1.332712
   42       -1.329714
   43       -1.293559
   44       -1.292797
   45        1.503151
   46        1.664617
   47        1.681425
   48        1.685958
   49        1.701971
   50        1.805545
   51        1.820105
   52        1.825025
   53        1.840538
   54        1.986075
   55        1.989975
   56        2.184966
   57        2.187628
   58        2.550054
   59        2.552684
   60        2.559567
   61        2.560493
   62        2.841849
   63        2.981070
   64        2.998375
   65        6.554760
   66        6.560586
   67        6.741882
   68        6.745824
   69        6.747367
   70        6.751847
   71        6.806418
   72        7.153886
   73        7.158483
   74        7.376965
   75        7.384962
   76        7.858232
   77        9.642401
   78       12.157029
   79       12.394777
   80       12.396146
   81       12.449352
   82       12.483214
   83       12.519715
   84       12.593717
 
  0.2222222E+00 -0.4163336E-16  0.0000000E+00  0.6172840E-02
    1      -14.410566
    2      -14.230615
    3      -14.229979
    4      -14.034711
    5      -11.173852
    6      -11.026920
    7      -11.026386
    8      -10.870053
    9       -9.967110
   10       -9.961186
   11       -9.837393
   12       -9.836802
   13       -9.831191
   14       -9.830124
   15       -9.700310
   16       -9.693832
   17       -7.303114
   18       -7.295915
   19       -7.203263
   20       -7.201099
   21       -7.195070
   22       -7.194147
   23       -7.094070
   24       -7.086627
   25       -6.142055
   26       -6.044287
   27       -6.042791
   28       -5.940467
   29       -3.322357
   30       -2.302325
   31       -2.300374
   32       -2.280213
   33       -2.264125
   34       -2.229791
   35       -2.229619
   36       -2.214430
   37       -2.212511
   38       -2.177437
   39       -2.161348
   40       -1.153453
   41       -1.118158
   42       -1.115075
   43       -1.079599
   44       -1.044835
   45        0.466735
   46        0.835655
   47        0.863122
   48        0.867332
   49        0.894708
   50        1.295295
   51        1.297465
   52        1.383289
   53        1.403840
   54        1.408733
   55        1.429896
   56        1.752970
   57        1.757055
   58        2.239983
   59        2.429035
   60        2.431625
   61        2.436836
   62        2.437822
   63        3.081602
   64        3.093989
   65        6.764796
   66        6.767055
   67        7.077024
   68        7.080396
   69        7.082650
   70        7.086642
   71        7.680288
   72        7.685540
   73        7.894690
   74        8.377438
   75        8.381278
   76        9.069382
   77        9.905192
   78       12.276939
   79       12.506182
   80       12.507883
   81       12.718290
   82       12.722164
   83       12.725013
   84       13.336753
 
  0.3333333E+00  0.0000000E+00  0.0000000E+00  0.6172840E-02
    1      -14.043243
    2      -13.866860
    3      -13.866245
    4      -13.675343
    5      -12.089482
    6      -11.932910
    7      -11.932367
    8      -11.764422
    9      -10.224699
   10      -10.220999
   11      -10.089228
   12      -10.088614
   13      -10.085424
   14      -10.084135
   15       -9.945307
   16       -9.941394
   17       -6.493340
   18       -6.484384
   19       -6.400727
   20       -6.398464
   21       -6.391050
   22       -6.389826
   23       -6.301297
   24       -6.292488
   25       -4.704945
   26       -4.619897
   27       -4.618154
   28       -4.529760
   29       -3.098351
   30       -3.084361
   31       -3.039782
   32       -3.039351
   33       -3.026426
   34       -3.024390
   35       -2.977915
   36       -2.963809
   37       -2.877928
   38       -1.872683
   39       -1.870724
   40       -0.803904
   41       -0.770074
   42       -0.766818
   43       -0.732386
   44       -0.636410
   45       -0.563475
   46       -0.353414
   47       -0.311984
   48       -0.308610
   49       -0.266937
   50        0.341888
   51        0.343845
   52        0.818338
   53        0.843994
   54        0.848469
   55        0.874512
   56        1.421321
   57        1.553353
   58        1.556615
   59        2.305304
   60        2.307998
   61        2.311141
   62        2.312169
   63        3.122752
   64        3.130245
   65        7.094313
   66        7.096944
   67        7.469597
   68        7.472007
   69        7.474250
   70        7.478001
   71        7.972162
   72        7.975329
   73        9.395761
   74        9.855939
   75        9.859490
   76       10.343367
   77       10.465056
   78       12.410557
   79       12.654741
   80       12.678710
   81       12.680682
   82       12.970822
   83       12.975304
   84       13.079761
 
  0.4444444E+00 -0.8326673E-16  0.0000000E+00  0.6172840E-02
    1      -13.531429
    2      -13.360260
    3      -13.359680
    4      -13.174834
    5      -12.878447
    6      -12.713793
    7      -12.713212
    8      -12.536147
    9      -10.357157
   10      -10.355095
   11      -10.219723
   12      -10.218709
   13      -10.217739
   14      -10.215930
   15      -10.072943
   16      -10.070808
   17       -5.736132
   18       -5.729205
   19       -5.668464
   20       -5.665987
   21       -5.661708
   22       -5.659042
   23       -5.598591
   24       -5.592540
   25       -3.843628
   26       -3.836057
   27       -3.797219
   28       -3.795462
   29       -3.789280
   30       -3.786891
   31       -3.741458
   32       -3.732956
   33       -3.220232
   34       -3.149390
   35       -3.147251
   36       -3.074182
   37       -2.262684
   38       -1.743825
   39       -1.688842
   40       -1.686056
   41       -1.627690
   42       -1.485353
   43       -1.278068
   44       -1.276277
   45       -0.533186
   46       -0.531294
   47       -0.336886
   48       -0.304623
   49       -0.301117
   50       -0.268700
   51       -0.075382
   52        0.219626
   53        0.249148
   54        0.253216
   55        0.283123
   56        0.621778
   57        1.443603
   58        1.445895
   59        2.231012
   60        2.234127
   61        2.235221
   62        2.236447
   63        3.128160
   64        3.131510
   65        7.367814
   66        7.370681
   67        7.738468
   68        7.739355
   69        7.740372
   70        7.744726
   71        8.126676
   72        8.129288
   73       10.953512
   74       11.028582
   75       11.395937
   76       11.399677
   77       11.722798
   78       11.904164
   79       12.636208
   80       12.749517
   81       12.783292
   82       12.790400
   83       12.890698
   84       12.891954
 
 -0.6776264E-20  0.1111111E+00  0.0000000E+00  0.6172840E-02
    1      -14.631823
    2      -14.449603
    3      -14.448953
    4      -14.251067
    5      -10.158896
    6      -10.026430
    7      -10.025942
    8       -9.886773
    9       -9.617029
   10       -9.607919
   11       -9.502507
   12       -9.501616
   13       -9.492861
   14       -9.491189
   15       -9.386473
   16       -9.375741
   17       -7.980375
   18       -7.977236
   19       -7.891180
   20       -7.890505
   21       -7.885807
   22       -7.885471
   23       -7.786720
   24       -7.782359
   25       -7.468356
   26       -7.364031
   27       -7.363475
   28       -7.252321
   29       -3.590693
   30       -2.562214
   31       -2.560252
   32       -1.669272
   33       -1.653382
   34       -1.629101
   35       -1.626319
   36       -1.612924
   37       -1.610788
   38       -1.585416
   39       -1.569717
   40       -1.369824
   41       -1.332720
   42       -1.332243
   43       -1.294986
   44       -1.292804
   45        1.502290
   46        1.668327
   47        1.685957
   48        1.686314
   49        1.703863
   50        1.803709
   51        1.820100
   52        1.820205
   53        1.836571
   54        1.986387
   55        1.990870
   56        2.184781
   57        2.185810
   58        2.550433
   59        2.552681
   60        2.559597
   61        2.562683
   62        2.840721
   63        2.981120
   64        2.999472
   65        6.552929
   66        6.560523
   67        6.741188
   68        6.744299
   69        6.747119
   70        6.750011
   71        6.808306
   72        7.156447
   73        7.159573
   74        7.376790
   75        7.382845
   76        7.860049
   77        9.642394
   78       12.156370
   79       12.394440
   80       12.395189
   81       12.450313
   82       12.484011
   83       12.519742
   84       12.566893
 
  0.1111111E+00  0.1111111E+00  0.0000000E+00  0.6172840E-02
    1      -14.484160
    2      -14.303417
    3      -14.302776
    4      -14.106646
    5      -10.626299
    6      -10.623233
    7      -10.487216
    8      -10.484519
    9      -10.484499
   10      -10.481014
   11      -10.336823
   12      -10.333688
   13       -9.172389
   14       -9.094413
   15       -9.093254
   16       -9.032493
   17       -8.082452
   18       -8.048596
   19       -8.044880
   20       -7.980577
   21       -6.785588
   22       -6.782232
   23       -6.684988
   24       -6.681188
   25       -6.681167
   26       -6.678336
   27       -6.575358
   28       -6.572039
   29       -3.411480
   30       -2.388622
   31       -2.386663
   32       -2.339693
   33       -2.289475
   34       -2.287444
   35       -2.235976
   36       -1.525562
   37       -1.523038
   38       -1.485322
   39       -1.484176
   40       -1.484167
   41       -1.479856
   42       -1.443163
   43       -1.440140
   44       -1.127156
   45        1.057241
   46        1.060110
   47        1.135628
   48        1.152538
   49        1.156922
   50        1.171678
   51        1.492487
   52        1.504127
   53        1.509262
   54        1.523902
   55        1.824654
   56        1.826099
   57        1.826221
   58        1.829904
   59        2.377210
   60        2.652548
   61        2.654919
   62        2.867851
   63        2.870164
   64        3.165509
   65        6.496716
   66        6.538581
   67        6.544152
   68        7.045958
   69        7.261415
   70        7.263997
   71        7.695915
   72        7.700857
   73        7.701415
   74        7.703306
   75        8.382419
   76        8.385320
   77        9.817840
   78       12.530089
   79       12.534239
   80       12.657855
   81       12.699361
   82       12.766102
   83       12.768401
   84       12.771569
 
  0.2222222E+00  0.1111111E+00  0.0000000E+00  0.6172840E-02
    1      -14.189766
    2      -14.011982
    3      -14.011359
    4      -13.818713
    5      -11.594605
    6      -11.443272
    7      -11.442739
    8      -11.281082
    9      -10.968223
   10      -10.823839
   11      -10.823218
   12      -10.669321
   13       -9.230035
   14       -9.119507
   15       -9.118965
   16       -9.008061
   17       -7.631205
   18       -7.548615
   19       -7.545516
   20       -7.450768
   21       -5.997129
   22       -5.903205
   23       -5.902493
   24       -5.804289
   25       -5.399438
   26       -5.308796
   27       -5.307300
   28       -5.212597
   29       -3.250895
   30       -3.190477
   31       -3.188514
   32       -3.125488
   33       -3.054999
   34       -2.054713
   35       -2.043702
   36       -2.041744
   37       -2.005908
   38       -2.005748
   39       -1.955443
   40       -1.237026
   41       -1.198731
   42       -1.195719
   43       -1.156856
   44       -0.798700
   45        0.004695
   46        0.177431
   47        0.205686
   48        0.210355
   49        0.237357
   50        0.716853
   51        0.874885
   52        0.876792
   53        0.945702
   54        0.964526
   55        0.970140
   56        0.990847
   57        1.537713
   58        1.539042
   59        1.895421
   60        2.473589
   61        2.505335
   62        3.070031
   63        3.072289
   64        3.498649
   65        6.447958
   66        6.548064
   67        6.553076
   68        6.982065
   69        7.826209
   70        8.270774
   71        8.273375
   72        8.596178
   73        8.855935
   74        9.069111
   75        9.072424
   76        9.695394
   77       10.169758
   78       12.676427
   79       12.911220
   80       12.912677
   81       12.925095
   82       12.929437
   83       13.041649
   84       13.501762
 
  0.3333333E+00  0.1111111E+00  0.0000000E+00  0.6172840E-02
    1      -13.750067
    2      -13.576675
    3      -13.576080
    4      -13.388657
    5      -12.447516
    6      -12.287248
    7      -12.286683
    8      -12.114661
    9      -11.177897
   10      -11.030810
   11      -11.030177
   12      -10.873672
   13       -9.376583
   14       -9.253287
   15       -9.252921
   16       -9.124238
   17       -6.866825
   18       -6.781977
   19       -6.779061
   20       -6.689860
   21       -5.192723
   22       -5.115062
   23       -5.113633
   24       -5.033819
   25       -4.189773
   26       -4.127923
   27       -4.125776
   28       -4.058777
   29       -3.945790
   30       -3.869092
   31       -3.867355
   32       -3.788135
   33       -2.754806
   34       -2.703441
   35       -2.702564
   36       -2.647520
   37       -2.524867
   38       -1.532314
   39       -1.530294
   40       -1.073331
   41       -1.028315
   42       -1.024274
   43       -0.981346
   44       -0.975385
   45       -0.819887
   46       -0.783716
   47       -0.780584
   48       -0.743681
   49       -0.313348
   50       -0.048326
   51       -0.046460
   52        0.317925
   53        0.345008
   54        0.349826
   55        0.377952
   56        0.503719
   57        1.069954
   58        1.353471
   59        1.354890
   60        2.347121
   61        2.492937
   62        3.160463
   63        3.162350
   64        3.817070
   65        6.381885
   66        6.668422
   67        6.672331
   68        7.083627
   69        8.335305
   70        8.726503
   71        8.728718
   72        9.160246
   73       10.165614
   74       10.575505
   75       10.578873
   76       10.697229
   77       11.101107
   78       12.234338
   79       12.949612
   80       13.098832
   81       13.100476
   82       13.153513
   83       13.162814
   84       13.287981
 
  0.4444444E+00  0.1111111E+00  0.0000000E+00  0.6172840E-02
    1      -13.169592
    2      -13.166570
    3      -13.002990
    4      -13.000836
    5      -12.999881
    6      -12.997091
    7      -12.820931
    8      -12.817841
    9      -11.248630
   10      -11.101002
   11      -11.100361
   12      -10.942926
   13       -9.431921
   14       -9.306229
   15       -9.305776
   16       -9.173959
   17       -6.349562
   18       -6.294303
   19       -6.291578
   20       -6.239926
   21       -4.710860
   22       -4.703010
   23       -4.672386
   24       -4.670267
   25       -4.664587
   26       -4.661222
   27       -4.627087
   28       -4.618373
   29       -3.164226
   30       -3.135429
   31       -3.132609
   32       -3.095301
   33       -2.483188
   34       -2.479044
   35       -2.423428
   36       -2.418663
   37       -2.416740
   38       -2.416644
   39       -2.356346
   40       -2.352654
   41       -1.829545
   42       -1.826991
   43       -0.862972
   44       -0.860835
   45       -0.860008
   46       -0.856726
   47       -0.292678
   48       -0.288032
   49       -0.258671
   50       -0.258384
   51       -0.256162
   52       -0.248864
   53       -0.223141
   54       -0.216163
   55        0.315577
   56        0.318448
   57        0.430617
   58        1.289615
   59        1.291099
   60        2.301019
   61        2.477536
   62        3.184174
   63        3.185579
   64        3.942877
   65        6.362339
   66        6.736481
   67        6.739171
   68        7.137901
   69        8.557600
   70        8.904036
   71        8.906402
   72        9.249865
   73       11.391358
   74       11.393273
   75       11.770335
   76       11.773743
   77       12.067516
   78       12.073790
   79       12.074814
   80       12.077731
   81       12.497392
   82       12.501429
   83       13.189831
   84       13.194172
 
 -0.4444444E+00  0.1111111E+00  0.0000000E+00  0.6172840E-02
    1      -13.750811
    2      -13.577431
    3      -13.576824
    4      -13.389396
    5      -12.446358
    6      -12.286067
    7      -12.285515
    8      -12.113496
    9      -11.179660
   10      -11.032655
   11      -11.032018
   12      -10.875470
   13       -9.373706
   14       -9.250248
   15       -9.249752
   16       -9.120986
   17       -6.860346
   18       -6.774473
   19       -6.773349
   20       -6.683416
   21       -5.202616
   22       -5.125454
   23       -5.122469
   24       -5.043039
   25       -4.200233
   26       -4.137735
   27       -4.137301
   28       -4.069647
   29       -3.948339
   30       -3.871851
   31       -3.869746
   32       -3.790749
   33       -2.742218
   34       -2.691533
   35       -2.688799
   36       -2.634507
   37       -2.525675
   38       -1.533102
   39       -1.531104
   40       -1.071854
   41       -1.026248
   42       -1.023636
   43       -0.980172
   44       -0.974077
   45       -0.817351
   46       -0.781423
   47       -0.777818
   48       -0.741252
   49       -0.314148
   50       -0.047189
   51       -0.045258
   52        0.316365
   53        0.343946
   54        0.347205
   55        0.375791
   56        0.502026
   57        1.071079
   58        1.351316
   59        1.352845
   60        2.344140
   61        2.494265
   62        3.164581
   63        3.165506
   64        3.825998
   65        6.379317
   66        6.670306
   67        6.672480
   68        7.083655
   69        8.331318
   70        8.722458
   71        8.725647
   72        9.159202
   73       10.165761
   74       10.574320
   75       10.578067
   76       10.696107
   77       11.099090
   78       12.235914
   79       12.947127
   80       13.096287
   81       13.100423
   82       13.155249
   83       13.167476
   84       13.346955
 
 -0.3333333E+00  0.1111111E+00  0.0000000E+00  0.6172840E-02
    1      -14.190287
    2      -14.012515
    3      -14.011884
    4      -13.819233
    5      -11.593211
    6      -11.441890
    7      -11.441362
    8      -11.279686
    9      -10.971792
   10      -10.827436
   11      -10.826828
   12      -10.672982
   13       -9.223688
   14       -9.112377
   15       -9.111893
   16       -8.999954
   17       -7.627300
   18       -7.542715
   19       -7.542113
   20       -7.445626
   21       -6.006962
   22       -5.913818
   23       -5.911325
   24       -5.813868
   25       -5.401914
   26       -5.311405
   27       -5.309705
   28       -5.215131
   29       -3.264639
   30       -3.203503
   31       -3.203200
   32       -3.139297
   33       -3.055585
   34       -2.044297
   35       -2.042377
   36       -2.038637
   37       -1.990895
   38       -1.988514
   39       -1.939377
   40       -1.235052
   41       -1.196933
   42       -1.193706
   43       -1.154919
   44       -0.799285
   45        0.006023
   46        0.176494
   47        0.205640
   48        0.207448
   49        0.235615
   50        0.713622
   51        0.876103
   52        0.878081
   53        0.947618
   54        0.967112
   55        0.969888
   56        0.990794
   57        1.533451
   58        1.535017
   59        1.896537
   60        2.467486
   61        2.506941
   62        3.077650
   63        3.078180
   64        3.514715
   65        6.441820
   66        6.550824
   67        6.553387
   68        6.984920
   69        7.821944
   70        8.264615
   71        8.268602
   72        8.595851
   73        8.852464
   74        9.067679
   75        9.071321
   76        9.693273
   77       10.168932
   78       12.674545
   79       12.909128
   80       12.911189
   81       12.924080
   82       12.928342
   83       13.041135
   84       13.512728
 
 -0.2222222E+00  0.1111111E+00  0.0000000E+00  0.6172840E-02
    1      -14.484482
    2      -14.303726
    3      -14.303080
    4      -14.106971
    5      -10.630164
    6      -10.623152
    7      -10.490193
    8      -10.489657
    9      -10.483089
   10      -10.482525
   11      -10.340968
   12      -10.333731
   13       -9.161738
   14       -9.081892
   15       -9.081473
   16       -9.018696
   17       -8.083028
   18       -8.046506
   19       -8.046077
   20       -7.979213
   21       -6.791452
   22       -6.786558
   23       -6.690333
   24       -6.687994
   25       -6.684973
   26       -6.683438
   27       -6.581292
   28       -6.576512
   29       -3.411835
   30       -2.388972
   31       -2.387020
   32       -2.355159
   33       -2.304218
   34       -2.303800
   35       -2.251465
   36       -1.522370
   37       -1.507719
   38       -1.482979
   39       -1.479954
   40       -1.468028
   41       -1.465730
   42       -1.439812
   43       -1.425334
   44       -1.127512
   45        1.053881
   46        1.060354
   47        1.128953
   48        1.147075
   49        1.147773
   50        1.164247
   51        1.500643
   52        1.514014
   53        1.514237
   54        1.529104
   55        1.819373
   56        1.821004
   57        1.827142
   58        1.829536
   59        2.378708
   60        2.643692
   61        2.655028
   62        2.877361
   63        2.877862
   64        3.185224
   65        6.488541
   66        6.541925
   67        6.544937
   68        7.052242
   69        7.261522
   70        7.261597
   71        7.692837
   72        7.696663
   73        7.697396
   74        7.700878
   75        8.379363
   76        8.381050
   77        9.817322
   78       12.531319
   79       12.564450
   80       12.656918
   81       12.703387
   82       12.767384
   83       12.780365
   84       12.800504
 
 -0.1111111E+00  0.1111111E+00  0.0000000E+00  0.6172840E-02
    1      -14.631920
    2      -14.449709
    3      -14.449057
    4      -14.251169
    5      -10.166396
    6      -10.034120
    7      -10.033718
    8       -9.894799
    9       -9.607957
   10       -9.605616
   11       -9.493085
   12       -9.491452
   13       -9.491424
   14       -9.488340
   15       -9.375966
   16       -9.373604
   17       -7.979486
   18       -7.977510
   19       -7.890144
   20       -7.887370
   21       -7.887349
   22       -7.886257
   23       -7.784935
   24       -7.783044
   25       -7.473950
   26       -7.370699
   27       -7.368243
   28       -7.258080
   29       -3.590807
   30       -2.562331
   31       -2.560371
   32       -1.670587
   33       -1.668314
   34       -1.629550
   35       -1.628707
   36       -1.628697
   37       -1.624587
   38       -1.586985
   39       -1.584232
   40       -1.352657
   41       -1.316387
   42       -1.314159
   43       -1.292906
   44       -1.277757
   45        1.497357
   46        1.657793
   47        1.673878
   48        1.679052
   49        1.695992
   50        1.811983
   51        1.827469
   52        1.832215
   53        1.846705
   54        1.989949
   55        1.992058
   56        2.176662
   57        2.178452
   58        2.559453
   59        2.560083
   60        2.560245
   61        2.564256
   62        2.827412
   63        2.997974
   64        2.999857
   65        6.553005
   66        6.555334
   67        6.741914
   68        6.747774
   69        6.748111
   70        6.750107
   71        6.809787
   72        7.150843
   73        7.155856
   74        7.380792
   75        7.383972
   76        7.853958
   77        9.642218
   78       12.189719
   79       12.427244
   80       12.428705
   81       12.447650
   82       12.451328
   83       12.519438
   84       12.617871
 
 -0.2710505E-19  0.2222222E+00  0.0000000E+00  0.6172840E-02
    1      -14.410558
    2      -14.230612
    3      -14.229967
    4      -14.034703
    5      -11.173834
    6      -11.026914
    7      -11.026361
    8      -10.870040
    9       -9.967282
   10       -9.960949
   11       -9.837824
   12       -9.836837
   13       -9.831179
   14       -9.829432
   15       -9.700429
   16       -9.693538
   17       -7.303495
   18       -7.296779
   19       -7.203282
   20       -7.202479
   21       -7.195185
   22       -7.194873
   23       -7.094391
   24       -7.087319
   25       -6.141095
   26       -6.042854
   27       -6.042344
   28       -5.939541
   29       -3.322376
   30       -2.302343
   31       -2.300396
   32       -2.279019
   33       -2.264026
   34       -2.229714
   35       -2.227190
   36       -2.214317
   37       -2.212510
   38       -2.176119
   39       -2.161301
   40       -1.154662
   41       -1.118166
   42       -1.117747
   43       -1.081111
   44       -1.044864
   45        0.466249
   46        0.838439
   47        0.867328
   48        0.867652
   49        0.896647
   50        1.295066
   51        1.296515
   52        1.381428
   53        1.403835
   54        1.404099
   55        1.426657
   56        1.753097
   57        1.757986
   58        2.239210
   59        2.429402
   60        2.431600
   61        2.436877
   62        2.439835
   63        3.081742
   64        3.095136
   65        6.762993
   66        6.766732
   67        7.076132
   68        7.078689
   69        7.082537
   70        7.085047
   71        7.679366
   72        7.684309
   73        7.896253
   74        8.379283
   75        8.382175
   76        9.070701
   77        9.905173
   78       12.276248
   79       12.506045
   80       12.506595
   81       12.718009
   82       12.721942
   83       12.724189
   84       13.343011
 
  0.1111111E+00  0.2222222E+00  0.0000000E+00  0.6172840E-02
    1      -14.189761
    2      -14.011979
    3      -14.011350
    4      -13.818707
    5      -11.594565
    6      -11.443256
    7      -11.442675
    8      -11.281042
    9      -10.968252
   10      -10.823846
   11      -10.823264
   12      -10.669346
   13       -9.230023
   14       -9.119486
   15       -9.118963
   16       -9.008049
   17       -7.631275
   18       -7.548615
   19       -7.545687
   20       -7.450871
   21       -5.998179
   22       -5.904612
   23       -5.903161
   24       -5.805319
   25       -5.398393
   26       -5.307344
   27       -5.306687
   28       -5.211572
   29       -3.250799
   30       -3.190314
   31       -3.188514
   32       -3.125417
   33       -3.055014
   34       -2.053424
   35       -2.043716
   36       -2.041767
   37       -2.005823
   38       -2.003119
   39       -1.953998
   40       -1.238334
   41       -1.198754
   42       -1.198542
   43       -1.158424
   44       -0.798722
   45        0.004303
   46        0.179030
   47        0.207818
   48        0.210356
   49        0.238098