       N       E                     dE             d eps       ncg     rms          rms(c)
DAV:   1     0.576480247783E+03    0.57648E+03   -0.72158E+04 27384   0.160E+03
DAV:   2    -0.264597109171E+03   -0.84108E+03   -0.81033E+03 33984   0.311E+02
DAV:   3    -0.312257606284E+03   -0.47660E+02   -0.47192E+02 33360   0.741E+01
DAV:   4    -0.313145193059E+03   -0.88759E+00   -0.88587E+00 34764   0.109E+01
DAV:   5    -0.313170729001E+03   -0.25536E-01   -0.25525E-01 34848   0.174E+00    0.221E+01
DAV:   6    -0.298867778825E+03    0.14303E+02   -0.14774E+01 31296   0.107E+01    0.116E+01
DAV:   7    -0.294371173728E+03    0.44966E+01   -0.15298E+01 31188   0.109E+01    0.191E+00
DAV:   8    -0.294427961357E+03   -0.56788E-01   -0.37660E-01 30984   0.177E+00    0.273E-01
DAV:   9    -0.294429671539E+03   -0.17102E-02   -0.15551E-02 33252   0.418E-01    0.121E-01
DAV:  10    -0.294430175108E+03   -0.50357E-03   -0.29007E-03 33876   0.167E-01    0.830E-02
DAV:  11    -0.294430632951E+03   -0.45784E-03   -0.10207E-03 31272   0.103E-01    0.442E-02
DAV:  12    -0.294430816309E+03   -0.18336E-03   -0.17582E-03 34092   0.922E-02    0.435E-02
DAV:  13    -0.294430752609E+03    0.63700E-04   -0.38456E-04 34980   0.652E-02    0.606E-03
DAV:  14    -0.294430756332E+03   -0.37229E-05   -0.32491E-05 31428   0.196E-02    0.572E-03
DAV:  15    -0.294430756346E+03   -0.13972E-07   -0.39383E-06 20304   0.546E-03
   1 F= -.29962594E+03 E0= -.29962594E+03  d E =0.000000E+00
