<?xml version="1.0" encoding="ISO-8859-1"?>
<modeling>
 <generator>
  <i name="program" type="string">vasp </i>
  <i name="version" type="string">5.3.5  </i>
  <i name="subversion" type="string">31Mar14 (build Nov 02 2014 15:17:37) complex                          parallel </i>
  <i name="platform" type="string">ion-Intel-MKL </i>
  <i name="date" type="string">2016 08 31 </i>
  <i name="time" type="string">05:21:09 </i>
 </generator>
 <incar>
  <i type="string" name="SYSTEM">graphite</i>
  <i type="string" name="PREC">accurate</i>
  <i type="int" name="NELM">   200</i>
  <i type="int" name="IBRION">    -1</i>
  <i name="EDIFF">      0.00000100</i>
  <i name="EDIFFG">      0.00100000</i>
  <i type="int" name="NSW">     0</i>
  <i type="int" name="ISIF">     2</i>
  <i name="ENCUT">    600.00000000</i>
  <i type="int" name="ISMEAR">    -5</i>
  <i type="logical" name="LWAVE"> F  </i>
  <i type="logical" name="LCHARG"> F  </i>
  <i type="int" name="NELM">   200</i>
  <i type="string" name="GGA">PE</i>
 </incar>
 <kpoints>
  <generation param="Gamma">
   <v type="int" name="divisions">       9        9        4 </v>
   <v name="usershift">      0.00000000       0.00000000       0.00000000 </v>
   <v name="genvec1">      0.11111111       0.00000000       0.00000000 </v>
   <v name="genvec2">     -0.00000000       0.11111111       0.00000000 </v>
   <v name="genvec3">      0.00000000       0.00000000       0.25000000 </v>
   <v name="shift">      0.00000000       0.00000000       0.00000000 </v>
  </generation>
  <varray name="kpointlist" >
   <v>       0.00000000       0.00000000       0.00000000 </v>
   <v>       0.11111111      -0.00000000       0.00000000 </v>
   <v>       0.22222222      -0.00000000       0.00000000 </v>
   <v>       0.33333333       0.00000000       0.00000000 </v>
   <v>       0.44444444      -0.00000000       0.00000000 </v>
   <v>      -0.00000000       0.11111111       0.00000000 </v>
   <v>       0.11111111       0.11111111       0.00000000 </v>
   <v>       0.22222222       0.11111111       0.00000000 </v>
   <v>       0.33333333       0.11111111       0.00000000 </v>
   <v>       0.44444444       0.11111111       0.00000000 </v>
   <v>      -0.44444444       0.11111111       0.00000000 </v>
   <v>      -0.33333333       0.11111111       0.00000000 </v>
   <v>      -0.22222222       0.11111111       0.00000000 </v>
   <v>      -0.11111111       0.11111111       0.00000000 </v>
   <v>      -0.00000000       0.22222222       0.00000000 </v>
   <v>       0.11111111       0.22222222       0.00000000 </v>
   <v>       0.22222222       0.22222222       0.00000000 </v>
   <v>       0.33333333       0.22222222       0.00000000 </v>
   <v>       0.44444444       0.22222222       0.00000000 </v>
   <v>      -0.44444444       0.22222222       0.00000000 </v>
   <v>      -0.33333333       0.22222222       0.00000000 </v>
   <v>      -0.22222222       0.22222222       0.00000000 </v>
   <v>      -0.11111111       0.22222222       0.00000000 </v>
   <v>      -0.00000000       0.33333333       0.00000000 </v>
   <v>       0.11111111       0.33333333       0.00000000 </v>
   <v>       0.22222222       0.33333333       0.00000000 </v>
   <v>       0.33333333       0.33333333       0.00000000 </v>
   <v>       0.44444444       0.33333333       0.00000000 </v>
   <v>      -0.44444444       0.33333333       0.00000000 </v>
   <v>      -0.33333333       0.33333333       0.00000000 </v>
   <v>      -0.22222222       0.33333333       0.00000000 </v>
   <v>      -0.11111111       0.33333333       0.00000000 </v>
   <v>      -0.00000000       0.44444444       0.00000000 </v>
   <v>       0.11111111       0.44444444       0.00000000 </v>
   <v>       0.22222222       0.44444444       0.00000000 </v>
   <v>       0.33333333       0.44444444       0.00000000 </v>
   <v>       0.44444444       0.44444444       0.00000000 </v>
   <v>      -0.44444444       0.44444444       0.00000000 </v>
   <v>      -0.33333333       0.44444444       0.00000000 </v>
   <v>      -0.22222222       0.44444444       0.00000000 </v>
   <v>      -0.11111111       0.44444444       0.00000000 </v>
   <v>       0.00000000       0.00000000       0.25000000 </v>
   <v>       0.11111111      -0.00000000       0.25000000 </v>
   <v>       0.22222222      -0.00000000       0.25000000 </v>
   <v>       0.33333333       0.00000000       0.25000000 </v>
   <v>       0.44444444      -0.00000000       0.25000000 </v>
   <v>      -0.44444444       0.00000000       0.25000000 </v>
   <v>      -0.33333333       0.00000000       0.25000000 </v>
   <v>      -0.22222222       0.00000000       0.25000000 </v>
   <v>      -0.11111111       0.00000000       0.25000000 </v>
   <v>      -0.00000000       0.11111111       0.25000000 </v>
   <v>       0.11111111       0.11111111       0.25000000 </v>
   <v>       0.22222222       0.11111111       0.25000000 </v>
   <v>       0.33333333       0.11111111       0.25000000 </v>
   <v>       0.44444444       0.11111111       0.25000000 </v>
   <v>      -0.44444444       0.11111111       0.25000000 </v>
   <v>      -0.33333333       0.11111111       0.25000000 </v>
   <v>      -0.22222222       0.11111111       0.25000000 </v>
   <v>      -0.11111111       0.11111111       0.25000000 </v>
   <v>      -0.00000000       0.22222222       0.25000000 </v>
   <v>       0.11111111       0.22222222       0.25000000 </v>
   <v>       0.22222222       0.22222222       0.25000000 </v>
   <v>       0.33333333       0.22222222       0.25000000 </v>
   <v>       0.44444444       0.22222222       0.25000000 </v>
   <v>      -0.44444444       0.22222222       0.25000000 </v>
   <v>      -0.33333333       0.22222222       0.25000000 </v>
   <v>      -0.22222222       0.22222222       0.25000000 </v>
   <v>      -0.11111111       0.22222222       0.25000000 </v>
   <v>      -0.00000000       0.33333333       0.25000000 </v>
   <v>       0.11111111       0.33333333       0.25000000 </v>
   <v>       0.22222222       0.33333333       0.25000000 </v>
   <v>       0.33333333       0.33333333       0.25000000 </v>
   <v>       0.44444444       0.33333333       0.25000000 </v>
   <v>      -0.44444444       0.33333333       0.25000000 </v>
   <v>      -0.33333333       0.33333333       0.25000000 </v>
   <v>      -0.22222222       0.33333333       0.25000000 </v>
   <v>      -0.11111111       0.33333333       0.25000000 </v>
   <v>      -0.00000000       0.44444444       0.25000000 </v>
   <v>       0.11111111       0.44444444       0.25000000 </v>
   <v>       0.22222222       0.44444444       0.25000000 </v>
   <v>       0.33333333       0.44444444       0.25000000 </v>
   <v>       0.44444444       0.44444444       0.25000000 </v>
   <v>      -0.44444444       0.44444444       0.25000000 </v>
   <v>      -0.33333333       0.44444444       0.25000000 </v>
   <v>      -0.22222222       0.44444444       0.25000000 </v>
   <v>      -0.11111111       0.44444444       0.25000000 </v>
   <v>       0.00000000      -0.44444444       0.25000000 </v>
   <v>       0.11111111      -0.44444444       0.25000000 </v>
   <v>       0.22222222      -0.44444444       0.25000000 </v>
   <v>       0.33333333      -0.44444444       0.25000000 </v>
   <v>       0.44444444      -0.44444444       0.25000000 </v>
   <v>      -0.44444444      -0.44444444       0.25000000 </v>
   <v>      -0.33333333      -0.44444444       0.25000000 </v>
   <v>      -0.22222222      -0.44444444       0.25000000 </v>
   <v>      -0.11111111      -0.44444444       0.25000000 </v>
   <v>       0.00000000      -0.33333333       0.25000000 </v>
   <v>       0.11111111      -0.33333333       0.25000000 </v>
   <v>       0.22222222      -0.33333333       0.25000000 </v>
   <v>       0.33333333      -0.33333333       0.25000000 </v>
   <v>       0.44444444      -0.33333333       0.25000000 </v>
   <v>      -0.44444444      -0.33333333       0.25000000 </v>
   <v>      -0.33333333      -0.33333333       0.25000000 </v>
   <v>      -0.22222222      -0.33333333       0.25000000 </v>
   <v>      -0.11111111      -0.33333333       0.25000000 </v>
   <v>       0.00000000      -0.22222222       0.25000000 </v>
   <v>       0.11111111      -0.22222222       0.25000000 </v>
   <v>       0.22222222      -0.22222222       0.25000000 </v>
   <v>       0.33333333      -0.22222222       0.25000000 </v>
   <v>       0.44444444      -0.22222222       0.25000000 </v>
   <v>      -0.44444444      -0.22222222       0.25000000 </v>
   <v>      -0.33333333      -0.22222222       0.25000000 </v>
   <v>      -0.22222222      -0.22222222       0.25000000 </v>
   <v>      -0.11111111      -0.22222222       0.25000000 </v>
   <v>       0.00000000      -0.11111111       0.25000000 </v>
   <v>       0.11111111      -0.11111111       0.25000000 </v>
   <v>       0.22222222      -0.11111111       0.25000000 </v>
   <v>       0.33333333      -0.11111111       0.25000000 </v>
   <v>       0.44444444      -0.11111111       0.25000000 </v>
   <v>      -0.44444444      -0.11111111       0.25000000 </v>
   <v>      -0.33333333      -0.11111111       0.25000000 </v>
   <v>      -0.22222222      -0.11111111       0.25000000 </v>
   <v>      -0.11111111      -0.11111111       0.25000000 </v>
   <v>       0.00000000       0.00000000       0.50000000 </v>
   <v>       0.11111111      -0.00000000       0.50000000 </v>
   <v>       0.22222222      -0.00000000       0.50000000 </v>
   <v>       0.33333333       0.00000000       0.50000000 </v>
   <v>       0.44444444      -0.00000000       0.50000000 </v>
   <v>      -0.00000000       0.11111111       0.50000000 </v>
   <v>       0.11111111       0.11111111       0.50000000 </v>
   <v>       0.22222222       0.11111111       0.50000000 </v>
   <v>       0.33333333       0.11111111       0.50000000 </v>
   <v>       0.44444444       0.11111111       0.50000000 </v>
   <v>      -0.44444444       0.11111111       0.50000000 </v>
   <v>      -0.33333333       0.11111111       0.50000000 </v>
   <v>      -0.22222222       0.11111111       0.50000000 </v>
   <v>      -0.11111111       0.11111111       0.50000000 </v>
   <v>      -0.00000000       0.22222222       0.50000000 </v>
   <v>       0.11111111       0.22222222       0.50000000 </v>
   <v>       0.22222222       0.22222222       0.50000000 </v>
   <v>       0.33333333       0.22222222       0.50000000 </v>
   <v>       0.44444444       0.22222222       0.50000000 </v>
   <v>      -0.44444444       0.22222222       0.50000000 </v>
   <v>      -0.33333333       0.22222222       0.50000000 </v>
   <v>      -0.22222222       0.22222222       0.50000000 </v>
   <v>      -0.11111111       0.22222222       0.50000000 </v>
   <v>      -0.00000000       0.33333333       0.50000000 </v>
   <v>       0.11111111       0.33333333       0.50000000 </v>
   <v>       0.22222222       0.33333333       0.50000000 </v>
   <v>       0.33333333       0.33333333       0.50000000 </v>
   <v>       0.44444444       0.33333333       0.50000000 </v>
   <v>      -0.44444444       0.33333333       0.50000000 </v>
   <v>      -0.33333333       0.33333333       0.50000000 </v>
   <v>      -0.22222222       0.33333333       0.50000000 </v>
   <v>      -0.11111111       0.33333333       0.50000000 </v>
   <v>      -0.00000000       0.44444444       0.50000000 </v>
   <v>       0.11111111       0.44444444       0.50000000 </v>
   <v>       0.22222222       0.44444444       0.50000000 </v>
   <v>       0.33333333       0.44444444       0.50000000 </v>
   <v>       0.44444444       0.44444444       0.50000000 </v>
   <v>      -0.44444444       0.44444444       0.50000000 </v>
   <v>      -0.33333333       0.44444444       0.50000000 </v>
   <v>      -0.22222222       0.44444444       0.50000000 </v>
   <v>      -0.11111111       0.44444444       0.50000000 </v>
  </varray>
  <varray name="weights" >
   <v>       0.00308642 </v>
   <v>       0.00617284 </v>
   <v>       0.00617284 </v>
   <v>       0.00617284 </v>
   <v>       0.00617284 </v>
   <v>       0.00617284 </v>
   <v>       0.00617284 </v>
   <v>       0.00617284 </v>
   <v>       0.00617284 </v>
   <v>       0.00617284 </v>
   <v>       0.00617284 </v>
   <v>       0.00617284 </v>
   <v>       0.00617284 </v>
   <v>       0.00617284 </v>
   <v>       0.00617284 </v>
   <v>       0.00617284 </v>
   <v>       0.00617284 </v>
   <v>       0.00617284 </v>
   <v>       0.00617284 </v>
   <v>       0.00617284 </v>
   <v>       0.00617284 </v>
   <v>       0.00617284 </v>
   <v>       0.00617284 </v>
   <v>       0.00617284 </v>
   <v>       0.00617284 </v>
   <v>       0.00617284 </v>
   <v>       0.00617284 </v>
   <v>       0.00617284 </v>
   <v>       0.00617284 </v>
   <v>       0.00617284 </v>
   <v>       0.00617284 </v>
   <v>       0.00617284 </v>
   <v>       0.00617284 </v>
   <v>       0.00617284 </v>
   <v>       0.00617284 </v>
   <v>       0.00617284 </v>
   <v>       0.00617284 </v>
   <v>       0.00617284 </v>
   <v>       0.00617284 </v>
   <v>       0.00617284 </v>
   <v>       0.00617284 </v>
   <v>       0.00617284 </v>
   <v>       0.00617284 </v>
   <v>       0.00617284 </v>
   <v>       0.00617284 </v>
   <v>       0.00617284 </v>
   <v>       0.00617284 </v>
   <v>       0.00617284 </v>
   <v>       0.00617284 </v>
   <v>       0.00617284 </v>
   <v>       0.00617284 </v>
   <v>       0.00617284 </v>
   <v>       0.00617284 </v>
   <v>       0.00617284 </v>
   <v>       0.00617284 </v>
   <v>       0.00617284 </v>
   <v>       0.00617284 </v>
   <v>       0.00617284 </v>
   <v>       0.00617284 </v>
   <v>       0.00617284 </v>
   <v>       0.00617284 </v>
   <v>       0.00617284 </v>
   <v>       0.00617284 </v>
   <v>       0.00617284 </v>
   <v>       0.00617284 </v>
   <v>       0.00617284 </v>
   <v>       0.00617284 </v>
   <v>       0.00617284 </v>
   <v>       0.00617284 </v>
   <v>       0.00617284 </v>
   <v>       0.00617284 </v>
   <v>       0.00617284 </v>
   <v>       0.00617284 </v>
   <v>       0.00617284 </v>
   <v>       0.00617284 </v>
   <v>       0.00617284 </v>
   <v>       0.00617284 </v>
   <v>       0.00617284 </v>
   <v>       0.00617284 </v>
   <v>       0.00617284 </v>
   <v>       0.00617284 </v>
   <v>       0.00617284 </v>
   <v>       0.00617284 </v>
   <v>       0.00617284 </v>
   <v>       0.00617284 </v>
   <v>       0.00617284 </v>
   <v>       0.00617284 </v>
   <v>       0.00617284 </v>
   <v>       0.00617284 </v>
   <v>       0.00617284 </v>
   <v>       0.00617284 </v>
   <v>       0.00617284 </v>
   <v>       0.00617284 </v>
   <v>       0.00617284 </v>
   <v>       0.00617284 </v>
   <v>       0.00617284 </v>
   <v>       0.00617284 </v>
   <v>       0.00617284 </v>
   <v>       0.00617284 </v>
   <v>       0.00617284 </v>
   <v>       0.00617284 </v>
   <v>       0.00617284 </v>
   <v>       0.00617284 </v>
   <v>       0.00617284 </v>
   <v>       0.00617284 </v>
   <v>       0.00617284 </v>
   <v>       0.00617284 </v>
   <v>       0.00617284 </v>
   <v>       0.00617284 </v>
   <v>       0.00617284 </v>
   <v>       0.00617284 </v>
   <v>       0.00617284 </v>
   <v>       0.00617284 </v>
   <v>       0.00617284 </v>
   <v>       0.00617284 </v>
   <v>       0.00617284 </v>
   <v>       0.00617284 </v>
   <v>       0.00617284 </v>
   <v>       0.00617284 </v>
   <v>       0.00617284 </v>
   <v>       0.00617284 </v>
   <v>       0.00617284 </v>
   <v>       0.00308642 </v>
   <v>       0.00617284 </v>
   <v>       0.00617284 </v>
   <v>       0.00617284 </v>
   <v>       0.00617284 </v>
   <v>       0.00617284 </v>
   <v>       0.00617284 </v>
   <v>       0.00617284 </v>
   <v>       0.00617284 </v>
   <v>       0.00617284 </v>
   <v>       0.00617284 </v>
   <v>       0.00617284 </v>
   <v>       0.00617284 </v>
   <v>       0.00617284 </v>
   <v>       0.00617284 </v>
   <v>       0.00617284 </v>
   <v>       0.00617284 </v>
   <v>       0.00617284 </v>
   <v>       0.00617284 </v>
   <v>       0.00617284 </v>
   <v>       0.00617284 </v>
   <v>       0.00617284 </v>
   <v>       0.00617284 </v>
   <v>       0.00617284 </v>
   <v>       0.00617284 </v>
   <v>       0.00617284 </v>
   <v>       0.00617284 </v>
   <v>       0.00617284 </v>
   <v>       0.00617284 </v>
   <v>       0.00617284 </v>
   <v>       0.00617284 </v>
   <v>       0.00617284 </v>
   <v>       0.00617284 </v>
   <v>       0.00617284 </v>
   <v>       0.00617284 </v>
   <v>       0.00617284 </v>
   <v>       0.00617284 </v>
   <v>       0.00617284 </v>
   <v>       0.00617284 </v>
   <v>       0.00617284 </v>
   <v>       0.00617284 </v>
  </varray>
  <varray name="tetrahedronlist"  type="int" >
   <v type="int" >        2        2        6        7       51 </v>
   <v type="int" >        2        1        2        6       51 </v>
   <v type="int" >        2        1        2       42       51 </v>
   <v type="int" >        2        2        7       51       52 </v>
   <v type="int" >        2        2       43       51       52 </v>
   <v type="int" >        2        2       42       43       51 </v>
   <v type="int" >        2        3        7        8       52 </v>
   <v type="int" >        2        2        3        7       52 </v>
   <v type="int" >        2        2        3       43       52 </v>
   <v type="int" >        2        3        8       52       53 </v>
   <v type="int" >        2        3       44       52       53 </v>
   <v type="int" >        2        3       43       44       52 </v>
   <v type="int" >        2        4        8        9       53 </v>
   <v type="int" >        2        3        4        8       53 </v>
   <v type="int" >        2        3        4       44       53 </v>
   <v type="int" >        2        4        9       53       54 </v>
   <v type="int" >        2        4       45       53       54 </v>
   <v type="int" >        2        4       44       45       53 </v>
   <v type="int" >        2        5        9       10       54 </v>
   <v type="int" >        2        4        5        9       54 </v>
   <v type="int" >        2        4        5       45       54 </v>
   <v type="int" >        2        5       10       54       55 </v>
   <v type="int" >        2        5       46       54       55 </v>
   <v type="int" >        2        5       45       46       54 </v>
   <v type="int" >        2        5       10       11       55 </v>
   <v type="int" >        2        5        5       10       55 </v>
   <v type="int" >        2        5        5       46       55 </v>
   <v type="int" >        2        5       11       55       56 </v>
   <v type="int" >        2        5       47       55       56 </v>
   <v type="int" >        2        5       46       47       55 </v>
   <v type="int" >        2        4       11       12       56 </v>
   <v type="int" >        2        4        5       11       56 </v>
   <v type="int" >        2        4        5       47       56 </v>
   <v type="int" >        2        4       12       56       57 </v>
   <v type="int" >        2        4       48       56       57 </v>
   <v type="int" >        2        4       47       48       56 </v>
   <v type="int" >        2        3       12       13       57 </v>
   <v type="int" >        2        3        4       12       57 </v>
   <v type="int" >        2        3        4       48       57 </v>
   <v type="int" >        2        3       13       57       58 </v>
   <v type="int" >        2        3       49       57       58 </v>
   <v type="int" >        2        3       48       49       57 </v>
   <v type="int" >        2        2       13       14       58 </v>
   <v type="int" >        2        2        3       13       58 </v>
   <v type="int" >        2        2        3       49       58 </v>
   <v type="int" >        2        2       14       58       59 </v>
   <v type="int" >        2        2       50       58       59 </v>
   <v type="int" >        2        2       49       50       58 </v>
   <v type="int" >        2        1        6       14       59 </v>
   <v type="int" >        2        1        2       14       59 </v>
   <v type="int" >        2        1        2       50       59 </v>
   <v type="int" >        2        1        6       51       59 </v>
   <v type="int" >        2        1       42       51       59 </v>
   <v type="int" >        2        1       42       50       59 </v>
   <v type="int" >        2        7       15       16       60 </v>
   <v type="int" >        2        6        7       15       60 </v>
   <v type="int" >        2        6        7       51       60 </v>
   <v type="int" >        2        7       16       60       61 </v>
   <v type="int" >        2        7       52       60       61 </v>
   <v type="int" >        2        7       51       52       60 </v>
   <v type="int" >        2        8       16       17       61 </v>
   <v type="int" >        2        7        8       16       61 </v>
   <v type="int" >        2        7        8       52       61 </v>
   <v type="int" >        2        8       17       61       62 </v>
   <v type="int" >        2        8       53       61       62 </v>
   <v type="int" >        2        8       52       53       61 </v>
   <v type="int" >        2        9       17       18       62 </v>
   <v type="int" >        2        8        9       17       62 </v>
   <v type="int" >        2        8        9       53       62 </v>
   <v type="int" >        2        9       18       62       63 </v>
   <v type="int" >        2        9       54       62       63 </v>
   <v type="int" >        2        9       53       54       62 </v>
   <v type="int" >        2       10       18       19       63 </v>
   <v type="int" >        2        9       10       18       63 </v>
   <v type="int" >        2        9       10       54       63 </v>
   <v type="int" >        2       10       19       63       64 </v>
   <v type="int" >        2       10       55       63       64 </v>
   <v type="int" >        2       10       54       55       63 </v>
   <v type="int" >        2       11       19       20       64 </v>
   <v type="int" >        2       10       11       19       64 </v>
   <v type="int" >        2       10       11       55       64 </v>
   <v type="int" >        2       11       20       64       65 </v>
   <v type="int" >        2       11       56       64       65 </v>
   <v type="int" >        2       11       55       56       64 </v>
   <v type="int" >        2       12       20       21       65 </v>
   <v type="int" >        2       11       12       20       65 </v>
   <v type="int" >        2       11       12       56       65 </v>
   <v type="int" >        2       12       21       65       66 </v>
   <v type="int" >        2       12       57       65       66 </v>
   <v type="int" >        2       12       56       57       65 </v>
   <v type="int" >        2       13       21       22       66 </v>
   <v type="int" >        2       12       13       21       66 </v>
   <v type="int" >        2       12       13       57       66 </v>
   <v type="int" >        2       13       22       66       67 </v>
   <v type="int" >        2       13       58       66       67 </v>
   <v type="int" >        2       13       57       58       66 </v>
   <v type="int" >        2       14       22       23       67 </v>
   <v type="int" >        2       13       14       22       67 </v>
   <v type="int" >        2       13       14       58       67 </v>
   <v type="int" >        2       14       23       67       68 </v>
   <v type="int" >        2       14       59       67       68 </v>
   <v type="int" >        2       14       58       59       67 </v>
   <v type="int" >        2        6       15       23       68 </v>
   <v type="int" >        2        6       14       23       68 </v>
   <v type="int" >        2        6       14       59       68 </v>
   <v type="int" >        2        6       15       60       68 </v>
   <v type="int" >        2        6       51       60       68 </v>
   <v type="int" >        2        6       51       59       68 </v>
   <v type="int" >        2       16       24       25       69 </v>
   <v type="int" >        2       15       16       24       69 </v>
   <v type="int" >        2       15       16       60       69 </v>
   <v type="int" >        2       16       25       69       70 </v>
   <v type="int" >        2       16       61       69       70 </v>
   <v type="int" >        2       16       60       61       69 </v>
   <v type="int" >        2       17       25       26       70 </v>
   <v type="int" >        2       16       17       25       70 </v>
   <v type="int" >        2       16       17       61       70 </v>
   <v type="int" >        2       17       26       70       71 </v>
   <v type="int" >        2       17       62       70       71 </v>
   <v type="int" >        2       17       61       62       70 </v>
   <v type="int" >        2       18       26       27       71 </v>
   <v type="int" >        2       17       18       26       71 </v>
   <v type="int" >        2       17       18       62       71 </v>
   <v type="int" >        2       18       27       71       72 </v>
   <v type="int" >        2       18       63       71       72 </v>
   <v type="int" >        2       18       62       63       71 </v>
   <v type="int" >        2       19       27       28       72 </v>
   <v type="int" >        2       18       19       27       72 </v>
   <v type="int" >        2       18       19       63       72 </v>
   <v type="int" >        2       19       28       72       73 </v>
   <v type="int" >        2       19       64       72       73 </v>
   <v type="int" >        2       19       63       64       72 </v>
   <v type="int" >        2       20       28       29       73 </v>
   <v type="int" >        2       19       20       28       73 </v>
   <v type="int" >        2       19       20       64       73 </v>
   <v type="int" >        2       20       29       73       74 </v>
   <v type="int" >        2       20       65       73       74 </v>
   <v type="int" >        2       20       64       65       73 </v>
   <v type="int" >        2       21       29       30       74 </v>
   <v type="int" >        2       20       21       29       74 </v>
   <v type="int" >        2       20       21       65       74 </v>
   <v type="int" >        2       21       30       74       75 </v>
   <v type="int" >        2       21       66       74       75 </v>
   <v type="int" >        2       21       65       66       74 </v>
   <v type="int" >        2       22       30       31       75 </v>
   <v type="int" >        2       21       22       30       75 </v>
   <v type="int" >        2       21       22       66       75 </v>
   <v type="int" >        2       22       31       75       76 </v>
   <v type="int" >        2       22       67       75       76 </v>
   <v type="int" >        2       22       66       67       75 </v>
   <v type="int" >        2       23       31       32       76 </v>
   <v type="int" >        2       22       23       31       76 </v>
   <v type="int" >        2       22       23       67       76 </v>
   <v type="int" >        2       23       32       76       77 </v>
   <v type="int" >        2       23       68       76       77 </v>
   <v type="int" >        2       23       67       68       76 </v>
   <v type="int" >        2       15       24       32       77 </v>
   <v type="int" >        2       15       23       32       77 </v>
   <v type="int" >        2       15       23       68       77 </v>
   <v type="int" >        2       15       24       69       77 </v>
   <v type="int" >        2       15       60       69       77 </v>
   <v type="int" >        2       15       60       68       77 </v>
   <v type="int" >        2       25       33       34       78 </v>
   <v type="int" >        2       24       25       33       78 </v>
   <v type="int" >        2       24       25       69       78 </v>
   <v type="int" >        2       25       34       78       79 </v>
   <v type="int" >        2       25       70       78       79 </v>
   <v type="int" >        2       25       69       70       78 </v>
   <v type="int" >        2       26       34       35       79 </v>
   <v type="int" >        2       25       26       34       79 </v>
   <v type="int" >        2       25       26       70       79 </v>
   <v type="int" >        2       26       35       79       80 </v>
   <v type="int" >        2       26       71       79       80 </v>
   <v type="int" >        2       26       70       71       79 </v>
   <v type="int" >        2       27       35       36       80 </v>
   <v type="int" >        2       26       27       35       80 </v>
   <v type="int" >        2       26       27       71       80 </v>
   <v type="int" >        2       27       36       80       81 </v>
   <v type="int" >        2       27       72       80       81 </v>
   <v type="int" >        2       27       71       72       80 </v>
   <v type="int" >        2       28       36       37       81 </v>
   <v type="int" >        2       27       28       36       81 </v>
   <v type="int" >        2       27       28       72       81 </v>
   <v type="int" >        2       28       37       81       82 </v>
   <v type="int" >        2       28       73       81       82 </v>
   <v type="int" >        2       28       72       73       81 </v>
   <v type="int" >        2       29       37       38       82 </v>
   <v type="int" >        2       28       29       37       82 </v>
   <v type="int" >        2       28       29       73       82 </v>
   <v type="int" >        2       29       38       82       83 </v>
   <v type="int" >        2       29       74       82       83 </v>
   <v type="int" >        2       29       73       74       82 </v>
   <v type="int" >        2       30       38       39       83 </v>
   <v type="int" >        2       29       30       38       83 </v>
   <v type="int" >        2       29       30       74       83 </v>
   <v type="int" >        2       30       39       83       84 </v>
   <v type="int" >        2       30       75       83       84 </v>
   <v type="int" >        2       30       74       75       83 </v>
   <v type="int" >        2       31       39       40       84 </v>
   <v type="int" >        2       30       31       39       84 </v>
   <v type="int" >        2       30       31       75       84 </v>
   <v type="int" >        2       31       40       84       85 </v>
   <v type="int" >        2       31       76       84       85 </v>
   <v type="int" >        2       31       75       76       84 </v>
   <v type="int" >        2       32       40       41       85 </v>
   <v type="int" >        2       31       32       40       85 </v>
   <v type="int" >        2       31       32       76       85 </v>
   <v type="int" >        2       32       41       85       86 </v>
   <v type="int" >        2       32       77       85       86 </v>
   <v type="int" >        2       32       76       77       85 </v>
   <v type="int" >        2       24       33       41       86 </v>
   <v type="int" >        2       24       32       41       86 </v>
   <v type="int" >        2       24       32       77       86 </v>
   <v type="int" >        2       24       33       78       86 </v>
   <v type="int" >        2       24       69       78       86 </v>
   <v type="int" >        2       24       69       77       86 </v>
   <v type="int" >        2       33       34       41       87 </v>
   <v type="int" >        2       33       33       34       87 </v>
   <v type="int" >        2       33       34       78       87 </v>
   <v type="int" >        2       34       41       87       88 </v>
   <v type="int" >        2       34       79       87       88 </v>
   <v type="int" >        2       34       78       79       87 </v>
   <v type="int" >        2       35       40       41       88 </v>
   <v type="int" >        2       34       35       41       88 </v>
   <v type="int" >        2       34       35       79       88 </v>
   <v type="int" >        2       35       40       88       89 </v>
   <v type="int" >        2       35       80       88       89 </v>
   <v type="int" >        2       35       79       80       88 </v>
   <v type="int" >        2       36       39       40       89 </v>
   <v type="int" >        2       35       36       40       89 </v>
   <v type="int" >        2       35       36       80       89 </v>
   <v type="int" >        2       36       39       89       90 </v>
   <v type="int" >        2       36       81       89       90 </v>
   <v type="int" >        2       36       80       81       89 </v>
   <v type="int" >        2       37       38       39       90 </v>
   <v type="int" >        2       36       37       39       90 </v>
   <v type="int" >        2       36       37       81       90 </v>
   <v type="int" >        2       37       38       90       91 </v>
   <v type="int" >        2       37       82       90       91 </v>
   <v type="int" >        2       37       81       82       90 </v>
   <v type="int" >        4       37       38       38       91 </v>
   <v type="int" >        2       37       38       82       91 </v>
   <v type="int" >        2       37       38       91       92 </v>
   <v type="int" >        2       38       83       91       92 </v>
   <v type="int" >        2       38       82       83       91 </v>
   <v type="int" >        2       36       37       39       92 </v>
   <v type="int" >        2       37       38       39       92 </v>
   <v type="int" >        2       38       39       83       92 </v>
   <v type="int" >        2       36       39       92       93 </v>
   <v type="int" >        2       39       84       92       93 </v>
   <v type="int" >        2       39       83       84       92 </v>
   <v type="int" >        2       35       36       40       93 </v>
   <v type="int" >        2       36       39       40       93 </v>
   <v type="int" >        2       39       40       84       93 </v>
   <v type="int" >        2       35       40       93       94 </v>
   <v type="int" >        2       40       85       93       94 </v>
   <v type="int" >        2       40       84       85       93 </v>
   <v type="int" >        2       34       35       41       94 </v>
   <v type="int" >        2       35       40       41       94 </v>
   <v type="int" >        2       40       41       85       94 </v>
   <v type="int" >        2       34       41       94       95 </v>
   <v type="int" >        2       41       86       94       95 </v>
   <v type="int" >        2       41       85       86       94 </v>
   <v type="int" >        2       33       33       34       95 </v>
   <v type="int" >        2       33       34       41       95 </v>
   <v type="int" >        2       33       41       86       95 </v>
   <v type="int" >        2       33       33       87       95 </v>
   <v type="int" >        2       33       78       87       95 </v>
   <v type="int" >        2       33       78       86       95 </v>
   <v type="int" >        2       24       32       41       96 </v>
   <v type="int" >        2       24       33       41       96 </v>
   <v type="int" >        2       33       41       87       96 </v>
   <v type="int" >        2       32       41       96       97 </v>
   <v type="int" >        2       41       88       96       97 </v>
   <v type="int" >        2       41       87       88       96 </v>
   <v type="int" >        2       31       32       40       97 </v>
   <v type="int" >        2       32       40       41       97 </v>
   <v type="int" >        2       40       41       88       97 </v>
   <v type="int" >        2       31       40       97       98 </v>
   <v type="int" >        2       40       89       97       98 </v>
   <v type="int" >        2       40       88       89       97 </v>
   <v type="int" >        2       30       31       39       98 </v>
   <v type="int" >        2       31       39       40       98 </v>
   <v type="int" >        2       39       40       89       98 </v>
   <v type="int" >        2       30       39       98       99 </v>
   <v type="int" >        2       39       90       98       99 </v>
   <v type="int" >        2       39       89       90       98 </v>
   <v type="int" >        2       29       30       38       99 </v>
   <v type="int" >        2       30       38       39       99 </v>
   <v type="int" >        2       38       39       90       99 </v>
   <v type="int" >        2       29       38       99      100 </v>
   <v type="int" >        2       38       91       99      100 </v>
   <v type="int" >        2       38       90       91       99 </v>
   <v type="int" >        2       28       29       37      100 </v>
   <v type="int" >        2       29       37       38      100 </v>
   <v type="int" >        2       37       38       91      100 </v>
   <v type="int" >        2       28       37      100      101 </v>
   <v type="int" >        2       37       92      100      101 </v>
   <v type="int" >        2       37       91       92      100 </v>
   <v type="int" >        2       27       28       36      101 </v>
   <v type="int" >        2       28       36       37      101 </v>
   <v type="int" >        2       36       37       92      101 </v>
   <v type="int" >        2       27       36      101      102 </v>
   <v type="int" >        2       36       93      101      102 </v>
   <v type="int" >        2       36       92       93      101 </v>
   <v type="int" >        2       26       27       35      102 </v>
   <v type="int" >        2       27       35       36      102 </v>
   <v type="int" >        2       35       36       93      102 </v>
   <v type="int" >        2       26       35      102      103 </v>
   <v type="int" >        2       35       94      102      103 </v>
   <v type="int" >        2       35       93       94      102 </v>
   <v type="int" >        2       25       26       34      103 </v>
   <v type="int" >        2       26       34       35      103 </v>
   <v type="int" >        2       34       35       94      103 </v>
   <v type="int" >        2       25       34      103      104 </v>
   <v type="int" >        2       34       95      103      104 </v>
   <v type="int" >        2       34       94       95      103 </v>
   <v type="int" >        2       24       25       33      104 </v>
   <v type="int" >        2       25       33       34      104 </v>
   <v type="int" >        2       33       34       95      104 </v>
   <v type="int" >        2       24       33       96      104 </v>
   <v type="int" >        2       33       87       96      104 </v>
   <v type="int" >        2       33       87       95      104 </v>
   <v type="int" >        2       15       23       32      105 </v>
   <v type="int" >        2       15       24       32      105 </v>
   <v type="int" >        2       24       32       96      105 </v>
   <v type="int" >        2       23       32      105      106 </v>
   <v type="int" >        2       32       97      105      106 </v>
   <v type="int" >        2       32       96       97      105 </v>
   <v type="int" >        2       22       23       31      106 </v>
   <v type="int" >        2       23       31       32      106 </v>
   <v type="int" >        2       31       32       97      106 </v>
   <v type="int" >        2       22       31      106      107 </v>
   <v type="int" >        2       31       98      106      107 </v>
   <v type="int" >        2       31       97       98      106 </v>
   <v type="int" >        2       21       22       30      107 </v>
   <v type="int" >        2       22       30       31      107 </v>
   <v type="int" >        2       30       31       98      107 </v>
   <v type="int" >        2       21       30      107      108 </v>
   <v type="int" >        2       30       99      107      108 </v>
   <v type="int" >        2       30       98       99      107 </v>
   <v type="int" >        2       20       21       29      108 </v>
   <v type="int" >        2       21       29       30      108 </v>
   <v type="int" >        2       29       30       99      108 </v>
   <v type="int" >        2       20       29      108      109 </v>
   <v type="int" >        2       29      100      108      109 </v>
   <v type="int" >        2       29       99      100      108 </v>
   <v type="int" >        2       19       20       28      109 </v>
   <v type="int" >        2       20       28       29      109 </v>
   <v type="int" >        2       28       29      100      109 </v>
   <v type="int" >        2       19       28      109      110 </v>
   <v type="int" >        2       28      101      109      110 </v>
   <v type="int" >        2       28      100      101      109 </v>
   <v type="int" >        2       18       19       27      110 </v>
   <v type="int" >        2       19       27       28      110 </v>
   <v type="int" >        2       27       28      101      110 </v>
   <v type="int" >        2       18       27      110      111 </v>
   <v type="int" >        2       27      102      110      111 </v>
   <v type="int" >        2       27      101      102      110 </v>
   <v type="int" >        2       17       18       26      111 </v>
   <v type="int" >        2       18       26       27      111 </v>
   <v type="int" >        2       26       27      102      111 </v>
   <v type="int" >        2       17       26      111      112 </v>
   <v type="int" >        2       26      103      111      112 </v>
   <v type="int" >        2       26      102      103      111 </v>
   <v type="int" >        2       16       17       25      112 </v>
   <v type="int" >        2       17       25       26      112 </v>
   <v type="int" >        2       25       26      103      112 </v>
   <v type="int" >        2       16       25      112      113 </v>
   <v type="int" >        2       25      104      112      113 </v>
   <v type="int" >        2       25      103      104      112 </v>
   <v type="int" >        2       15       16       24      113 </v>
   <v type="int" >        2       16       24       25      113 </v>
   <v type="int" >        2       24       25      104      113 </v>
   <v type="int" >        2       15       24      105      113 </v>
   <v type="int" >        2       24       96      105      113 </v>
   <v type="int" >        2       24       96      104      113 </v>
   <v type="int" >        2        6       14       23      114 </v>
   <v type="int" >        2        6       15       23      114 </v>
   <v type="int" >        2       15       23      105      114 </v>
   <v type="int" >        2       14       23      114      115 </v>
   <v type="int" >        2       23      106      114      115 </v>
   <v type="int" >        2       23      105      106      114 </v>
   <v type="int" >        2       13       14       22      115 </v>
   <v type="int" >        2       14       22       23      115 </v>
   <v type="int" >        2       22       23      106      115 </v>
   <v type="int" >        2       13       22      115      116 </v>
   <v type="int" >        2       22      107      115      116 </v>
   <v type="int" >        2       22      106      107      115 </v>
   <v type="int" >        2       12       13       21      116 </v>
   <v type="int" >        2       13       21       22      116 </v>
   <v type="int" >        2       21       22      107      116 </v>
   <v type="int" >        2       12       21      116      117 </v>
   <v type="int" >        2       21      108      116      117 </v>
   <v type="int" >        2       21      107      108      116 </v>
   <v type="int" >        2       11       12       20      117 </v>
   <v type="int" >        2       12       20       21      117 </v>
   <v type="int" >        2       20       21      108      117 </v>
   <v type="int" >        2       11       20      117      118 </v>
   <v type="int" >        2       20      109      117      118 </v>
   <v type="int" >        2       20      108      109      117 </v>
   <v type="int" >        2       10       11       19      118 </v>
   <v type="int" >        2       11       19       20      118 </v>
   <v type="int" >        2       19       20      109      118 </v>
   <v type="int" >        2       10       19      118      119 </v>
   <v type="int" >        2       19      110      118      119 </v>
   <v type="int" >        2       19      109      110      118 </v>
   <v type="int" >        2        9       10       18      119 </v>
   <v type="int" >        2       10       18       19      119 </v>
   <v type="int" >        2       18       19      110      119 </v>
   <v type="int" >        2        9       18      119      120 </v>
   <v type="int" >        2       18      111      119      120 </v>
   <v type="int" >        2       18      110      111      119 </v>
   <v type="int" >        2        8        9       17      120 </v>
   <v type="int" >        2        9       17       18      120 </v>
   <v type="int" >        2       17       18      111      120 </v>
   <v type="int" >        2        8       17      120      121 </v>
   <v type="int" >        2       17      112      120      121 </v>
   <v type="int" >        2       17      111      112      120 </v>
   <v type="int" >        2        7        8       16      121 </v>
   <v type="int" >        2        8       16       17      121 </v>
   <v type="int" >        2       16       17      112      121 </v>
   <v type="int" >        2        7       16      121      122 </v>
   <v type="int" >        2       16      113      121      122 </v>
   <v type="int" >        2       16      112      113      121 </v>
   <v type="int" >        2        6        7       15      122 </v>
   <v type="int" >        2        7       15       16      122 </v>
   <v type="int" >        2       15       16      113      122 </v>
   <v type="int" >        2        6       15      114      122 </v>
   <v type="int" >        2       15      105      114      122 </v>
   <v type="int" >        2       15      105      113      122 </v>
   <v type="int" >        2        1        2       14       42 </v>
   <v type="int" >        2        1        6       14       42 </v>
   <v type="int" >        2        6       14       42      114 </v>
   <v type="int" >        2        2       14       42       43 </v>
   <v type="int" >        2       14       42       43      115 </v>
   <v type="int" >        2       14       42      114      115 </v>
   <v type="int" >        2        2        3       13       43 </v>
   <v type="int" >        2        2       13       14       43 </v>
   <v type="int" >        2       13       14       43      115 </v>
   <v type="int" >        2        3       13       43       44 </v>
   <v type="int" >        2       13       43       44      116 </v>
   <v type="int" >        2       13       43      115      116 </v>
   <v type="int" >        2        3        4       12       44 </v>
   <v type="int" >        2        3       12       13       44 </v>
   <v type="int" >        2       12       13       44      116 </v>
   <v type="int" >        2        4       12       44       45 </v>
   <v type="int" >        2       12       44       45      117 </v>
   <v type="int" >        2       12       44      116      117 </v>
   <v type="int" >        2        4        5       11       45 </v>
   <v type="int" >        2        4       11       12       45 </v>
   <v type="int" >        2       11       12       45      117 </v>
   <v type="int" >        2        5       11       45       46 </v>
   <v type="int" >        2       11       45       46      118 </v>
   <v type="int" >        2       11       45      117      118 </v>
   <v type="int" >        2        5        5       10       46 </v>
   <v type="int" >        2        5       10       11       46 </v>
   <v type="int" >        2       10       11       46      118 </v>
   <v type="int" >        2        5       10       46       47 </v>
   <v type="int" >        2       10       46       47      119 </v>
   <v type="int" >        2       10       46      118      119 </v>
   <v type="int" >        2        4        5        9       47 </v>
   <v type="int" >        2        5        9       10       47 </v>
   <v type="int" >        2        9       10       47      119 </v>
   <v type="int" >        2        4        9       47       48 </v>
   <v type="int" >        2        9       47       48      120 </v>
   <v type="int" >        2        9       47      119      120 </v>
   <v type="int" >        2        3        4        8       48 </v>
   <v type="int" >        2        4        8        9       48 </v>
   <v type="int" >        2        8        9       48      120 </v>
   <v type="int" >        2        3        8       48       49 </v>
   <v type="int" >        2        8       48       49      121 </v>
   <v type="int" >        2        8       48      120      121 </v>
   <v type="int" >        2        2        3        7       49 </v>
   <v type="int" >        2        3        7        8       49 </v>
   <v type="int" >        2        7        8       49      121 </v>
   <v type="int" >        2        2        7       49       50 </v>
   <v type="int" >        2        7       49       50      122 </v>
   <v type="int" >        2        7       49      121      122 </v>
   <v type="int" >        2        1        2        6       50 </v>
   <v type="int" >        2        2        6        7       50 </v>
   <v type="int" >        2        6        7       50      122 </v>
   <v type="int" >        2        1        6       42       50 </v>
   <v type="int" >        2        6       42       50      114 </v>
   <v type="int" >        2        6       50      114      122 </v>
   <v type="int" >        2       43       51       52      128 </v>
   <v type="int" >        2       42       43       51      128 </v>
   <v type="int" >        2       42       43      123      128 </v>
   <v type="int" >        2       43       52      128      129 </v>
   <v type="int" >        2       43      124      128      129 </v>
   <v type="int" >        2       43      123      124      128 </v>
   <v type="int" >        2       44       52       53      129 </v>
   <v type="int" >        2       43       44       52      129 </v>
   <v type="int" >        2       43       44      124      129 </v>
   <v type="int" >        2       44       53      129      130 </v>
   <v type="int" >        2       44      125      129      130 </v>
   <v type="int" >        2       44      124      125      129 </v>
   <v type="int" >        2       45       53       54      130 </v>
   <v type="int" >        2       44       45       53      130 </v>
   <v type="int" >        2       44       45      125      130 </v>
   <v type="int" >        2       45       54      130      131 </v>
   <v type="int" >        2       45      126      130      131 </v>
   <v type="int" >        2       45      125      126      130 </v>
   <v type="int" >        2       46       54       55      131 </v>
   <v type="int" >        2       45       46       54      131 </v>
   <v type="int" >        2       45       46      126      131 </v>
   <v type="int" >        2       46       55      131      132 </v>
   <v type="int" >        2       46      127      131      132 </v>
   <v type="int" >        2       46      126      127      131 </v>
   <v type="int" >        2       47       55       56      132 </v>
   <v type="int" >        2       46       47       55      132 </v>
   <v type="int" >        2       46       47      127      132 </v>
   <v type="int" >        2       47       56      132      133 </v>
   <v type="int" >        2       47      127      132      133 </v>
   <v type="int" >        2       47      127      127      132 </v>
   <v type="int" >        2       48       56       57      133 </v>
   <v type="int" >        2       47       48       56      133 </v>
   <v type="int" >        2       47       48      127      133 </v>
   <v type="int" >        2       48       57      133      134 </v>
   <v type="int" >        2       48      126      133      134 </v>
   <v type="int" >        2       48      126      127      133 </v>
   <v type="int" >        2       49       57       58      134 </v>
   <v type="int" >        2       48       49       57      134 </v>
   <v type="int" >        2       48       49      126      134 </v>
   <v type="int" >        2       49       58      134      135 </v>
   <v type="int" >        2       49      125      134      135 </v>
   <v type="int" >        2       49      125      126      134 </v>
   <v type="int" >        2       50       58       59      135 </v>
   <v type="int" >        2       49       50       58      135 </v>
   <v type="int" >        2       49       50      125      135 </v>
   <v type="int" >        2       50       59      135      136 </v>
   <v type="int" >        2       50      124      135      136 </v>
   <v type="int" >        2       50      124      125      135 </v>
   <v type="int" >        2       42       51       59      136 </v>
   <v type="int" >        2       42       50       59      136 </v>
   <v type="int" >        2       42       50      124      136 </v>
   <v type="int" >        2       42       51      128      136 </v>
   <v type="int" >        2       42      123      128      136 </v>
   <v type="int" >        2       42      123      124      136 </v>
   <v type="int" >        2       52       60       61      137 </v>
   <v type="int" >        2       51       52       60      137 </v>
   <v type="int" >        2       51       52      128      137 </v>
   <v type="int" >        2       52       61      137      138 </v>
   <v type="int" >        2       52      129      137      138 </v>
   <v type="int" >        2       52      128      129      137 </v>
   <v type="int" >        2       53       61       62      138 </v>
   <v type="int" >        2       52       53       61      138 </v>
   <v type="int" >        2       52       53      129      138 </v>
   <v type="int" >        2       53       62      138      139 </v>
   <v type="int" >        2       53      130      138      139 </v>
   <v type="int" >        2       53      129      130      138 </v>
   <v type="int" >        2       54       62       63      139 </v>
   <v type="int" >        2       53       54       62      139 </v>
   <v type="int" >        2       53       54      130      139 </v>
   <v type="int" >        2       54       63      139      140 </v>
   <v type="int" >        2       54      131      139      140 </v>
   <v type="int" >        2       54      130      131      139 </v>
   <v type="int" >        2       55       63       64      140 </v>
   <v type="int" >        2       54       55       63      140 </v>
   <v type="int" >        2       54       55      131      140 </v>
   <v type="int" >        2       55       64      140      141 </v>
   <v type="int" >        2       55      132      140      141 </v>
   <v type="int" >        2       55      131      132      140 </v>
   <v type="int" >        2       56       64       65      141 </v>
   <v type="int" >        2       55       56       64      141 </v>
   <v type="int" >        2       55       56      132      141 </v>
   <v type="int" >        2       56       65      141      142 </v>
   <v type="int" >        2       56      133      141      142 </v>
   <v type="int" >        2       56      132      133      141 </v>
   <v type="int" >        2       57       65       66      142 </v>
   <v type="int" >        2       56       57       65      142 </v>
   <v type="int" >        2       56       57      133      142 </v>
   <v type="int" >        2       57       66      142      143 </v>
   <v type="int" >        2       57      134      142      143 </v>
   <v type="int" >        2       57      133      134      142 </v>
   <v type="int" >        2       58       66       67      143 </v>
   <v type="int" >        2       57       58       66      143 </v>
   <v type="int" >        2       57       58      134      143 </v>
   <v type="int" >        2       58       67      143      144 </v>
   <v type="int" >        2       58      135      143      144 </v>
   <v type="int" >        2       58      134      135      143 </v>
   <v type="int" >        2       59       67       68      144 </v>
   <v type="int" >        2       58       59       67      144 </v>
   <v type="int" >        2       58       59      135      144 </v>
   <v type="int" >        2       59       68      144      145 </v>
   <v type="int" >        2       59      136      144      145 </v>
   <v type="int" >        2       59      135      136      144 </v>
   <v type="int" >        2       51       60       68      145 </v>
   <v type="int" >        2       51       59       68      145 </v>
   <v type="int" >        2       51       59      136      145 </v>
   <v type="int" >        2       51       60      137      145 </v>
   <v type="int" >        2       51      128      137      145 </v>
   <v type="int" >        2       51      128      136      145 </v>
   <v type="int" >        2       61       69       70      146 </v>
   <v type="int" >        2       60       61       69      146 </v>
   <v type="int" >        2       60       61      137      146 </v>
   <v type="int" >        2       61       70      146      147 </v>
   <v type="int" >        2       61      138      146      147 </v>
   <v type="int" >        2       61      137      138      146 </v>
   <v type="int" >        2       62       70       71      147 </v>
   <v type="int" >        2       61       62       70      147 </v>
   <v type="int" >        2       61       62      138      147 </v>
   <v type="int" >        2       62       71      147      148 </v>
   <v type="int" >        2       62      139      147      148 </v>
   <v type="int" >        2       62      138      139      147 </v>
   <v type="int" >        2       63       71       72      148 </v>
   <v type="int" >        2       62       63       71      148 </v>
   <v type="int" >        2       62       63      139      148 </v>
   <v type="int" >        2       63       72      148      149 </v>
   <v type="int" >        2       63      140      148      149 </v>
   <v type="int" >        2       63      139      140      148 </v>
   <v type="int" >        2       64       72       73      149 </v>
   <v type="int" >        2       63       64       72      149 </v>
   <v type="int" >        2       63       64      140      149 </v>
   <v type="int" >        2       64       73      149      150 </v>
   <v type="int" >        2       64      141      149      150 </v>
   <v type="int" >        2       64      140      141      149 </v>
   <v type="int" >        2       65       73       74      150 </v>
   <v type="int" >        2       64       65       73      150 </v>
   <v type="int" >        2       64       65      141      150 </v>
   <v type="int" >        2       65       74      150      151 </v>
   <v type="int" >        2       65      142      150      151 </v>
   <v type="int" >        2       65      141      142      150 </v>
   <v type="int" >        2       66       74       75      151 </v>
   <v type="int" >        2       65       66       74      151 </v>
   <v type="int" >        2       65       66      142      151 </v>
   <v type="int" >        2       66       75      151      152 </v>
   <v type="int" >        2       66      143      151      152 </v>
   <v type="int" >        2       66      142      143      151 </v>
   <v type="int" >        2       67       75       76      152 </v>
   <v type="int" >        2       66       67       75      152 </v>
   <v type="int" >        2       66       67      143      152 </v>
   <v type="int" >        2       67       76      152      153 </v>
   <v type="int" >        2       67      144      152      153 </v>
   <v type="int" >        2       67      143      144      152 </v>
   <v type="int" >        2       68       76       77      153 </v>
   <v type="int" >        2       67       68       76      153 </v>
   <v type="int" >        2       67       68      144      153 </v>
   <v type="int" >        2       68       77      153      154 </v>
   <v type="int" >        2       68      145      153      154 </v>
   <v type="int" >        2       68      144      145      153 </v>
   <v type="int" >        2       60       69       77      154 </v>
   <v type="int" >        2       60       68       77      154 </v>
   <v type="int" >        2       60       68      145      154 </v>
   <v type="int" >        2       60       69      146      154 </v>
   <v type="int" >        2       60      137      146      154 </v>
   <v type="int" >        2       60      137      145      154 </v>
   <v type="int" >        2       70       78       79      155 </v>
   <v type="int" >        2       69       70       78      155 </v>
   <v type="int" >        2       69       70      146      155 </v>
   <v type="int" >        2       70       79      155      156 </v>
   <v type="int" >        2       70      147      155      156 </v>
   <v type="int" >        2       70      146      147      155 </v>
   <v type="int" >        2       71       79       80      156 </v>
   <v type="int" >        2       70       71       79      156 </v>
   <v type="int" >        2       70       71      147      156 </v>
   <v type="int" >        2       71       80      156      157 </v>
   <v type="int" >        2       71      148      156      157 </v>
   <v type="int" >        2       71      147      148      156 </v>
   <v type="int" >        2       72       80       81      157 </v>
   <v type="int" >        2       71       72       80      157 </v>
   <v type="int" >        2       71       72      148      157 </v>
   <v type="int" >        2       72       81      157      158 </v>
   <v type="int" >        2       72      149      157      158 </v>
   <v type="int" >        2       72      148      149      157 </v>
   <v type="int" >        2       73       81       82      158 </v>
   <v type="int" >        2       72       73       81      158 </v>
   <v type="int" >        2       72       73      149      158 </v>
   <v type="int" >        2       73       82      158      159 </v>
   <v type="int" >        2       73      150      158      159 </v>
   <v type="int" >        2       73      149      150      158 </v>
   <v type="int" >        2       74       82       83      159 </v>
   <v type="int" >        2       73       74       82      159 </v>
   <v type="int" >        2       73       74      150      159 </v>
   <v type="int" >        2       74       83      159      160 </v>
   <v type="int" >        2       74      151      159      160 </v>
   <v type="int" >        2       74      150      151      159 </v>
   <v type="int" >        2       75       83       84      160 </v>
   <v type="int" >        2       74       75       83      160 </v>
   <v type="int" >        2       74       75      151      160 </v>
   <v type="int" >        2       75       84      160      161 </v>
   <v type="int" >        2       75      152      160      161 </v>
   <v type="int" >        2       75      151      152      160 </v>
   <v type="int" >        2       76       84       85      161 </v>
   <v type="int" >        2       75       76       84      161 </v>
   <v type="int" >        2       75       76      152      161 </v>
   <v type="int" >        2       76       85      161      162 </v>
   <v type="int" >        2       76      153      161      162 </v>
   <v type="int" >        2       76      152      153      161 </v>
   <v type="int" >        2       77       85       86      162 </v>
   <v type="int" >        2       76       77       85      162 </v>
   <v type="int" >        2       76       77      153      162 </v>
   <v type="int" >        2       77       86      162      163 </v>
   <v type="int" >        2       77      154      162      163 </v>
   <v type="int" >        2       77      153      154      162 </v>
   <v type="int" >        2       69       78       86      163 </v>
   <v type="int" >        2       69       77       86      163 </v>
   <v type="int" >        2       69       77      154      163 </v>
   <v type="int" >        2       69       78      155      163 </v>
   <v type="int" >        2       69      146      155      163 </v>
   <v type="int" >        2       69      146      154      163 </v>
   <v type="int" >        2       79       87       88      155 </v>
   <v type="int" >        2       78       79       87      155 </v>
   <v type="int" >        2       78       79      155      155 </v>
   <v type="int" >        2       79       88      155      163 </v>
   <v type="int" >        2       79      155      156      163 </v>
   <v type="int" >        2       79      155      155      156 </v>
   <v type="int" >        2       80       88       89      163 </v>
   <v type="int" >        2       79       80       88      163 </v>
   <v type="int" >        2       79       80      156      163 </v>
   <v type="int" >        2       80       89      162      163 </v>
   <v type="int" >        2       80      157      162      163 </v>
   <v type="int" >        2       80      156      157      163 </v>
   <v type="int" >        2       81       89       90      162 </v>
   <v type="int" >        2       80       81       89      162 </v>
   <v type="int" >        2       80       81      157      162 </v>
   <v type="int" >        2       81       90      161      162 </v>
   <v type="int" >        2       81      158      161      162 </v>
   <v type="int" >        2       81      157      158      162 </v>
   <v type="int" >        2       82       90       91      161 </v>
   <v type="int" >        2       81       82       90      161 </v>
   <v type="int" >        2       81       82      158      161 </v>
   <v type="int" >        2       82       91      160      161 </v>
   <v type="int" >        2       82      159      160      161 </v>
   <v type="int" >        2       82      158      159      161 </v>
   <v type="int" >        2       83       91       92      160 </v>
   <v type="int" >        2       82       83       91      160 </v>
   <v type="int" >        2       82       83      159      160 </v>
   <v type="int" >        2       83       92      159      160 </v>
   <v type="int" >        4       83      159      160      160 </v>
   <v type="int" >        2       84       92       93      159 </v>
   <v type="int" >        2       83       84       92      159 </v>
   <v type="int" >        2       83       84      159      160 </v>
   <v type="int" >        2       84       93      158      159 </v>
   <v type="int" >        2       84      158      159      161 </v>
   <v type="int" >        2       84      159      160      161 </v>
   <v type="int" >        2       85       93       94      158 </v>
   <v type="int" >        2       84       85       93      158 </v>
   <v type="int" >        2       84       85      158      161 </v>
   <v type="int" >        2       85       94      157      158 </v>
   <v type="int" >        2       85      157      158      162 </v>
   <v type="int" >        2       85      158      161      162 </v>
   <v type="int" >        2       86       94       95      157 </v>
   <v type="int" >        2       85       86       94      157 </v>
   <v type="int" >        2       85       86      157      162 </v>
   <v type="int" >        2       86       95      156      157 </v>
   <v type="int" >        2       86      156      157      163 </v>
   <v type="int" >        2       86      157      162      163 </v>
   <v type="int" >        2       78       87       95      156 </v>
   <v type="int" >        2       78       86       95      156 </v>
   <v type="int" >        2       78       86      156      163 </v>
   <v type="int" >        2       78       87      155      156 </v>
   <v type="int" >        2       78      155      155      156 </v>
   <v type="int" >        2       78      155      156      163 </v>
   <v type="int" >        2       88       96       97      146 </v>
   <v type="int" >        2       87       88       96      146 </v>
   <v type="int" >        2       87       88      146      155 </v>
   <v type="int" >        2       88       97      146      154 </v>
   <v type="int" >        2       88      146      154      163 </v>
   <v type="int" >        2       88      146      155      163 </v>
   <v type="int" >        2       89       97       98      154 </v>
   <v type="int" >        2       88       89       97      154 </v>
   <v type="int" >        2       88       89      154      163 </v>
   <v type="int" >        2       89       98      153      154 </v>
   <v type="int" >        2       89      153      154      162 </v>
   <v type="int" >        2       89      154      162      163 </v>
   <v type="int" >        2       90       98       99      153 </v>
   <v type="int" >        2       89       90       98      153 </v>
   <v type="int" >        2       89       90      153      162 </v>
   <v type="int" >        2       90       99      152      153 </v>
   <v type="int" >        2       90      152      153      161 </v>
   <v type="int" >        2       90      153      161      162 </v>
   <v type="int" >        2       91       99      100      152 </v>
   <v type="int" >        2       90       91       99      152 </v>
   <v type="int" >        2       90       91      152      161 </v>
   <v type="int" >        2       91      100      151      152 </v>
   <v type="int" >        2       91      151      152      160 </v>
   <v type="int" >        2       91      152      160      161 </v>
   <v type="int" >        2       92      100      101      151 </v>
   <v type="int" >        2       91       92      100      151 </v>
   <v type="int" >        2       91       92      151      160 </v>
   <v type="int" >        2       92      101      150      151 </v>
   <v type="int" >        2       92      150      151      159 </v>
   <v type="int" >        2       92      151      159      160 </v>
   <v type="int" >        2       93      101      102      150 </v>
   <v type="int" >        2       92       93      101      150 </v>
   <v type="int" >        2       92       93      150      159 </v>
   <v type="int" >        2       93      102      149      150 </v>
   <v type="int" >        2       93      149      150      158 </v>
   <v type="int" >        2       93      150      158      159 </v>
   <v type="int" >        2       94      102      103      149 </v>
   <v type="int" >        2       93       94      102      149 </v>
   <v type="int" >        2       93       94      149      158 </v>
   <v type="int" >        2       94      103      148      149 </v>
   <v type="int" >        2       94      148      149      157 </v>
   <v type="int" >        2       94      149      157      158 </v>
   <v type="int" >        2       95      103      104      148 </v>
   <v type="int" >        2       94       95      103      148 </v>
   <v type="int" >        2       94       95      148      157 </v>
   <v type="int" >        2       95      104      147      148 </v>
   <v type="int" >        2       95      147      148      156 </v>
   <v type="int" >        2       95      148      156      157 </v>
   <v type="int" >        2       87       96      104      147 </v>
   <v type="int" >        2       87       95      104      147 </v>
   <v type="int" >        2       87       95      147      156 </v>
   <v type="int" >        2       87       96      146      147 </v>
   <v type="int" >        2       87      146      147      155 </v>
   <v type="int" >        2       87      147      155      156 </v>
   <v type="int" >        2       97      105      106      137 </v>
   <v type="int" >        2       96       97      105      137 </v>
   <v type="int" >        2       96       97      137      146 </v>
   <v type="int" >        2       97      106      137      145 </v>
   <v type="int" >        2       97      137      145      154 </v>
   <v type="int" >        2       97      137      146      154 </v>
   <v type="int" >        2       98      106      107      145 </v>
   <v type="int" >        2       97       98      106      145 </v>
   <v type="int" >        2       97       98      145      154 </v>
   <v type="int" >        2       98      107      144      145 </v>
   <v type="int" >        2       98      144      145      153 </v>
   <v type="int" >        2       98      145      153      154 </v>
   <v type="int" >        2       99      107      108      144 </v>
   <v type="int" >        2       98       99      107      144 </v>
   <v type="int" >        2       98       99      144      153 </v>
   <v type="int" >        2       99      108      143      144 </v>
   <v type="int" >        2       99      143      144      152 </v>
   <v type="int" >        2       99      144      152      153 </v>
   <v type="int" >        2      100      108      109      143 </v>
   <v type="int" >        2       99      100      108      143 </v>
   <v type="int" >        2       99      100      143      152 </v>
   <v type="int" >        2      100      109      142      143 </v>
   <v type="int" >        2      100      142      143      151 </v>
   <v type="int" >        2      100      143      151      152 </v>
   <v type="int" >        2      101      109      110      142 </v>
   <v type="int" >        2      100      101      109      142 </v>
   <v type="int" >        2      100      101      142      151 </v>
   <v type="int" >        2      101      110      141      142 </v>
   <v type="int" >        2      101      141      142      150 </v>
   <v type="int" >        2      101      142      150      151 </v>
   <v type="int" >        2      102      110      111      141 </v>
   <v type="int" >        2      101      102      110      141 </v>
   <v type="int" >        2      101      102      141      150 </v>
   <v type="int" >        2      102      111      140      141 </v>
   <v type="int" >        2      102      140      141      149 </v>
   <v type="int" >        2      102      141      149      150 </v>
   <v type="int" >        2      103      111      112      140 </v>
   <v type="int" >        2      102      103      111      140 </v>
   <v type="int" >        2      102      103      140      149 </v>
   <v type="int" >        2      103      112      139      140 </v>
   <v type="int" >        2      103      139      140      148 </v>
   <v type="int" >        2      103      140      148      149 </v>
   <v type="int" >        2      104      112      113      139 </v>
   <v type="int" >        2      103      104      112      139 </v>
   <v type="int" >        2      103      104      139      148 </v>
   <v type="int" >        2      104      113      138      139 </v>
   <v type="int" >        2      104      138      139      147 </v>
   <v type="int" >        2      104      139      147      148 </v>
   <v type="int" >        2       96      105      113      138 </v>
   <v type="int" >        2       96      104      113      138 </v>
   <v type="int" >        2       96      104      138      147 </v>
   <v type="int" >        2       96      105      137      138 </v>
   <v type="int" >        2       96      137      138      146 </v>
   <v type="int" >        2       96      138      146      147 </v>
   <v type="int" >        2      106      114      115      128 </v>
   <v type="int" >        2      105      106      114      128 </v>
   <v type="int" >        2      105      106      128      137 </v>
   <v type="int" >        2      106      115      128      136 </v>
   <v type="int" >        2      106      128      136      145 </v>
   <v type="int" >        2      106      128      137      145 </v>
   <v type="int" >        2      107      115      116      136 </v>
   <v type="int" >        2      106      107      115      136 </v>
   <v type="int" >        2      106      107      136      145 </v>
   <v type="int" >        2      107      116      135      136 </v>
   <v type="int" >        2      107      135      136      144 </v>
   <v type="int" >        2      107      136      144      145 </v>
   <v type="int" >        2      108      116      117      135 </v>
   <v type="int" >        2      107      108      116      135 </v>
   <v type="int" >        2      107      108      135      144 </v>
   <v type="int" >        2      108      117      134      135 </v>
   <v type="int" >        2      108      134      135      143 </v>
   <v type="int" >        2      108      135      143      144 </v>
   <v type="int" >        2      109      117      118      134 </v>
   <v type="int" >        2      108      109      117      134 </v>
   <v type="int" >        2      108      109      134      143 </v>
   <v type="int" >        2      109      118      133      134 </v>
   <v type="int" >        2      109      133      134      142 </v>
   <v type="int" >        2      109      134      142      143 </v>
   <v type="int" >        2      110      118      119      133 </v>
   <v type="int" >        2      109      110      118      133 </v>
   <v type="int" >        2      109      110      133      142 </v>
   <v type="int" >        2      110      119      132      133 </v>
   <v type="int" >        2      110      132      133      141 </v>
   <v type="int" >        2      110      133      141      142 </v>
   <v type="int" >        2      111      119      120      132 </v>
   <v type="int" >        2      110      111      119      132 </v>
   <v type="int" >        2      110      111      132      141 </v>
   <v type="int" >        2      111      120      131      132 </v>
   <v type="int" >        2      111      131      132      140 </v>
   <v type="int" >        2      111      132      140      141 </v>
   <v type="int" >        2      112      120      121      131 </v>
   <v type="int" >        2      111      112      120      131 </v>
   <v type="int" >        2      111      112      131      140 </v>
   <v type="int" >        2      112      121      130      131 </v>
   <v type="int" >        2      112      130      131      139 </v>
   <v type="int" >        2      112      131      139      140 </v>
   <v type="int" >        2      113      121      122      130 </v>
   <v type="int" >        2      112      113      121      130 </v>
   <v type="int" >        2      112      113      130      139 </v>
   <v type="int" >        2      113      122      129      130 </v>
   <v type="int" >        2      113      129      130      138 </v>
   <v type="int" >        2      113      130      138      139 </v>
   <v type="int" >        2      105      114      122      129 </v>
   <v type="int" >        2      105      113      122      129 </v>
   <v type="int" >        2      105      113      129      138 </v>
   <v type="int" >        2      105      114      128      129 </v>
   <v type="int" >        2      105      128      129      137 </v>
   <v type="int" >        2      105      129      137      138 </v>
   <v type="int" >        2       42       43      115      123 </v>
   <v type="int" >        2       42      114      115      123 </v>
[...]
       <r>   -3.9249    1.0000 </r>
       <r>   -3.9247    1.0000 </r>
       <r>   -3.8136    1.0000 </r>
       <r>   -3.8133    1.0000 </r>
       <r>   -2.7275    1.0000 </r>
       <r>   -2.7258    1.0000 </r>
       <r>   -2.6516    1.0000 </r>
       <r>   -2.6498    1.0000 </r>
       <r>   -2.2508    1.0000 </r>
       <r>   -2.2496    1.0000 </r>
       <r>   -1.0575    1.0000 </r>
       <r>   -1.0561    1.0000 </r>
       <r>   -0.9912    1.0000 </r>
       <r>   -0.9897    1.0000 </r>
       <r>   -0.8080    1.0000 </r>
       <r>   -0.8072    1.0000 </r>
       <r>   -0.7544    1.0000 </r>
       <r>   -0.7537    1.0000 </r>
       <r>   -0.7178    1.0000 </r>
       <r>   -0.7167    1.0000 </r>
       <r>   -0.7047    1.0000 </r>
       <r>   -0.7034    1.0000 </r>
       <r>    0.3218    1.0000 </r>
       <r>    0.3235    1.0000 </r>
       <r>    0.3637    1.0000 </r>
       <r>    0.3651    1.0000 </r>
       <r>    0.7152    1.0000 </r>
       <r>    0.7165    1.0000 </r>
       <r>    0.7399    1.0000 </r>
       <r>    0.7408    1.0000 </r>
       <r>    2.0336    1.0000 </r>
       <r>    2.0348    1.0000 </r>
       <r>    2.6887    1.0000 </r>
       <r>    2.6900    1.0000 </r>
       <r>    3.6395    1.0000 </r>
       <r>    3.6412    1.0000 </r>
       <r>    6.4439    0.0000 </r>
       <r>    6.4468    0.0000 </r>
       <r>    6.9497    0.0000 </r>
       <r>    6.9513    0.0000 </r>
       <r>    8.4383    0.0000 </r>
       <r>    8.4401    0.0000 </r>
       <r>    9.0267    0.0000 </r>
       <r>    9.0279    0.0000 </r>
       <r>   10.2676    0.0000 </r>
       <r>   10.2703    0.0000 </r>
       <r>   10.9356    0.0000 </r>
       <r>   10.9375    0.0000 </r>
       <r>   11.4689    0.0000 </r>
       <r>   11.4720    0.0000 </r>
       <r>   12.8324    0.0000 </r>
       <r>   12.8345    0.0000 </r>
       <r>   13.0312    0.0000 </r>
       <r>   13.0319    0.0000 </r>
       <r>   13.2743    0.0000 </r>
       <r>   13.2835    0.0000 </r>
      </set>
     </set>
    </set>
   </array>
  </eigenvalues>
  <separator name="orbital magnetization" >
   <v name="MAGDIPOLOUT">      0.00000000      0.00000000      0.00000000</v>
  </separator>
  <dos>
   <i name="efermi">      4.95177612 </i>
   <total>
    <array>
     <dimension dim="1">gridpoints</dimension>
     <dimension dim="2">spin</dimension>
     <field>energy</field>
     <field>total</field>
     <field>integrated</field>
     <set>
      <set comment="spin 1">
       <r>   -16.7057     0.0000     0.0000 </r>
       <r>   -16.5955     0.0000     0.0000 </r>
       <r>   -16.4854     0.0000     0.0000 </r>
       <r>   -16.3753     0.0000     0.0000 </r>
       <r>   -16.2651     0.0000     0.0000 </r>
       <r>   -16.1550     0.0000     0.0000 </r>
       <r>   -16.0448     0.0000     0.0000 </r>
       <r>   -15.9347     0.0000     0.0000 </r>
       <r>   -15.8246     0.0000     0.0000 </r>
       <r>   -15.7144     0.0000     0.0000 </r>
       <r>   -15.6043     0.0000     0.0000 </r>
       <r>   -15.4942     0.0000     0.0000 </r>
       <r>   -15.3840     0.0000     0.0000 </r>
       <r>   -15.2739     0.0000     0.0000 </r>
       <r>   -15.1637     0.0000     0.0000 </r>
       <r>   -15.0536     0.0000     0.0000 </r>
       <r>   -14.9435     0.0000     0.0000 </r>
       <r>   -14.8333     0.0000     0.0000 </r>
       <r>   -14.7232     0.0000     0.0000 </r>
       <r>   -14.6130     1.4458     0.0708 </r>
       <r>   -14.5029     2.4595     0.2834 </r>
       <r>   -14.3928     3.3811     0.6083 </r>
       <r>   -14.2826     5.0000     1.0609 </r>
       <r>   -14.1725     4.9859     1.6053 </r>
       <r>   -14.0624     4.8608     2.1512 </r>
       <r>   -13.9522     4.9318     2.6885 </r>
       <r>   -13.8421     4.9968     3.2363 </r>
       <r>   -13.7319     4.9267     3.7821 </r>
       <r>   -13.6218     4.9607     4.3256 </r>
       <r>   -13.5117     5.2850     4.8798 </r>
       <r>   -13.4015     5.6154     5.4827 </r>
       <r>   -13.2914     6.4974     6.1260 </r>
       <r>   -13.1813     6.7935     6.8677 </r>
       <r>   -13.0711     4.2221     7.3991 </r>
       <r>   -12.9610     2.0557     7.7402 </r>
       <r>   -12.8508     3.6991     8.0554 </r>
       <r>   -12.7407     4.1231     8.4659 </r>
       <r>   -12.6306     8.1745     9.0998 </r>
       <r>   -12.5204     5.4204     9.7618 </r>
       <r>   -12.4103     6.1899    10.4028 </r>
       <r>   -12.3002     4.4296    10.9878 </r>
       <r>   -12.1900     4.6803    11.4892 </r>
       <r>   -12.0799     4.8622    12.0161 </r>
       <r>   -11.9697     4.9940    12.5600 </r>
       <r>   -11.8596     5.0932    13.1137 </r>
       <r>   -11.7495     5.3590    13.6840 </r>
       <r>   -11.6393     5.7293    14.3171 </r>
       <r>   -11.5292     5.1018    14.9100 </r>
       <r>   -11.4191     5.0355    15.4677 </r>
       <r>   -11.3089     5.0022    16.0194 </r>
       <r>   -11.1988     5.0533    16.5703 </r>
       <r>   -11.0886     5.1390    17.1321 </r>
       <r>   -10.9785     5.1909    17.7009 </r>
       <r>   -10.8684     5.4466    18.2877 </r>
       <r>   -10.7582     5.6214    18.8978 </r>
       <r>   -10.6481     5.9426    19.5345 </r>
       <r>   -10.5380     5.8855    20.1848 </r>
       <r>   -10.4278     5.9146    20.8340 </r>
       <r>   -10.3177     5.5864    21.4816 </r>
       <r>   -10.2075     4.4406    22.0357 </r>
       <r>   -10.0974     4.4051    22.5131 </r>
       <r>    -9.9873     5.1323    23.0477 </r>
       <r>    -9.8771     5.3588    23.6275 </r>
       <r>    -9.7670     5.5376    24.2272 </r>
       <r>    -9.6569     5.7793    24.8495 </r>
       <r>    -9.5467     6.8285    25.5347 </r>
       <r>    -9.4366     8.4959    26.3573 </r>
       <r>    -9.3264     8.8386    27.3935 </r>
       <r>    -9.2163     6.8657    28.1954 </r>
       <r>    -9.1062     5.5462    28.9069 </r>
       <r>    -8.9960     3.7497    29.5097 </r>
       <r>    -8.8859     3.3659    29.9014 </r>
       <r>    -8.7758     2.9851    30.2511 </r>
       <r>    -8.6656     2.6041    30.5589 </r>
       <r>    -8.5555     2.4872    30.8293 </r>
       <r>    -8.4453     2.7670    31.1449 </r>
       <r>    -8.3352     2.2058    31.4193 </r>
       <r>    -8.2251     1.5682    31.6122 </r>
       <r>    -8.1149     2.4235    31.8295 </r>
       <r>    -8.0048     6.3219    32.2399 </r>
       <r>    -7.8946     4.5521    32.9614 </r>
       <r>    -7.7845     3.9092    33.4275 </r>
       <r>    -7.6744     4.2358    33.8740 </r>
       <r>    -7.5642     6.2217    34.4947 </r>
       <r>    -7.4541     6.8667    35.2734 </r>
       <r>    -7.3440     7.2192    36.0110 </r>
       <r>    -7.2338     8.4170    36.8694 </r>
       <r>    -7.1237     8.0169    37.8158 </r>
       <r>    -7.0135     6.2950    38.6040 </r>
       <r>    -6.9034     6.0167    39.2820 </r>
       <r>    -6.7933     5.7492    39.9296 </r>
       <r>    -6.6831     5.5255    40.5500 </r>
       <r>    -6.5730     5.3294    41.1476 </r>
       <r>    -6.4629     5.1478    41.7246 </r>
       <r>    -6.3527     4.9505    42.2808 </r>
       <r>    -6.2426     4.8426    42.8188 </r>
       <r>    -6.1324     4.8184    43.3508 </r>
       <r>    -6.0223     4.7850    43.8797 </r>
       <r>    -5.9122     4.5968    44.3958 </r>
       <r>    -5.8020     4.4370    44.8938 </r>
       <r>    -5.6919     3.6588    45.3596 </r>
       <r>    -5.5818     4.1076    45.7690 </r>
       <r>    -5.4716     4.5096    46.2350 </r>
       <r>    -5.3615     5.2196    46.7689 </r>
       <r>    -5.2513     5.9956    47.3861 </r>
       <r>    -5.1412     8.0805    48.1232 </r>
       <r>    -5.0311    10.4504    49.1399 </r>
       <r>    -4.9209     7.9826    50.1550 </r>
       <r>    -4.8108     5.5148    50.8982 </r>
       <r>    -4.7007     3.0704    51.3698 </r>
       <r>    -4.5905     2.5231    51.6574 </r>
       <r>    -4.4804     3.4342    51.9786 </r>
       <r>    -4.3702     4.8293    52.4319 </r>
       <r>    -4.2601     6.3446    53.0442 </r>
       <r>    -4.1500     7.9359    53.8403 </r>
       <r>    -4.0398     7.6143    54.7188 </r>
       <r>    -3.9297     6.3202    55.4845 </r>
       <r>    -3.8196     5.3796    56.1214 </r>
       <r>    -3.7094     7.6451    56.8509 </r>
       <r>    -3.5993     7.5091    57.6739 </r>
       <r>    -3.4891     7.2463    58.4910 </r>
       <r>    -3.3790     7.1100    59.2779 </r>
       <r>    -3.2689     8.5030    60.1172 </r>
       <r>    -3.1587     9.9743    61.1058 </r>
       <r>    -3.0486     7.7733    62.1291 </r>
       <r>    -2.9385     8.9010    63.0921 </r>
       <r>    -2.8283     7.7690    64.0124 </r>
       <r>    -2.7182     6.8357    64.8042 </r>
       <r>    -2.6080     7.5678    65.5931 </r>
       <r>    -2.4979     8.6537    66.4817 </r>
       <r>    -2.3878    10.8609    67.5467 </r>
       <r>    -2.2776    13.2396    68.8693 </r>
       <r>    -2.1675    11.9381    70.3287 </r>
       <r>    -2.0573    10.6375    71.5356 </r>
       <r>    -1.9472    12.5539    72.8236 </r>
       <r>    -1.8371    13.1008    74.2024 </r>
       <r>    -1.7269    14.2665    75.7976 </r>
       <r>    -1.6168    14.3082    77.3118 </r>
       <r>    -1.5067    11.2487    79.0036 </r>
       <r>    -1.3965    14.4610    80.1809 </r>
       <r>    -1.2864    18.2243    82.2580 </r>
       <r>    -1.1762    19.4800    84.3137 </r>
       <r>    -1.0661    14.6917    86.1694 </r>
       <r>    -0.9560    12.6883    87.6708 </r>
       <r>    -0.8458    11.8358    89.0130 </r>
       <r>    -0.7357     7.8078    90.1217 </r>
       <r>    -0.6256     8.1633    90.9754 </r>
       <r>    -0.5154    10.4335    91.9886 </r>
       <r>    -0.4053    14.0752    93.4441 </r>
       <r>    -0.2951    18.3906    95.0879 </r>
       <r>    -0.1850     8.6850    96.3535 </r>
       <r>    -0.0749     8.9448    97.3353 </r>
       <r>     0.0353     9.9706    98.3715 </r>
       <r>     0.1454    10.7617    99.5154 </r>
       <r>     0.2555    11.0644   100.7180 </r>
       <r>     0.3657     9.7718   101.9085 </r>
       <r>     0.4758     9.5458   102.9610 </r>
       <r>     0.5860     9.4415   104.0149 </r>
       <r>     0.6961     9.6646   105.0619 </r>
       <r>     0.8062    10.0045   106.1366 </r>
       <r>     0.9164     9.2828   107.1986 </r>
       <r>     1.0265     9.2747   108.2226 </r>
       <r>     1.1366     9.2151   109.2397 </r>
       <r>     1.2468     9.3101   110.2581 </r>
       <r>     1.3569     9.3888   111.2874 </r>
       <r>     1.4671     9.7863   112.3394 </r>
       <r>     1.5772     9.0195   113.3860 </r>
       <r>     1.6873     9.2638   114.3577 </r>
       <r>     1.7975     9.3800   115.4045 </r>
       <r>     1.9076     8.5387   116.4498 </r>
       <r>     2.0177     6.6433   117.2662 </r>
       <r>     2.1279     5.8063   117.9552 </r>
       <r>     2.2380     5.9094   118.6017 </r>
       <r>     2.3482     4.4396   119.1804 </r>
       <r>     2.4583     4.5268   119.6512 </r>
       <r>     2.5684     7.2407   120.2664 </r>
       <r>     2.6786     8.0810   121.1168 </r>
       <r>     2.7887     7.2470   121.9916 </r>
       <r>     2.8988     3.6891   122.6341 </r>
       <r>     3.0090     6.4233   123.2830 </r>
       <r>     3.1191     7.2962   124.0263 </r>
       <r>     3.2293     5.1937   124.7002 </r>
       <r>     3.3394     4.2585   125.2164 </r>
       <r>     3.4495     3.6451   125.6489 </r>
       <r>     3.5597     3.1860   126.0233 </r>
       <r>     3.6698     2.8826   126.3575 </r>
       <r>     3.7799     2.5735   126.6584 </r>
       <r>     3.8901     2.1550   126.9194 </r>
       <r>     4.0002     1.8527   127.1381 </r>
       <r>     4.1104     1.6035   127.3284 </r>
       <r>     4.2205     1.3533   127.4912 </r>
       <r>     4.3306     1.1413   127.6281 </r>
       <r>     4.4408     0.9666   127.7436 </r>
       <r>     4.5509     0.8137   127.8433 </r>
       <r>     4.6611     0.5749   127.9197 </r>
       <r>     4.7712     0.3454   127.9703 </r>
       <r>     4.8813     0.1238   127.9961 </r>
       <r>     4.9915     0.0300   128.0004 </r>
       <r>     5.1016     0.1673   128.0112 </r>
       <r>     5.2117     0.3141   128.0376 </r>
       <r>     5.3219     0.4711   128.0807 </r>
       <r>     5.4320     0.6428   128.1419 </r>
       <r>     5.5422     0.8299   128.2229 </r>
       <r>     5.6523     1.0554   128.3261 </r>
       <r>     5.7624     1.3341   128.4569 </r>
       <r>     5.8726     1.7001   128.6239 </r>
       <r>     5.9827     2.0558   128.8304 </r>
       <r>     6.0928     2.4342   129.0781 </r>
       <r>     6.2030     3.1832   129.3825 </r>
       <r>     6.3131     3.8660   129.7970 </r>
       <r>     6.4233     4.6983   130.2798 </r>
       <r>     6.5334    13.4635   131.1728 </r>
       <r>     6.6435     8.3208   132.2279 </r>
       <r>     6.7537     7.5196   133.1071 </r>
       <r>     6.8638     7.7440   133.9307 </r>
       <r>     6.9739     7.9546   134.7583 </r>
       <r>     7.0841     6.0609   135.5214 </r>
       <r>     7.1942     5.5995   136.1670 </r>
       <r>     7.3044     5.2805   136.7643 </r>
       <r>     7.4145     4.2812   137.3078 </r>
       <r>     7.5246     3.6885   137.7458 </r>
       <r>     7.6348     3.4592   138.1345 </r>
       <r>     7.7449     3.6838   138.5242 </r>
       <r>     7.8550     4.1138   138.9582 </r>
       <r>     7.9652     4.4541   139.4292 </r>
       <r>     8.0753     4.7633   139.9384 </r>
       <r>     8.1855     4.8120   140.4733 </r>
       <r>     8.2956     4.5916   140.9911 </r>
       <r>     8.4057     4.3813   141.4850 </r>
       <r>     8.5159     4.1519   141.9550 </r>
       <r>     8.6260     3.9400   142.3996 </r>
       <r>     8.7361     3.8238   142.8287 </r>
       <r>     8.8463     3.6690   143.2402 </r>
       <r>     8.9564     3.5790   143.6392 </r>
       <r>     9.0666     3.4955   144.0288 </r>
       <r>     9.1767     3.3577   144.4066 </r>
       <r>     9.2868     3.2286   144.7688 </r>
       <r>     9.3970     3.1799   145.1212 </r>
       <r>     9.5071     3.1751   145.4707 </r>
       <r>     9.6172     3.3172   145.8251 </r>
       <r>     9.7274     3.6128   146.2125 </r>
       <r>     9.8375     3.6089   146.6098 </r>
       <r>     9.9477     3.6038   147.0059 </r>
       <r>    10.0578     3.6484   147.4052 </r>
       <r>    10.1679     3.7182   147.8101 </r>
       <r>    10.2781     3.8079   148.2251 </r>
       <r>    10.3882     3.8557   148.6476 </r>
       <r>    10.4984     3.7962   149.0693 </r>
       <r>    10.6085     3.7667   149.4855 </r>
       <r>    10.7186     3.7423   149.8990 </r>
       <r>    10.8288     4.1956   150.3237 </r>
       <r>    10.9389     4.5372   150.8087 </r>
       <r>    11.0490     4.7526   151.3211 </r>
       <r>    11.1592     4.7688   151.8498 </r>
       <r>    11.2693     4.6972   152.3574 </r>
       <r>    11.3795     4.8358   152.8851 </r>
       <r>    11.4896     4.6706   153.4831 </r>
       <r>    11.5997     3.2979   153.8718 </r>
       <r>    11.7099     3.1355   154.2299 </r>
       <r>    11.8200     2.8924   154.5545 </r>
       <r>    11.9301     3.3436   154.9008 </r>
       <r>    12.0403     3.6494   155.2847 </r>
       <r>    12.1504     3.9692   155.6921 </r>
       <r>    12.2606     6.1000   156.2541 </r>
       <r>    12.3707     7.0067   156.9559 </r>
       <r>    12.4808     9.9762   157.8869 </r>
       <r>    12.5910    12.2508   159.1480 </r>
       <r>    12.7011    13.2544   160.5657 </r>
       <r>    12.8112    12.6868   162.0536 </r>
       <r>    12.9214    11.8468   163.4169 </r>
       <r>    13.0315     9.7241   164.6074 </r>
       <r>    13.1417     7.5465   165.5519 </r>
       <r>    13.2518     6.2540   166.2968 </r>
       <r>    13.3619     5.9418   166.9841 </r>
       <r>    13.4721     3.4612   167.5049 </r>
       <r>    13.5822     1.9361   167.8125 </r>
       <r>    13.6923     0.6659   167.9502 </r>
       <r>    13.8025     0.0772   167.9863 </r>
       <r>    13.9126     0.0486   167.9931 </r>
       <r>    14.0228     0.0266   167.9972 </r>
       <r>    14.1329     0.0112   167.9992 </r>
       <r>    14.2430     0.0023   167.9999 </r>
       <r>    14.3532     0.0000   168.0000 </r>
       <r>    14.4633     0.0000   168.0000 </r>
       <r>    14.5734     0.0000   168.0000 </r>
       <r>    14.6836     0.0000   168.0000 </r>
       <r>    14.7937     0.0000   168.0000 </r>
       <r>    14.9039     0.0000   168.0000 </r>
       <r>    15.0140     0.0000   168.0000 </r>
       <r>    15.1241     0.0000   168.0000 </r>
       <r>    15.2343     0.0000   168.0000 </r>
       <r>    15.3444     0.0000   168.0000 </r>
       <r>    15.4545     0.0000   168.0000 </r>
       <r>    15.5647     0.0000   168.0000 </r>
       <r>    15.6748     0.0000   168.0000 </r>
       <r>    15.7850     0.0000   168.0000 </r>
       <r>    15.8951     0.0000   168.0000 </r>
       <r>    16.0052     0.0000   168.0000 </r>
       <r>    16.1154     0.0000   168.0000 </r>
       <r>    16.2255     0.0000   168.0000 </r>
       <r>    16.3356     0.0000   168.0000 </r>
      </set>
     </set>
    </array>
   </total>
  </dos>
 </calculation>
 <structure name="finalpos" >
  <crystal>
   <varray name="basis" >
    <v>       4.93287450      -0.00191929       0.00000000 </v>
    <v>      -2.46809940       4.27103499       0.00000000 </v>
    <v>       0.00000000       0.00000000      12.99823143 </v>
   </varray>
   <i name="volume">    273.79140069 </i>
   <varray name="rec_basis" >
    <v>       0.20276715       0.11717288       0.00000000 </v>
    <v>       0.00009112       0.23418794       0.00000000 </v>
    <v>       0.00000000       0.00000000       0.07693354 </v>
   </varray>
  </crystal>
  <varray name="positions" >
   <v>       0.49967330       0.00032672       0.12500000 </v>
   <v>       0.99967330       0.00032672       0.12500000 </v>
   <v>       0.49967330       0.50032672       0.12500000 </v>
   <v>       0.99967330       0.50032672       0.12500000 </v>
   <v>       0.49967330       0.00032672       0.62500000 </v>
   <v>       0.99967330       0.00032672       0.62500000 </v>
   <v>       0.49967330       0.50032672       0.62500000 </v>
   <v>       0.99967330       0.50032672       0.62500000 </v>
   <v>       0.00032672       0.49967330       0.37500000 </v>
   <v>       0.50032672       0.49967330       0.37500000 </v>
   <v>       0.00032672       0.99967330       0.37500000 </v>
   <v>       0.50032672       0.99967330       0.37500000 </v>
   <v>       0.00032672       0.49967330       0.87500000 </v>
   <v>       0.50032672       0.49967330       0.87500000 </v>
   <v>       0.00032672       0.99967330       0.87500000 </v>
   <v>       0.50032672       0.99967330       0.87500000 </v>
   <v>       0.16701174       0.33370753       0.12571928 </v>
   <v>       0.66629246       0.33370753       0.12500000 </v>
   <v>       0.16629246       0.83370753       0.12500000 </v>
   <v>       0.66629246       0.83370753       0.12500000 </v>
   <v>       0.16629246       0.33370753       0.62500000 </v>
   <v>       0.66629246       0.33370753       0.62500000 </v>
   <v>       0.16629246       0.83370753       0.62500000 </v>
   <v>       0.66629246       0.83370753       0.62500000 </v>
   <v>       0.33370753       0.16629246       0.37500000 </v>
   <v>       0.83370753       0.16629246       0.37500000 </v>
   <v>       0.33370753       0.66629246       0.37500000 </v>
   <v>       0.83370753       0.66629246       0.37500000 </v>
   <v>       0.33370753       0.16629246       0.87500000 </v>
   <v>       0.83370753       0.16629246       0.87500000 </v>
   <v>       0.33370753       0.66629246       0.87500000 </v>
   <v>       0.83370753       0.66629246       0.87500000 </v>
  </varray>
 </structure>
</modeling>
