32   
4    

1    
  0.0033841136739855  -0.0000001525293057   0.0094099827108385
  -0.2127435600    0.0041246900   -0.1350878900
   0.0321663900    0.0031395300   -0.0052446900
  -0.0032739400   -0.0173211100   -0.0051812800
  -0.0033744600    0.0236629500   -0.0053211900
  -0.0065659200    0.0031785700    0.0017626400
  -0.0065491500    0.0031794000    0.0017836400
  -0.0065566400    0.0031744300    0.0017836500
  -0.0065561000    0.0031831100    0.0017835100
   0.0051151100   -0.0031009400   -0.0018075400
   0.0049708700   -0.0031857300   -0.0018577500
   0.0051154800   -0.0030193800   -0.0018324800
   0.0049537800   -0.0031080000   -0.0012388800
   0.0057075400   -0.0029234900   -0.0019004300
   0.0058346000   -0.0030039800   -0.0018528800
   0.0058403900   -0.0030774700   -0.0018766100
   0.0056800300   -0.0030082500   -0.0012122200
   0.0034255900   -0.0026571100    0.0120659000
   0.0302662500   -0.0032883500    0.0474697900
   0.0746872100    0.0229390100    0.0478774100
   0.0750097800   -0.0285398500    0.0470113500
   0.0056143600   -0.0026506400   -0.0002726200
   0.0056144000   -0.0026505400   -0.0002596400
   0.0056150400   -0.0026505700   -0.0002602500
   0.0056145700   -0.0026507500   -0.0002591000
  -0.0044654400    0.0026394700    0.0006209500
  -0.0040796400    0.0027305500    0.0006543800
  -0.0043523200    0.0023544900    0.0006441400
  -0.0042017000    0.0025726700    0.0000740600
  -0.0044663400    0.0023509200    0.0006394200
  -0.0047828400    0.0024430600    0.0006065900
  -0.0047047400    0.0026743900    0.0006154700
  -0.0045586100    0.0024889200    0.0000725400

1    
 -0.0033841136739855   0.0000001525293057  -0.0094099827108385
   0.2016622400    0.0040347100    0.1351882100
  -0.0432549700    0.0031353300    0.0052128200
  -0.0076710200    0.0236856600    0.0052743500
  -0.0077602000   -0.0173548300    0.0051654400
  -0.0045786400    0.0031855900   -0.0017776200
  -0.0045941100    0.0031840600   -0.0017986300
  -0.0045861500    0.0031888800   -0.0017985400
  -0.0045887200    0.0031810100   -0.0017989000
   0.0051496900   -0.0033110700    0.0018035900
   0.0052832500   -0.0032285700    0.0018509800
   0.0051456700   -0.0033836300    0.0018264600
   0.0053088100   -0.0033039200    0.0011620700
   0.0060108400   -0.0032963100    0.0019108300
   0.0058700200   -0.0032139000    0.0018609300
   0.0058694100   -0.0031310700    0.0018861000
   0.0060320700   -0.0032100200    0.0012922800
   0.0061170200   -0.0028356000   -0.0120233600
  -0.0207194000   -0.0034455300   -0.0474392400
  -0.0653970000   -0.0286742400   -0.0470197500
  -0.0651635200    0.0227796700   -0.0478107800
   0.0037709200   -0.0027078100    0.0002701500
   0.0037694200   -0.0027059000    0.0002574700
   0.0037682200   -0.0027071800    0.0002568400
   0.0037714700   -0.0027078800    0.0002578000
  -0.0046021300    0.0028693600   -0.0006502100
  -0.0049225700    0.0027769800   -0.0006776800
  -0.0046819000    0.0030984700   -0.0006672200
  -0.0048302600    0.0029156200   -0.0001120100
  -0.0052392900    0.0029531400   -0.0006353500
  -0.0048564700    0.0028604100   -0.0006007900
  -0.0049671500    0.0025730400   -0.0006133900
  -0.0051155600    0.0027955200   -0.0000528500

17   
  0.0033841136739855  -0.0000001525293057   0.0094099827108385
  -0.0073485300    0.0032012400    0.0105918400
   0.0194996600    0.0038087300    0.0459957700
   0.0641951000    0.0290419700    0.0455696500
   0.0639602300   -0.0224275800    0.0463739400
  -0.0037260800    0.0031885200   -0.0018105700
  -0.0037229500    0.0031910200   -0.0017971100
  -0.0037252900    0.0031874900   -0.0017988100
  -0.0037219900    0.0031884300   -0.0017953700
   0.0054003800   -0.0031100300    0.0021077200
   0.0054902100   -0.0029883900    0.0022288600
   0.0053411000   -0.0031063200    0.0021670500
   0.0055099300   -0.0030631300    0.0016056100
   0.0058588500   -0.0030628300    0.0021585000
   0.0057655100   -0.0029951100    0.0020338400
   0.0057555100   -0.0029696400    0.0020954600
   0.0058809300   -0.0030126000    0.0015442800
  -0.2000868500   -0.0036101400   -0.1357380200
   0.0445774800   -0.0027071700   -0.0071741300
   0.0095381800   -0.0229472400   -0.0072335200
   0.0096360000    0.0174665100   -0.0071296700
   0.0027634100   -0.0026462200    0.0002370000
   0.0027585500   -0.0026468700    0.0001369500
   0.0027623200   -0.0026446200    0.0001370300
   0.0027602600   -0.0026476800    0.0001372000
  -0.0058277300    0.0026545900   -0.0000656900
  -0.0055218200    0.0026703300    0.0000762600
  -0.0056877000    0.0023995000   -0.0000088400
  -0.0056889900    0.0025693800   -0.0002085100
  -0.0054509300    0.0024168600   -0.0000158900
  -0.0057531800    0.0024166800   -0.0000961100
  -0.0056004600    0.0026755900   -0.0000677200
  -0.0055911200    0.0025087200   -0.0002569800

17   
 -0.0033841136739855   0.0000001525293057  -0.0094099827108385
  -0.0037600200    0.0032063000   -0.0106013200
  -0.0306018100    0.0038316800   -0.0459991600
  -0.0750285000   -0.0223929600   -0.0464101800
  -0.0753457800    0.0290884100   -0.0455433400
  -0.0077902500    0.0031946800    0.0016981500
  -0.0077981100    0.0031999900    0.0016852600
  -0.0078009000    0.0031958000    0.0016832900
  -0.0077913400    0.0031926400    0.0016872000
   0.0052484300   -0.0030881600   -0.0019917400
   0.0051638000   -0.0031566700   -0.0021157400
   0.0052648000   -0.0030568200   -0.0020534900
   0.0051362100   -0.0031009500   -0.0015018500
   0.0055253600   -0.0028571100   -0.0021568700
   0.0056062400   -0.0029782200   -0.0020332900
   0.0056700600   -0.0029799600   -0.0020940900
   0.0055029400   -0.0029364800   -0.0015323700
   0.2111148900   -0.0039550400    0.1358168300
  -0.0335488700   -0.0029661000    0.0072373200
   0.0013912400    0.0172029100    0.0071759800
   0.0014938400   -0.0232083600    0.0073152100
   0.0069335400   -0.0026766100   -0.0002832800
   0.0069452500   -0.0026815000   -0.0001830600
   0.0069421400   -0.0026788600   -0.0001832300
   0.0069339700   -0.0026713600   -0.0001834900
  -0.0042861200    0.0026434300    0.0000617000
  -0.0045876800    0.0026447300   -0.0000152600
  -0.0044386100    0.0029050700    0.0000269400
  -0.0044469900    0.0027338800    0.0002219300
  -0.0045723000    0.0026836000   -0.0000585100
  -0.0042656900    0.0026667100    0.0000851900
  -0.0044048500    0.0024106000    0.0000199900
  -0.0044048800    0.0025847000    0.0002253000
