mesh: [     9,     9,     4 ]
nqpoint: 50     
reciprocal_lattice:
- [   0.40533564,   0.23404500,   0.00000000 ] # a*
- [   0.00002110,   0.46805346,   0.00000000 ] # b*
- [   0.00000000,   0.00000000,   0.14576713 ] # c*
natom:   4      
lattice:
- [     2.467155442383188,    -0.000111200019553,     0.000000000000000 ] # a
- [    -1.233674023183305,     2.136563688137034,     0.000000000000000 ] # b
- [     0.000000000000000,     0.000000000000000,     6.860257158689070 ] # c
points:
- symbol: C  # 1
  coordinates: [  0.999999697166835,  0.000000349172772,  0.250000000000000 ]
  mass: 12.010700
- symbol: C  # 2
  coordinates: [  0.000000349172772,  0.999999697166835,  0.750000000000000 ]
  mass: 12.010700
- symbol: C  # 3
  coordinates: [  0.333298929956719,  0.666701052703672,  0.250000000000000 ]
  mass: 12.010700
- symbol: C  # 4
  coordinates: [  0.666701052703672,  0.333298929956719,  0.750000000000000 ]
  mass: 12.010700
phonon:
- q-position: [    0.0000000,    0.0000000,    0.1250000 ]
  weight: 2    
  band:
  - # 1
    frequency:    -5.2320289026
  - # 2
    frequency:    -3.6977373154
  - # 3
    frequency:    -1.1163674881
  - # 4
    frequency:    -1.0043297284
  - # 5
    frequency:     0.6432835533
  - # 6
    frequency:     3.2170067599
  - # 7
    frequency:    24.8157669463
  - # 8
    frequency:    26.1239272520
  - # 9
    frequency:    44.5105126566
  - # 10
    frequency:    44.6147366696
  - # 11
    frequency:    44.9415675927
  - # 12
    frequency:    45.0861967044

- q-position: [    0.1111111,    0.0000000,    0.1250000 ]
  weight: 8    
  band:
  - # 1
    frequency:     4.0534098233
  - # 2
    frequency:     4.4148520542
  - # 3
    frequency:     5.1728069847
  - # 4
    frequency:     5.9639794718
  - # 5
    frequency:    10.4269768462
  - # 6
    frequency:    11.4521306786
  - # 7
    frequency:    24.3261359495
  - # 8
    frequency:    25.5273665860
  - # 9
    frequency:    44.2706765643
  - # 10
    frequency:    44.7352861930
  - # 11
    frequency:    44.7435376801
  - # 12
    frequency:    45.1041808169

- q-position: [    0.2222222,    0.0000000,    0.1250000 ]
  weight: 8    
  band:
  - # 1
    frequency:     7.7944759104
  - # 2
    frequency:     8.4718977712
  - # 3
    frequency:    10.8896999991
  - # 4
    frequency:    11.5308460583
  - # 5
    frequency:    21.5776122012
  - # 6
    frequency:    22.0734841540
  - # 7
    frequency:    22.9661479105
  - # 8
    frequency:    23.8732783769
  - # 9
    frequency:    43.5466870360
  - # 10
    frequency:    43.9115404100
  - # 11
    frequency:    44.8735006979
  - # 12
    frequency:    45.1517457399

- q-position: [    0.3333333,    0.0000000,    0.1250000 ]
  weight: 8    
  band:
  - # 1
    frequency:    11.1109064531
  - # 2
    frequency:    11.5883532170
  - # 3
    frequency:    15.5989439504
  - # 4
    frequency:    15.9316529581
  - # 5
    frequency:    21.0482862992
  - # 6
    frequency:    21.5551717714
  - # 7
    frequency:    30.7119574695
  - # 8
    frequency:    30.9981238538
  - # 9
    frequency:    42.5845374361
  - # 10
    frequency:    42.8018667181
  - # 11
    frequency:    44.2570954825
  - # 12
    frequency:    44.4167975213

- q-position: [    0.4444444,    0.0000000,    0.1250000 ]
  weight: 8    
  band:
  - # 1
    frequency:    13.6542495408
  - # 2
    frequency:    13.9335405101
  - # 3
    frequency:    18.3198439794
  - # 4
    frequency:    18.4261302434
  - # 5
    frequency:    19.1981286126
  - # 6
    frequency:    19.3428754471
  - # 7
    frequency:    37.5848883797
  - # 8
    frequency:    37.7133906004
  - # 9
    frequency:    41.8629309346
  - # 10
    frequency:    41.9316780187
  - # 11
    frequency:    42.0709846440
  - # 12
    frequency:    42.1060147671

- q-position: [    0.1111111,    0.1111111,    0.1250000 ]
  weight: 4    
  band:
  - # 1
    frequency:     7.1299153692
  - # 2
    frequency:     7.7748165800
  - # 3
    frequency:    10.0483398870
  - # 4
    frequency:    10.7326732236
  - # 5
    frequency:    18.3707699953
  - # 6
    frequency:    19.0461442063
  - # 7
    frequency:    23.3316330794
  - # 8
    frequency:    24.3185031758
  - # 9
    frequency:    43.8553884462
  - # 10
    frequency:    44.2899397016
  - # 11
    frequency:    44.8113301126
  - # 12
    frequency:    45.0916617619

- q-position: [    0.2222222,    0.1111111,    0.1250000 ]
  weight: 8    
  band:
  - # 1
    frequency:    10.3624533050
  - # 2
    frequency:    10.7906584787
  - # 3
    frequency:    15.5044815357
  - # 4
    frequency:    15.9802747875
  - # 5
    frequency:    21.6237450898
  - # 6
    frequency:    22.2488819867
  - # 7
    frequency:    26.9002728582
  - # 8
    frequency:    27.3165515473
  - # 9
    frequency:    43.2012073871
  - # 10
    frequency:    43.4832884817
  - # 11
    frequency:    44.3972686191
  - # 12
    frequency:    44.6283632486

- q-position: [    0.3333333,    0.1111111,    0.1250000 ]
  weight: 8    
  band:
  - # 1
    frequency:    13.1498166495
  - # 2
    frequency:    13.4264685415
  - # 3
    frequency:    19.4449499021
  - # 4
    frequency:    19.6343387413
  - # 5
    frequency:    19.7585018664
  - # 6
    frequency:    19.8604550689
  - # 7
    frequency:    34.0977106715
  - # 8
    frequency:    34.3459093144
  - # 9
    frequency:    42.2451865831
  - # 10
    frequency:    42.3990477662
  - # 11
    frequency:    43.1479204727
  - # 12
    frequency:    43.2651848896

- q-position: [   -0.5555556,    0.1111111,    0.1250000 ]
  weight: 8    
  band:
  - # 1
    frequency:    14.3790869689
  - # 2
    frequency:    14.6292450164
  - # 3
    frequency:    18.5723147754
  - # 4
    frequency:    18.6120441990
  - # 5
    frequency:    20.9753313515
  - # 6
    frequency:    21.1174813282
  - # 7
    frequency:    39.2552033725
  - # 8
    frequency:    39.3191586662
  - # 9
    frequency:    39.5420899721
  - # 10
    frequency:    39.6010643877
  - # 11
    frequency:    42.5027359643
  - # 12
    frequency:    42.5239141720

- q-position: [   -0.4444444,    0.1111111,    0.1250000 ]
  weight: 8    
  band:
  - # 1
    frequency:    12.4960839944
  - # 2
    frequency:    12.9920387618
  - # 3
    frequency:    19.6199718618
  - # 4
    frequency:    19.6556690629
  - # 5
    frequency:    19.9545375741
  - # 6
    frequency:    20.2500491493
  - # 7
    frequency:    34.1930537219
  - # 8
    frequency:    34.2968434522
  - # 9
    frequency:    42.2530548868
  - # 10
    frequency:    42.3649618987
  - # 11
    frequency:    43.1677659850
  - # 12
    frequency:    43.2019095735

- q-position: [   -0.3333333,    0.1111111,    0.1250000 ]
  weight: 8    
  band:
  - # 1
    frequency:     9.5432867219
  - # 2
    frequency:    10.2467927815
  - # 3
    frequency:    15.6391040765
  - # 4
    frequency:    15.8975143340
  - # 5
    frequency:    21.9093446356
  - # 6
    frequency:    22.5924623492
  - # 7
    frequency:    27.0505030997
  - # 8
    frequency:    27.2630315305
  - # 9
    frequency:    43.2024918975
  - # 10
    frequency:    43.4313512582
  - # 11
    frequency:    44.4039001578
  - # 12
    frequency:    44.5946470934

- q-position: [   -0.2222222,    0.1111111,    0.1250000 ]
  weight: 8    
  band:
  - # 1
    frequency:     6.2748277053
  - # 2
    frequency:     7.2443075805
  - # 3
    frequency:     9.8902542997
  - # 4
    frequency:    10.6621312982
  - # 5
    frequency:    18.6938856300
  - # 6
    frequency:    18.9873499210
  - # 7
    frequency:    23.5165140573
  - # 8
    frequency:    24.5405457640
  - # 9
    frequency:    43.9003284186
  - # 10
    frequency:    44.1895519059
  - # 11
    frequency:    44.7632513056
  - # 12
    frequency:    45.1370259784

- q-position: [   -0.1111111,    0.1111111,    0.1250000 ]
  weight: 4    
  band:
  - # 1
    frequency:     3.3848346941
  - # 2
    frequency:     3.5099049623
  - # 3
    frequency:     4.8912077017
  - # 4
    frequency:     5.9139327519
  - # 5
    frequency:    10.9516605354
  - # 6
    frequency:    11.4194163631
  - # 7
    frequency:    24.3897228209
  - # 8
    frequency:    25.6037713660
  - # 9
    frequency:    44.3463689503
  - # 10
    frequency:    44.6427392181
  - # 11
    frequency:    44.6602249859
  - # 12
    frequency:    45.1829854961

- q-position: [    0.2222222,    0.2222222,    0.1250000 ]
  weight: 4    
  band:
  - # 1
    frequency:    12.9717170665
  - # 2
    frequency:    13.2428909511
  - # 3
    frequency:    19.7887052811
  - # 4
    frequency:    20.0445500593
  - # 5
    frequency:    21.3689463149
  - # 6
    frequency:    21.6858300355
  - # 7
    frequency:    31.7481204268
  - # 8
    frequency:    32.0165066044
  - # 9
    frequency:    42.7359439662
  - # 10
    frequency:    42.9163988135
  - # 11
    frequency:    43.2058315916
  - # 12
    frequency:    43.3339900236

- q-position: [    0.3333333,    0.2222222,    0.1250000 ]
  weight: 8    
  band:
  - # 1
    frequency:    15.0517929157
  - # 2
    frequency:    15.2229442239
  - # 3
    frequency:    17.9454256498
  - # 4
    frequency:    18.0132943715
  - # 5
    frequency:    25.2940141663
  - # 6
    frequency:    25.4995032622
  - # 7
    frequency:    35.9113653347
  - # 8
    frequency:    36.0632415274
  - # 9
    frequency:    39.8393064775
  - # 10
    frequency:    39.9396083690
  - # 11
    frequency:    43.3462304283
  - # 12
    frequency:    43.3554051857

- q-position: [   -0.5555556,    0.2222222,    0.1250000 ]
  weight: 8    
  band:
  - # 1
    frequency:    14.3194256665
  - # 2
    frequency:    14.7370889373
  - # 3
    frequency:    18.4458299742
  - # 4
    frequency:    18.5039427641
  - # 5
    frequency:    25.3763117434
  - # 6
    frequency:    25.4794489709
  - # 7
    frequency:    35.9945748062
  - # 8
    frequency:    36.0163060582
  - # 9
    frequency:    39.8361592074
  - # 10
    frequency:    39.8953145784
  - # 11
    frequency:    43.3212433270
  - # 12
    frequency:    43.3571241838

- q-position: [   -0.4444444,    0.2222222,    0.1250000 ]
  weight: 8    
  band:
  - # 1
    frequency:    11.9129156315
  - # 2
    frequency:    12.5328393584
  - # 3
    frequency:    20.2899992387
  - # 4
    frequency:    20.6517835648
  - # 5
    frequency:    21.5500758081
  - # 6
    frequency:    21.5993183713
  - # 7
    frequency:    31.9159414425
  - # 8
    frequency:    31.9349212953
  - # 9
    frequency:    42.7503365817
  - # 10
    frequency:    42.8509990703
  - # 11
    frequency:    43.2068332323
  - # 12
    frequency:    43.2722840240

- q-position: [   -0.3333333,    0.2222222,    0.1250000 ]
  weight: 8    
  band:
  - # 1
    frequency:     9.2762622089
  - # 2
    frequency:    10.0906291940
  - # 3
    frequency:    15.5684499990
  - # 4
    frequency:    15.8871512589
  - # 5
    frequency:    21.9926782824
  - # 6
    frequency:    22.6945865258
  - # 7
    frequency:    27.1762306261
  - # 8
    frequency:    27.2273683471
  - # 9
    frequency:    43.2431492406
  - # 10
    frequency:    43.3852155124
  - # 11
    frequency:    44.3532052781
  - # 12
    frequency:    44.6235064286

- q-position: [   -0.2222222,    0.2222222,    0.1250000 ]
  weight: 4    
  band:
  - # 1
    frequency:     6.9837484409
  - # 2
    frequency:     7.9810796492
  - # 3
    frequency:    10.7158641501
  - # 4
    frequency:    11.4631509299
  - # 5
    frequency:    21.8836239673
  - # 6
    frequency:    22.0136784181
  - # 7
    frequency:    23.1597308008
  - # 8
    frequency:    24.1075756508
  - # 9
    frequency:    43.6064121343
  - # 10
    frequency:    43.8184377330
  - # 11
    frequency:    44.8046916812
  - # 12
    frequency:    45.1924559119

- q-position: [   -0.6666667,    0.3333333,    0.1250000 ]
  weight: 4    
  band:
  - # 1
    frequency:    16.0495431828
  - # 2
    frequency:    16.2498958440
  - # 3
    frequency:    16.8500684950
  - # 4
    frequency:    16.9739784101
  - # 5
    frequency:    28.9054211615
  - # 6
    frequency:    28.9180088632
  - # 7
    frequency:    37.0055610724
  - # 8
    frequency:    37.0219820881
  - # 9
    frequency:    37.0554099787
  - # 10
    frequency:    37.0848130828
  - # 11
    frequency:    43.6632772539
  - # 12
    frequency:    43.7051059983

- q-position: [   -0.5555556,    0.3333333,    0.1250000 ]
  weight: 8    
  band:
  - # 1
    frequency:    14.3117463507
  - # 2
    frequency:    14.7048176877
  - # 3
    frequency:    18.4659592810
  - # 4
    frequency:    18.5179928271
  - # 5
    frequency:    25.4141001833
  - # 6
    frequency:    25.4549889629
  - # 7
    frequency:    35.9860504320
  - # 8
    frequency:    36.0141608097
  - # 9
    frequency:    39.8583102316
  - # 10
    frequency:    39.8765508136
  - # 11
    frequency:    43.3268566017
  - # 12
    frequency:    43.3485256881

- q-position: [   -0.4444444,    0.3333333,    0.1250000 ]
  weight: 8    
  band:
  - # 1
    frequency:    12.3797568299
  - # 2
    frequency:    12.9357940137
  - # 3
    frequency:    19.5839646390
  - # 4
    frequency:    19.6556604277
  - # 5
    frequency:    20.0051873949
  - # 6
    frequency:    20.3117622158
  - # 7
    frequency:    34.2456771039
  - # 8
    frequency:    34.2937599235
  - # 9
    frequency:    42.2846637585
  - # 10
    frequency:    42.3223358532
  - # 11
    frequency:    43.1191503937
  - # 12
    frequency:    43.2365495883

- q-position: [   -0.3333333,    0.3333333,    0.1250000 ]
  weight: 4    
  band:
  - # 1
    frequency:    10.4692895838
  - # 2
    frequency:    11.1988006049
  - # 3
    frequency:    15.6108353878
  - # 4
    frequency:    15.8570063273
  - # 5
    frequency:    21.2889791278
  - # 6
    frequency:    21.8486957908
  - # 7
    frequency:    30.8909414958
  - # 8
    frequency:    30.9544789027
  - # 9
    frequency:    42.6296286710
  - # 10
    frequency:    42.7277278333
  - # 11
    frequency:    44.2015869403
  - # 12
    frequency:    44.4269134214

- q-position: [   -0.5555556,    0.4444444,    0.1250000 ]
  weight: 4    
  band:
  - # 1
    frequency:    14.2992709815
  - # 2
    frequency:    14.5446986484
  - # 3
    frequency:    18.6328598878
  - # 4
    frequency:    18.6854754336
  - # 5
    frequency:    21.0440932678
  - # 6
    frequency:    21.0645488497
  - # 7
    frequency:    39.2792494802
  - # 8
    frequency:    39.2901625554
  - # 9
    frequency:    39.5511946830
  - # 10
    frequency:    39.6001993298
  - # 11
    frequency:    42.5056506440
  - # 12
    frequency:    42.5076728452

- q-position: [   -0.4444444,    0.4444444,    0.1250000 ]
  weight: 4    
  band:
  - # 1
    frequency:    13.4919690193
  - # 2
    frequency:    13.8553294560
  - # 3
    frequency:    18.3543704221
  - # 4
    frequency:    18.3823868625
  - # 5
    frequency:    19.2783810247
  - # 6
    frequency:    19.4398013275
  - # 7
    frequency:    37.6433337611
  - # 8
    frequency:    37.6997141739
  - # 9
    frequency:    41.8835191219
  - # 10
    frequency:    41.8919280409
  - # 11
    frequency:    42.0305068888
  - # 12
    frequency:    42.1267305119

- q-position: [    0.0000000,    0.0000000,    0.3750000 ]
  weight: 2    
  band:
  - # 1
    frequency:    -4.5885693203
  - # 2
    frequency:    -3.5724204758
  - # 3
    frequency:    -3.1530716746
  - # 4
    frequency:    -2.7124929025
  - # 5
    frequency:     1.8518395119
  - # 6
    frequency:     2.8106281579
  - # 7
    frequency:    25.6714748105
  - # 8
    frequency:    26.2102964910
  - # 9
    frequency:    43.5231535037
  - # 10
    frequency:    43.5493658951
  - # 11
    frequency:    43.6850158272
  - # 12
    frequency:    43.7660716363

- q-position: [    0.1111111,    0.0000000,    0.3750000 ]
  weight: 8    
  band:
  - # 1
    frequency:     4.3879568738
  - # 2
    frequency:     4.7866158829
  - # 3
    frequency:     4.8844597374
  - # 4
    frequency:     5.4479309855
  - # 5
    frequency:    10.6626000443
  - # 6
    frequency:    11.1014526282
  - # 7
    frequency:    25.1085538905
  - # 8
    frequency:    25.6034067543
  - # 9
    frequency:    43.3783908960
  - # 10
    frequency:    43.5752033120
  - # 11
    frequency:    43.8221084751
  - # 12
    frequency:    43.9741154079

- q-position: [    0.2222222,    0.0000000,    0.3750000 ]
  weight: 8    
  band:
  - # 1
    frequency:     7.9637989376
  - # 2
    frequency:     8.2542232424
  - # 3
    frequency:    11.0989898569
  - # 4
    frequency:    11.3684726374
  - # 5
    frequency:    21.7208167988
  - # 6
    frequency:    21.9297937905
  - # 7
    frequency:    23.5489745836
  - # 8
    frequency:    23.9227702088
  - # 9
    frequency:    42.9415088181
  - # 10
    frequency:    43.0938319242
  - # 11
    frequency:    44.2708810334
  - # 12
    frequency:    44.3862343991

- q-position: [    0.3333333,    0.0000000,    0.3750000 ]
  weight: 8    
  band:
  - # 1
    frequency:    11.2142387576
  - # 2
    frequency:    11.4138149221
  - # 3
    frequency:    15.7337733666
  - # 4
    frequency:    15.8723353425
  - # 5
    frequency:    21.3635447993
  - # 6
    frequency:    21.5724687012
  - # 7
    frequency:    30.8376759973
  - # 8
    frequency:    30.9568992886
  - # 9
    frequency:    42.3270118240
  - # 10
    frequency:    42.4171970596
  - # 11
    frequency:    43.9792375363
  - # 12
    frequency:    44.0450119305

- q-position: [    0.4444444,    0.0000000,    0.3750000 ]
  weight: 8    
  band:
  - # 1
    frequency:    13.7286000537
  - # 2
    frequency:    13.8444684084
  - # 3
    frequency:    18.3579887507
  - # 4
    frequency:    18.4020321663
  - # 5
    frequency:    19.2712379503
  - # 6
    frequency:    19.3309886424
  - # 7
    frequency:    37.6602811937
  - # 8
    frequency:    37.7134053573
  - # 9
    frequency:    41.8420162450
  - # 10
    frequency:    41.8704655186
  - # 11
    frequency:    42.0089558014
  - # 12
    frequency:    42.0233178858

- q-position: [    0.1111111,    0.1111111,    0.3750000 ]
  weight: 4    
  band:
  - # 1
    frequency:     7.3283537292
  - # 2
    frequency:     7.6073644959
  - # 3
    frequency:    10.1302931301
  - # 4
    frequency:    10.4218893197
  - # 5
    frequency:    18.5173946967
  - # 6
    frequency:    18.8022335697
  - # 7
    frequency:    23.9642676076
  - # 8
    frequency:    24.3710886654
  - # 9
    frequency:    43.2040940416
  - # 10
    frequency:    43.3857429873
  - # 11
    frequency:    44.1216020885
  - # 12
    frequency:    44.2375162200

- q-position: [    0.2222222,    0.1111111,    0.3750000 ]
  weight: 8    
  band:
  - # 1
    frequency:    10.4872646194
  - # 2
    frequency:    10.6673090335
  - # 3
    frequency:    15.5944598700
  - # 4
    frequency:    15.7939139616
  - # 5
    frequency:    22.0100072872
  - # 6
    frequency:    22.2678604164
  - # 7
    frequency:    26.9911788616
  - # 8
    frequency:    27.1648151192
  - # 9
    frequency:    42.8738650781
  - # 10
    frequency:    42.9904922045
  - # 11
    frequency:    44.0528006892
  - # 12
    frequency:    44.1481156961

- q-position: [    0.3333333,    0.1111111,    0.3750000 ]
  weight: 8    
  band:
  - # 1
    frequency:    13.2317471012
  - # 2
    frequency:    13.3462723238
  - # 3
    frequency:    19.5184422956
  - # 4
    frequency:    19.6486863734
  - # 5
    frequency:    19.7561084967
  - # 6
    frequency:    19.8494006350
  - # 7
    frequency:    34.1706824158
  - # 8
    frequency:    34.2735124482
  - # 9
    frequency:    42.1977164025
  - # 10
    frequency:    42.2614536508
  - # 11
    frequency:    43.0827800295
  - # 12
    frequency:    43.1309152663

- q-position: [   -0.5555556,    0.1111111,    0.3750000 ]
  weight: 8    
  band:
  - # 1
    frequency:    14.4436678152
  - # 2
    frequency:    14.5481101479
  - # 3
    frequency:    18.5790717501
  - # 4
    frequency:    18.5952519012
  - # 5
    frequency:    21.0507909115
  - # 6
    frequency:    21.1095597723
  - # 7
    frequency:    39.2868650519
  - # 8
    frequency:    39.3135197033
  - # 9
    frequency:    39.5868646021
  - # 10
    frequency:    39.6034932755
  - # 11
    frequency:    42.5262547207
  - # 12
    frequency:    42.5347012170

- q-position: [   -0.4444444,    0.1111111,    0.3750000 ]
  weight: 8    
  band:
  - # 1
    frequency:    12.5667930793
  - # 2
    frequency:    12.7735332274
  - # 3
    frequency:    19.7672254934
  - # 4
    frequency:    19.7818979034
  - # 5
    frequency:    20.1439479841
  - # 6
    frequency:    20.2656644816
  - # 7
    frequency:    34.3180343998
  - # 8
    frequency:    34.3607561705
  - # 9
    frequency:    42.1227001614
  - # 10
    frequency:    42.1690373495
  - # 11
    frequency:    43.0013277661
  - # 12
    frequency:    43.0150900211

- q-position: [   -0.3333333,    0.1111111,    0.3750000 ]
  weight: 8    
  band:
  - # 1
    frequency:     9.6554869280
  - # 2
    frequency:     9.9526635991
  - # 3
    frequency:    15.9191118933
  - # 4
    frequency:    16.0258055299
  - # 5
    frequency:    22.3519978908
  - # 6
    frequency:    22.6332669502
  - # 7
    frequency:    27.1853397051
  - # 8
    frequency:    27.2739337264
  - # 9
    frequency:    42.7704291816
  - # 10
    frequency:    42.8660040472
  - # 11
    frequency:    43.9788425578
  - # 12
    frequency:    44.0571018564

- q-position: [   -0.2222222,    0.1111111,    0.3750000 ]
  weight: 8    
  band:
  - # 1
    frequency:     6.4752184691
  - # 2
    frequency:     6.8949055257
  - # 3
    frequency:    10.2829682687
  - # 4
    frequency:    10.6047444545
  - # 5
    frequency:    18.8396048157
  - # 6
    frequency:    18.9627634720
  - # 7
    frequency:    24.1851709166
  - # 8
    frequency:    24.6068270351
  - # 9
    frequency:    43.1466364065
  - # 10
    frequency:    43.2682213600
  - # 11
    frequency:    44.0457115269
  - # 12
    frequency:    44.2009378698

- q-position: [   -0.1111111,    0.1111111,    0.3750000 ]
  weight: 4    
  band:
  - # 1
    frequency:     3.8883875476
  - # 2
    frequency:     4.3093334856
  - # 3
    frequency:     4.4956205075
  - # 4
    frequency:     5.3443407347
  - # 5
    frequency:    11.1094667851
  - # 6
    frequency:    11.3086302645
  - # 7
    frequency:    25.1845264620
  - # 8
    frequency:    25.6844657866
  - # 9
    frequency:    43.3865172764
  - # 10
    frequency:    43.5097847475
  - # 11
    frequency:    43.7646262352
  - # 12
    frequency:    43.9848302090

- q-position: [    0.2222222,    0.2222222,    0.3750000 ]
  weight: 4    
  band:
  - # 1
    frequency:    13.0564315160
  - # 2
    frequency:    13.1686460355
  - # 3
    frequency:    19.9279934470
  - # 4
    frequency:    20.0335852659
  - # 5
    frequency:    21.4452116695
  - # 6
    frequency:    21.5767579845
  - # 7
    frequency:    31.8015939683
  - # 8
    frequency:    31.9125599123
  - # 9
    frequency:    42.6737350023
  - # 10
    frequency:    42.7496952228
  - # 11
    frequency:    43.1359825732
  - # 12
    frequency:    43.1898925782

- q-position: [    0.3333333,    0.2222222,    0.3750000 ]
  weight: 8    
  band:
  - # 1
    frequency:    15.1064009247
  - # 2
    frequency:    15.1788175206
  - # 3
    frequency:    17.9240054817
  - # 4
    frequency:    17.9510086849
  - # 5
    frequency:    25.3821362168
  - # 6
    frequency:    25.4671080928
  - # 7
    frequency:    35.9791188101
  - # 8
    frequency:    36.0420948804
  - # 9
    frequency:    39.9451065588
  - # 10
    frequency:    39.9870175269
  - # 11
    frequency:    43.4012608334
  - # 12
    frequency:    43.4048939311

- q-position: [   -0.5555556,    0.2222222,    0.3750000 ]
  weight: 8    
  band:
  - # 1
    frequency:    14.3586058047
  - # 2
    frequency:    14.5335977492
  - # 3
    frequency:    18.4918034720
  - # 4
    frequency:    18.5156158936
  - # 5
    frequency:    25.5542054558
  - # 6
    frequency:    25.5967207519
  - # 7
    frequency:    36.1114187260
  - # 8
    frequency:    36.1205729836
  - # 9
    frequency:    39.8194615475
  - # 10
    frequency:    39.8444652632
  - # 11
    frequency:    43.3429375859
  - # 12
    frequency:    43.3572129544

- q-position: [   -0.4444444,    0.2222222,    0.3750000 ]
  weight: 8    
  band:
  - # 1
    frequency:    11.9775037672
  - # 2
    frequency:    12.2368342525
  - # 3
    frequency:    20.5325030459
  - # 4
    frequency:    20.6814493477
  - # 5
    frequency:    21.8018258070
  - # 6
    frequency:    21.8221444984
  - # 7
    frequency:    32.0231254749
  - # 8
    frequency:    32.0306510199
  - # 9
    frequency:    42.5362368225
  - # 10
    frequency:    42.5792533019
  - # 11
    frequency:    43.0252267103
  - # 12
    frequency:    43.0508106786

- q-position: [   -0.3333333,    0.2222222,    0.3750000 ]
  weight: 8    
  band:
  - # 1
    frequency:     9.3875270859
  - # 2
    frequency:     9.7321246429
  - # 3
    frequency:    15.8547343435
  - # 4
    frequency:    15.9876682803
  - # 5
    frequency:    22.4537966268
  - # 6
    frequency:    22.7427453931
  - # 7
    frequency:    27.3431118899
  - # 8
    frequency:    27.3642878480
  - # 9
    frequency:    42.7970285429
  - # 10
    frequency:    42.8560546297
  - # 11
    frequency:    43.8952097257
  - # 12
    frequency:    44.0074893978

- q-position: [   -0.2222222,    0.2222222,    0.3750000 ]
  weight: 4    
  band:
  - # 1
    frequency:     7.1529285639
  - # 2
    frequency:     7.5817736690
  - # 3
    frequency:    11.0741072139
  - # 4
    frequency:    11.3864282061
  - # 5
    frequency:    22.0895939086
  - # 6
    frequency:    22.1444222739
  - # 7
    frequency:    23.7820069171
  - # 8
    frequency:    24.1721724774
  - # 9
    frequency:    42.9303380631
  - # 10
    frequency:    43.0187968839
  - # 11
    frequency:    44.1450916855
  - # 12
    frequency:    44.3077611917

- q-position: [   -0.6666667,    0.3333333,    0.3750000 ]
  weight: 4    
  band:
  - # 1
    frequency:    16.0366623199
  - # 2
    frequency:    16.1338920995
  - # 3
    frequency:    16.8734664214
  - # 4
    frequency:    16.9116067867
  - # 5
    frequency:    29.0200087737
  - # 6
    frequency:    29.0264805821
  - # 7
    frequency:    37.0685364214
  - # 8
    frequency:    37.0767703513
  - # 9
    frequency:    37.1795307566
  - # 10
    frequency:    37.1924457996
  - # 11
    frequency:    43.7506352012
  - # 12
    frequency:    43.7668991348

- q-position: [   -0.5555556,    0.3333333,    0.3750000 ]
  weight: 8    
  band:
  - # 1
    frequency:    14.3448354753
  - # 2
    frequency:    14.5095512969
  - # 3
    frequency:    18.5086460324
  - # 4
    frequency:    18.5308743790
  - # 5
    frequency:    25.6036287125
  - # 6
    frequency:    25.6203319108
  - # 7
    frequency:    36.0716065874
  - # 8
    frequency:    36.0831835426
  - # 9
    frequency:    39.8413479551
  - # 10
    frequency:    39.8489406524
  - # 11
    frequency:    43.3440878690
  - # 12
    frequency:    43.3527486415

- q-position: [   -0.4444444,    0.3333333,    0.3750000 ]
  weight: 8    
  band:
  - # 1
    frequency:    12.4526514787
  - # 2
    frequency:    12.6846786626
  - # 3
    frequency:    19.7258738317
  - # 4
    frequency:    19.7556536739
  - # 5
    frequency:    20.2070760627
  - # 6
    frequency:    20.3333698265
  - # 7
    frequency:    34.3979061870
  - # 8
    frequency:    34.4178482383
  - # 9
    frequency:    42.1397957324
  - # 10
    frequency:    42.1565510110
  - # 11
    frequency:    42.9427001836
  - # 12
    frequency:    42.9902479627

- q-position: [   -0.3333333,    0.3333333,    0.3750000 ]
  weight: 4    
  band:
  - # 1
    frequency:    10.5681480850
  - # 2
    frequency:    10.8745392306
  - # 3
    frequency:    15.7818641594
  - # 4
    frequency:    15.8845754639
  - # 5
    frequency:    21.6568296044
  - # 6
    frequency:    21.8873840276
  - # 7
    frequency:    31.1006622746
  - # 8
    frequency:    31.1268699797
  - # 9
    frequency:    42.3159535913
  - # 10
    frequency:    42.3567594754
  - # 11
    frequency:    43.8357231142
  - # 12
    frequency:    43.9298210948

- q-position: [   -0.5555556,    0.4444444,    0.3750000 ]
  weight: 4    
  band:
  - # 1
    frequency:    14.3541189585
  - # 2
    frequency:    14.4563362424
  - # 3
    frequency:    18.6496597908
  - # 4
    frequency:    18.6717913676
  - # 5
    frequency:    21.1183958860
  - # 6
    frequency:    21.1268372153
  - # 7
    frequency:    39.2834113176
  - # 8
    frequency:    39.2877175550
  - # 9
    frequency:    39.5927737255
  - # 10
    frequency:    39.6126487576
  - # 11
    frequency:    42.5152640515
  - # 12
    frequency:    42.5159199051

- q-position: [   -0.4444444,    0.4444444,    0.3750000 ]
  weight: 4    
  band:
  - # 1
    frequency:    13.5709751767
  - # 2
    frequency:    13.7221211053
  - # 3
    frequency:    18.3781799245
  - # 4
    frequency:    18.3898208798
  - # 5
    frequency:    19.3705573834
  - # 6
    frequency:    19.4370109488
  - # 7
    frequency:    37.7533167809
  - # 8
    frequency:    37.7765742133
  - # 9
    frequency:    41.8413868293
  - # 10
    frequency:    41.8448246003
  - # 11
    frequency:    41.9369203614
  - # 12
    frequency:    41.9769316110

