# Thermal properties / unit cell (natom)

unit:
  temperature:   K
  free_energy:   kJ/mol
  entropy:       J/K/mol
  heat_capacity: J/K/mol

natom:     4
num_modes: 3888
num_integrated_modes: 3872

zero_point_energy:      65.8146289
high_T_entropy:        229.7396699

thermal_properties:
- temperature:         0.0000000
  free_energy:        65.8146289
  entropy:             0.0000000
  heat_capacity:       0.0000000
  energy:             65.8146289

- temperature:        10.0000000
  free_energy:        65.8146049
  entropy:             0.0100435
  heat_capacity:       0.0250846
  energy:             65.8147053

- temperature:        20.0000000
  free_energy:        65.8143665
  entropy:             0.0388246
  heat_capacity:       0.0668458
  energy:             65.8151430

- temperature:        30.0000000
  free_energy:        65.8137721
  entropy:             0.0852216
  heat_capacity:       0.1926238
  energy:             65.8163287

- temperature:        40.0000000
  free_energy:        65.8125178
  entropy:             0.1743101
  heat_capacity:       0.4639605
  energy:             65.8194902

- temperature:        50.0000000
  free_energy:        65.8100989
  entropy:             0.3191442
  heat_capacity:       0.8700861
  energy:             65.8260562

- temperature:        60.0000000
  free_energy:        65.8059392
  entropy:             0.5226404
  heat_capacity:       1.3985080
  energy:             65.8372977

- temperature:        70.0000000
  free_energy:        65.7994479
  entropy:             0.7856229
  heat_capacity:       2.0515502
  energy:             65.8544415

- temperature:        80.0000000
  free_energy:        65.7900247
  entropy:             1.1092170
  heat_capacity:       2.8344335
  energy:             65.8787621

- temperature:        90.0000000
  free_energy:        65.7770578
  entropy:             1.4945251
  heat_capacity:       3.7475643
  energy:             65.9115650

- temperature:       100.0000000
  free_energy:        65.7599268
  entropy:             1.9420245
  heat_capacity:       4.7853045
  energy:             65.9541293

- temperature:       110.0000000
  free_energy:        65.7380113
  entropy:             2.4512802
  heat_capacity:       5.9372491
  energy:             66.0076522

- temperature:       120.0000000
  free_energy:        65.7106999
  entropy:             3.0209183
  heat_capacity:       7.1898763
  energy:             66.0732101

- temperature:       130.0000000
  free_energy:        65.6773990
  entropy:             3.6487368
  heat_capacity:       8.5280076
  energy:             66.1517347

- temperature:       140.0000000
  free_energy:        65.6375407
  entropy:             4.3318743
  heat_capacity:       9.9360187
  energy:             66.2440031

- temperature:       150.0000000
  free_energy:        65.5905882
  entropy:             5.0669959
  heat_capacity:      11.3988008
  energy:             66.3506375

- temperature:       160.0000000
  free_energy:        65.5360396
  entropy:             5.8504725
  heat_capacity:      12.9024587
  energy:             66.4721152

- temperature:       170.0000000
  free_energy:        65.4734301
  entropy:             6.6785404
  heat_capacity:      14.4347465
  energy:             66.6087819

- temperature:       180.0000000
  free_energy:        65.4023327
  entropy:             7.5474331
  heat_capacity:      15.9852622
  energy:             66.7608706

- temperature:       190.0000000
  free_energy:        65.3223576
  entropy:             8.4534824
  heat_capacity:      17.5454494
  energy:             66.9285192

- temperature:       200.0000000
  free_energy:        65.2331509
  entropy:             9.3931901
  heat_capacity:      19.1084622
  energy:             67.1117889

- temperature:       210.0000000
  free_energy:        65.1343925
  entropy:            10.3632732
  heat_capacity:      20.6689494
  energy:             67.3106799

- temperature:       220.0000000
  free_energy:        65.0257943
  entropy:            11.3606878
  heat_capacity:      22.2228027
  energy:             67.5251456

- temperature:       230.0000000
  free_energy:        64.9070970
  entropy:            12.3826363
  heat_capacity:      23.7669045
  energy:             67.7551034

- temperature:       240.0000000
  free_energy:        64.7780684
  entropy:            13.4265623
  heat_capacity:      25.2988957
  energy:             68.0004433

- temperature:       250.0000000
  free_energy:        64.6385003
  entropy:            14.4901383
  heat_capacity:      26.8169773
  energy:             68.2610349

- temperature:       260.0000000
  free_energy:        64.4882072
  entropy:            15.5712485
  heat_capacity:      28.3197479
  energy:             68.5367318

- temperature:       270.0000000
  free_energy:        64.3270233
  entropy:            16.6679693
  heat_capacity:      29.8060786
  energy:             68.8273750

- temperature:       280.0000000
  free_energy:        64.1548016
  entropy:            17.7785492
  heat_capacity:      31.2750205
  energy:             69.1327954

- temperature:       290.0000000
  free_energy:        63.9714115
  entropy:            18.9013904
  heat_capacity:      32.7257400
  energy:             69.4528147

- temperature:       300.0000000
  free_energy:        63.7767378
  entropy:            20.0350303
  heat_capacity:      34.1574764
  energy:             69.7872469

- temperature:       310.0000000
  free_energy:        63.5706794
  entropy:            21.1781264
  heat_capacity:      35.5695163
  energy:             70.1358986

- temperature:       320.0000000
  free_energy:        63.3531479
  entropy:            22.3294419
  heat_capacity:      36.9611812
  energy:             70.4985693

- temperature:       330.0000000
  free_energy:        63.1240670
  entropy:            23.4878338
  heat_capacity:      38.3318229
  energy:             70.8750521

- temperature:       340.0000000
  free_energy:        62.8833712
  entropy:            24.6522425
  heat_capacity:      39.6808249
  energy:             71.2651336

- temperature:       350.0000000
  free_energy:        62.6310053
  entropy:            25.8216834
  heat_capacity:      41.0076067
  energy:             71.6685945

- temperature:       360.0000000
  free_energy:        62.3669238
  entropy:            26.9952392
  heat_capacity:      42.3116298
  energy:             72.0852099

- temperature:       370.0000000
  free_energy:        62.0910897
  entropy:            28.1720538
  heat_capacity:      43.5924040
  energy:             72.5147496

- temperature:       380.0000000
  free_energy:        61.8034745
  entropy:            29.3513276
  heat_capacity:      44.8494927
  energy:             72.9569790

- temperature:       390.0000000
  free_energy:        61.5040575
  entropy:            30.5323123
  heat_capacity:      46.0825179
  energy:             73.4116593

- temperature:       400.0000000
  free_energy:        61.1928249
  entropy:            31.7143080
  heat_capacity:      47.2911633
  energy:             73.8785481

- temperature:       410.0000000
  free_energy:        60.8697701
  entropy:            32.8966593
  heat_capacity:      48.4751767
  energy:             74.3574004

- temperature:       420.0000000
  free_energy:        60.5348926
  entropy:            34.0787531
  heat_capacity:      49.6343703
  energy:             74.8479689

- temperature:       430.0000000
  free_energy:        60.1881978
  entropy:            35.2600159
  heat_capacity:      50.7686210
  energy:             75.3500047

- temperature:       440.0000000
  free_energy:        59.8296968
  entropy:            36.4399117
  heat_capacity:      51.8778686
  energy:             75.8632580

- temperature:       450.0000000
  free_energy:        59.4594058
  entropy:            37.6179397
  heat_capacity:      52.9621135
  energy:             76.3874787

- temperature:       460.0000000
  free_energy:        59.0773458
  entropy:            38.7936332
  heat_capacity:      54.0214141
  energy:             76.9224171

- temperature:       470.0000000
  free_energy:        58.6835424
  entropy:            39.9665570
  heat_capacity:      55.0558834
  energy:             77.4678242

- temperature:       480.0000000
  free_energy:        58.2780253
  entropy:            41.1363068
  heat_capacity:      56.0656846
  energy:             78.0234525

- temperature:       490.0000000
  free_energy:        57.8608281
  entropy:            42.3025067
  heat_capacity:      57.0510280
  energy:             78.5890564

- temperature:       500.0000000
  free_energy:        57.4319881
  entropy:            43.4648085
  heat_capacity:      58.0121660
  energy:             79.1643924

- temperature:       510.0000000
  free_energy:        56.9915460
  entropy:            44.6228901
  heat_capacity:      58.9493894
  energy:             79.7492200

- temperature:       520.0000000
  free_energy:        56.5395454
  entropy:            45.7764541
  heat_capacity:      59.8630230
  energy:             80.3433015

- temperature:       530.0000000
  free_energy:        56.0760329
  entropy:            46.9252266
  heat_capacity:      60.7534217
  energy:             80.9464030

- temperature:       540.0000000
  free_energy:        55.6010577
  entropy:            48.0689558
  heat_capacity:      61.6209664
  energy:             81.5582938

- temperature:       550.0000000
  free_energy:        55.1146714
  entropy:            49.2074111
  heat_capacity:      62.4660606
  energy:             82.1787475

- temperature:       560.0000000
  free_energy:        54.6169277
  entropy:            50.3403819
  heat_capacity:      63.2891267
  energy:             82.8075416

- temperature:       570.0000000
  free_energy:        54.1078826
  entropy:            51.4676761
  heat_capacity:      64.0906026
  energy:             83.4444580

- temperature:       580.0000000
  free_energy:        53.5875937
  entropy:            52.5891197
  heat_capacity:      64.8709390
  energy:             84.0892832

- temperature:       590.0000000
  free_energy:        53.0561203
  entropy:            53.7045553
  heat_capacity:      65.6305964
  energy:             84.7418079

- temperature:       600.0000000
  free_energy:        52.5135231
  entropy:            54.8138410
  heat_capacity:      66.3700428
  energy:             85.4018277

- temperature:       610.0000000
  free_energy:        51.9598644
  entropy:            55.9168501
  heat_capacity:      67.0897507
  energy:             86.0691429

- temperature:       620.0000000
  free_energy:        51.3952074
  entropy:            57.0134695
  heat_capacity:      67.7901960
  energy:             86.7435585

- temperature:       630.0000000
  free_energy:        50.8196166
  entropy:            58.1035994
  heat_capacity:      68.4718552
  energy:             87.4248842

- temperature:       640.0000000
  free_energy:        50.2331573
  entropy:            59.1871519
  heat_capacity:      69.1352045
  energy:             88.1129346

- temperature:       650.0000000
  free_energy:        49.6358958
  entropy:            60.2640509
  heat_capacity:      69.7807176
  energy:             88.8075289

- temperature:       660.0000000
  free_energy:        49.0278987
  entropy:            61.3342308
  heat_capacity:      70.4088649
  energy:             89.5084911

- temperature:       670.0000000
  free_energy:        48.4092337
  entropy:            62.3976360
  heat_capacity:      71.0201122
  energy:             90.2156498

- temperature:       680.0000000
  free_energy:        47.7799687
  entropy:            63.4542202
  heat_capacity:      71.6149195
  energy:             90.9288385

- temperature:       690.0000000
  free_energy:        47.1401722
  entropy:            64.5039460
  heat_capacity:      72.1937406
  energy:             91.6478949

- temperature:       700.0000000
  free_energy:        46.4899128
  entropy:            65.5467839
  heat_capacity:      72.7570219
  energy:             92.3726615

- temperature:       710.0000000
  free_energy:        45.8292595
  entropy:            66.5827120
  heat_capacity:      73.3052019
  energy:             93.1029850

- temperature:       720.0000000
  free_energy:        45.1582816
  entropy:            67.6117153
  heat_capacity:      73.8387109
  energy:             93.8387167

- temperature:       730.0000000
  free_energy:        44.4770483
  entropy:            68.6337855
  heat_capacity:      74.3579705
  energy:             94.5797118

- temperature:       740.0000000
  free_energy:        43.7856290
  entropy:            69.6489201
  heat_capacity:      74.8633930
  energy:             95.3258299

- temperature:       750.0000000
  free_energy:        43.0840931
  entropy:            70.6571224
  heat_capacity:      75.3553815
  energy:             96.0769348

- temperature:       760.0000000
  free_energy:        42.3725097
  entropy:            71.6584006
  heat_capacity:      75.8343294
  energy:             96.8328941

- temperature:       770.0000000
  free_energy:        41.6509481
  entropy:            72.6527677
  heat_capacity:      76.3006207
  energy:             97.5935792

- temperature:       780.0000000
  free_energy:        40.9194773
  entropy:            73.6402414
  heat_capacity:      76.7546294
  energy:             98.3588656

- temperature:       790.0000000
  free_energy:        40.1781662
  entropy:            74.6208430
  heat_capacity:      77.1967197
  energy:             99.1286321

- temperature:       800.0000000
  free_energy:        39.4270833
  entropy:            75.5945977
  heat_capacity:      77.6272461
  energy:             99.9027614

- temperature:       810.0000000
  free_energy:        38.6662969
  entropy:            76.5615342
  heat_capacity:      78.0465533
  energy:            100.6811396

- temperature:       820.0000000
  free_energy:        37.8958752
  entropy:            77.5216842
  heat_capacity:      78.4549765
  energy:            101.4636562

- temperature:       830.0000000
  free_energy:        37.1158858
  entropy:            78.4750822
  heat_capacity:      78.8528410
  energy:            102.2502040

- temperature:       840.0000000
  free_energy:        36.3263959
  entropy:            79.4217654
  heat_capacity:      79.2404629
  energy:            103.0406789

- temperature:       850.0000000
  free_energy:        35.5274727
  entropy:            80.3617734
  heat_capacity:      79.6181489
  energy:            103.8349801

- temperature:       860.0000000
  free_energy:        34.7191826
  entropy:            81.2951479
  heat_capacity:      79.9861967
  energy:            104.6330097

- temperature:       870.0000000
  free_energy:        33.9015917
  entropy:            82.2219324
  heat_capacity:      80.3448947
  energy:            105.4346729

- temperature:       880.0000000
  free_energy:        33.0747657
  entropy:            83.1421723
  heat_capacity:      80.6945229
  energy:            106.2398774

- temperature:       890.0000000
  free_energy:        32.2387699
  entropy:            84.0559147
  heat_capacity:      81.0353523
  energy:            107.0485340

- temperature:       900.0000000
  free_energy:        31.3936690
  entropy:            84.9632078
  heat_capacity:      81.3676457
  energy:            107.8605560

- temperature:       910.0000000
  free_energy:        30.5395271
  entropy:            85.8641013
  heat_capacity:      81.6916578
  energy:            108.6758593

- temperature:       920.0000000
  free_energy:        29.6764081
  entropy:            86.7586460
  heat_capacity:      82.0076350
  energy:            109.4943624

- temperature:       930.0000000
  free_energy:        28.8043752
  entropy:            87.6468934
  heat_capacity:      82.3158162
  energy:            110.3159860

- temperature:       940.0000000
  free_energy:        27.9234910
  entropy:            88.5288962
  heat_capacity:      82.6164325
  energy:            111.1406535

- temperature:       950.0000000
  free_energy:        27.0338179
  entropy:            89.4047077
  heat_capacity:      82.9097079
  energy:            111.9682902

- temperature:       960.0000000
  free_energy:        26.1354173
  entropy:            90.2743818
  heat_capacity:      83.1958588
  energy:            112.7988239

- temperature:       970.0000000
  free_energy:        25.2283505
  entropy:            91.1379730
  heat_capacity:      83.4750952
  energy:            113.6321843

- temperature:       980.0000000
  free_energy:        24.3126780
  entropy:            91.9955362
  heat_capacity:      83.7476199
  energy:            114.4683034

- temperature:       990.0000000
  free_energy:        23.3884597
  entropy:            92.8471266
  heat_capacity:      84.0136294
  energy:            115.3071150

- temperature:      1000.0000000
  free_energy:        22.4557552
  entropy:            93.6927998
  heat_capacity:      84.2733137
  energy:            116.1485549
