   4   4   0   0
  0.8468675E+01  0.2466437E-09  0.2466437E-09  0.6432798E-09  0.5000000E-15
  1.000000000000000E-004
  CAR 
 graphite                                
     19.03006547    -16.62553873  301      5.04305105      1.00000000
    -16.626  0.0000E+00  0.0000E+00
    -16.507  0.0000E+00  0.0000E+00
    -16.388  0.0000E+00  0.0000E+00
    -16.269  0.0000E+00  0.0000E+00
    -16.150  0.0000E+00  0.0000E+00
    -16.031  0.0000E+00  0.0000E+00
    -15.912  0.0000E+00  0.0000E+00
    -15.794  0.0000E+00  0.0000E+00
    -15.675  0.0000E+00  0.0000E+00
    -15.556  0.0000E+00  0.0000E+00
    -15.437  0.0000E+00  0.0000E+00
    -15.318  0.0000E+00  0.0000E+00
    -15.199  0.0000E+00  0.0000E+00
    -15.080  0.0000E+00  0.0000E+00
    -14.962  0.0000E+00  0.0000E+00
    -14.843  0.0000E+00  0.0000E+00
    -14.724  0.0000E+00  0.0000E+00
    -14.605  0.1162E-03  0.8268E-06
    -14.486  0.1099E-02  0.8832E-04
    -14.367  0.1767E-02  0.2599E-03
    -14.248  0.2362E-02  0.5011E-03
    -14.130  0.3035E-02  0.8436E-03
    -14.011  0.3110E-02  0.1211E-02
    -13.892  0.3054E-02  0.1574E-02
    -13.773  0.3127E-02  0.1942E-02
    -13.654  0.3078E-02  0.2311E-02
    -13.535  0.3088E-02  0.2677E-02
    -13.417  0.3110E-02  0.3045E-02
    -13.298  0.3097E-02  0.3415E-02
    -13.179  0.3116E-02  0.3784E-02
    -13.060  0.3116E-02  0.4155E-02
    -12.941  0.3127E-02  0.4526E-02
    -12.822  0.3112E-02  0.4897E-02
    -12.703  0.3130E-02  0.5267E-02
    -12.585  0.3152E-02  0.5641E-02
    -12.466  0.3154E-02  0.6016E-02
    -12.347  0.3154E-02  0.6391E-02
    -12.228  0.3141E-02  0.6765E-02
    -12.109  0.3156E-02  0.7139E-02
    -11.990  0.3181E-02  0.7516E-02
    -11.871  0.3196E-02  0.7895E-02
    -11.753  0.3198E-02  0.8275E-02
    -11.634  0.3200E-02  0.8655E-02
    -11.515  0.3193E-02  0.9035E-02
    -11.396  0.3207E-02  0.9415E-02
    -11.277  0.3229E-02  0.9797E-02
    -11.158  0.3255E-02  0.1018E-01
    -11.039  0.3264E-02  0.1057E-01
    -10.921  0.3272E-02  0.1096E-01
    -10.802  0.3273E-02  0.1135E-01
    -10.683  0.3288E-02  0.1174E-01
    -10.564  0.3309E-02  0.1213E-01
    -10.445  0.3339E-02  0.1252E-01
    -10.326  0.3374E-02  0.1292E-01
    -10.208  0.3408E-02  0.1333E-01
    -10.089  0.3443E-02  0.1373E-01
     -9.970  0.3492E-02  0.1415E-01
     -9.851  0.3565E-02  0.1456E-01
     -9.732  0.3703E-02  0.1500E-01
     -9.613  0.3883E-02  0.1545E-01
     -9.494  0.4563E-02  0.1593E-01
     -9.376  0.4921E-02  0.1650E-01
     -9.257  0.4923E-02  0.1709E-01
     -9.138  0.3634E-02  0.1758E-01
     -9.019  0.3351E-02  0.1804E-01
     -8.900  0.3093E-02  0.1844E-01
     -8.781  0.2087E-02  0.1871E-01
     -8.662  0.1829E-02  0.1894E-01
     -8.544  0.1571E-02  0.1914E-01
     -8.425  0.1776E-02  0.1933E-01
     -8.306  0.1558E-02  0.1954E-01
     -8.187  0.1132E-02  0.1970E-01
     -8.068  0.1125E-02  0.1982E-01
     -7.949  0.2259E-02  0.2000E-01
     -7.830  0.3333E-02  0.2037E-01
     -7.712  0.3288E-02  0.2078E-01
     -7.593  0.2831E-02  0.2112E-01
     -7.474  0.3882E-02  0.2154E-01
     -7.355  0.4596E-02  0.2207E-01
     -7.236  0.4621E-02  0.2258E-01
     -7.117  0.5395E-02  0.2317E-01
     -6.999  0.4734E-02  0.2379E-01
     -6.880  0.3834E-02  0.2428E-01
     -6.761  0.3676E-02  0.2473E-01
     -6.642  0.3532E-02  0.2515E-01
     -6.523  0.3390E-02  0.2556E-01
     -6.404  0.3248E-02  0.2596E-01
     -6.285  0.3105E-02  0.2634E-01
     -6.167  0.2996E-02  0.2670E-01
     -6.048  0.2955E-02  0.2705E-01
     -5.929  0.2919E-02  0.2740E-01
     -5.810  0.2883E-02  0.2775E-01
     -5.691  0.2846E-02  0.2809E-01
     -5.572  0.2696E-02  0.2842E-01
     -5.453  0.2570E-02  0.2873E-01
     -5.335  0.2982E-02  0.2906E-01
     -5.216  0.3422E-02  0.2944E-01
     -5.097  0.3861E-02  0.2987E-01
     -4.978  0.3814E-02  0.3033E-01
     -4.859  0.3709E-02  0.3078E-01
     -4.740  0.3652E-02  0.3121E-01
     -4.621  0.3595E-02  0.3165E-01
     -4.503  0.3630E-02  0.3207E-01
     -4.384  0.3731E-02  0.3251E-01
     -4.265  0.3826E-02  0.3296E-01
     -4.146  0.3906E-02  0.3342E-01
     -4.027  0.3943E-02  0.3389E-01
     -3.908  0.3954E-02  0.3436E-01
     -3.790  0.3907E-02  0.3482E-01
     -3.671  0.3938E-02  0.3529E-01
     -3.552  0.4294E-02  0.3577E-01
     -3.433  0.4515E-02  0.3630E-01
     -3.314  0.4755E-02  0.3685E-01
     -3.195  0.4879E-02  0.3742E-01
     -3.076  0.5099E-02  0.3801E-01
     -2.958  0.5355E-02  0.3864E-01
     -2.839  0.5538E-02  0.3928E-01
     -2.720  0.5713E-02  0.3995E-01
     -2.601  0.5911E-02  0.4064E-01
     -2.482  0.6080E-02  0.4136E-01
     -2.363  0.6812E-02  0.4212E-01
     -2.244  0.6723E-02  0.4292E-01
     -2.126  0.6743E-02  0.4372E-01
     -2.007  0.6942E-02  0.4453E-01
     -1.888  0.6911E-02  0.4536E-01
     -1.769  0.6890E-02  0.4618E-01
     -1.650  0.7679E-02  0.4703E-01
     -1.531  0.9154E-02  0.4800E-01
     -1.412  0.1131E-01  0.4923E-01
     -1.294  0.1184E-01  0.5064E-01
     -1.175  0.9887E-02  0.5191E-01
     -1.056  0.8996E-02  0.5304E-01
     -0.937  0.8445E-02  0.5407E-01
     -0.818  0.8028E-02  0.5506E-01
     -0.699  0.7307E-02  0.5599E-01
     -0.581  0.5855E-02  0.5673E-01
     -0.462  0.6497E-02  0.5747E-01
     -0.343  0.7269E-02  0.5829E-01
     -0.224  0.7630E-02  0.5918E-01
     -0.105  0.6726E-02  0.6004E-01
      0.014  0.5884E-02  0.6078E-01
      0.133  0.5858E-02  0.6147E-01
      0.251  0.6224E-02  0.6218E-01
      0.370  0.7223E-02  0.6298E-01
      0.489  0.6370E-02  0.6386E-01
      0.608  0.6129E-02  0.6460E-01
      0.727  0.5952E-02  0.6532E-01
      0.846  0.5828E-02  0.6602E-01
      0.965  0.5737E-02  0.6670E-01
      1.083  0.5881E-02  0.6739E-01
      1.202  0.5826E-02  0.6809E-01
      1.321  0.5711E-02  0.6877E-01
      1.440  0.5583E-02  0.6944E-01
      1.559  0.5667E-02  0.7011E-01
      1.678  0.5703E-02  0.7079E-01
      1.797  0.5965E-02  0.7147E-01
      1.915  0.5777E-02  0.7215E-01
      2.034  0.4619E-02  0.7280E-01
      2.153  0.4205E-02  0.7331E-01
      2.272  0.4063E-02  0.7380E-01
      2.391  0.4013E-02  0.7428E-01
      2.510  0.4063E-02  0.7476E-01
      2.628  0.4105E-02  0.7525E-01
      2.747  0.4121E-02  0.7574E-01
      2.866  0.4308E-02  0.7624E-01
      2.985  0.4630E-02  0.7676E-01
      3.104  0.3733E-02  0.7728E-01
      3.223  0.3190E-02  0.7769E-01
      3.342  0.2655E-02  0.7803E-01
      3.460  0.2406E-02  0.7833E-01
      3.579  0.2128E-02  0.7860E-01
      3.698  0.1904E-02  0.7884E-01
      3.817  0.1718E-02  0.7906E-01
      3.936  0.1485E-02  0.7925E-01
      4.055  0.1216E-02  0.7941E-01
      4.174  0.1047E-02  0.7954E-01
      4.292  0.8763E-03  0.7966E-01
      4.411  0.7325E-03  0.7975E-01
      4.530  0.6141E-03  0.7983E-01
      4.649  0.5332E-03  0.7990E-01
      4.768  0.3623E-03  0.7995E-01
      4.887  0.1969E-03  0.7999E-01
      5.006  0.3606E-04  0.8000E-01
      5.124  0.5733E-04  0.8000E-01
      5.243  0.1509E-03  0.8001E-01
      5.362  0.2511E-03  0.8004E-01
      5.481  0.3595E-03  0.8007E-01
      5.600  0.4787E-03  0.8012E-01
      5.719  0.5990E-03  0.8019E-01
      5.837  0.7689E-03  0.8027E-01
      5.956  0.1004E-02  0.8037E-01
      6.075  0.1285E-02  0.8051E-01
      6.194  0.1540E-02  0.8068E-01
      6.313  0.1899E-02  0.8088E-01
      6.432  0.2783E-02  0.8117E-01
      6.551  0.3948E-02  0.8158E-01
      6.669  0.5273E-02  0.8220E-01
      6.788  0.4661E-02  0.8278E-01
      6.907  0.4207E-02  0.8331E-01
      7.026  0.4139E-02  0.8380E-01
      7.145  0.3950E-02  0.8430E-01
      7.264  0.3863E-02  0.8476E-01
      7.383  0.3885E-02  0.8522E-01
      7.501  0.3509E-02  0.8567E-01
      7.620  0.3237E-02  0.8607E-01
      7.739  0.3051E-02  0.8644E-01
      7.858  0.2906E-02  0.8680E-01
      7.977  0.2787E-02  0.8713E-01
      8.096  0.2689E-02  0.8746E-01
      8.215  0.2600E-02  0.8777E-01
      8.333  0.2531E-02  0.8808E-01
      8.452  0.2468E-02  0.8837E-01
      8.571  0.2404E-02  0.8866E-01
      8.690  0.2340E-02  0.8895E-01
      8.809  0.2284E-02  0.8922E-01
      8.928  0.2233E-02  0.8949E-01
      9.046  0.2185E-02  0.8975E-01
      9.165  0.2138E-02  0.9001E-01
      9.284  0.2093E-02  0.9026E-01
      9.403  0.2056E-02  0.9051E-01
      9.522  0.2024E-02  0.9075E-01
      9.641  0.1992E-02  0.9099E-01
      9.760  0.1960E-02  0.9122E-01
      9.878  0.2071E-02  0.9146E-01
      9.997  0.2202E-02  0.9171E-01
     10.116  0.2236E-02  0.9198E-01
     10.235  0.2259E-02  0.9225E-01
     10.354  0.2301E-02  0.9252E-01
     10.473  0.2337E-02  0.9279E-01
     10.592  0.2371E-02  0.9307E-01
     10.710  0.2405E-02  0.9336E-01
     10.829  0.2442E-02  0.9364E-01
     10.948  0.2502E-02  0.9394E-01
     11.067  0.2588E-02  0.9424E-01
     11.186  0.2775E-02  0.9456E-01
     11.305  0.2888E-02  0.9490E-01
     11.424  0.2893E-02  0.9524E-01
     11.542  0.2694E-02  0.9557E-01
     11.661  0.2451E-02  0.9588E-01
     11.780  0.2377E-02  0.9616E-01
     11.899  0.2222E-02  0.9644E-01
     12.018  0.2051E-02  0.9669E-01
     12.137  0.2015E-02  0.9693E-01
     12.256  0.2578E-02  0.9719E-01
     12.374  0.3957E-02  0.9758E-01
     12.493  0.5777E-02  0.9815E-01
     12.612  0.6566E-02  0.9890E-01
     12.731  0.7256E-02  0.9972E-01
     12.850  0.8891E-02  0.1007E+00
     12.969  0.9370E-02  0.1018E+00
     13.087  0.9070E-02  0.1029E+00
     13.206  0.8239E-02  0.1039E+00
     13.325  0.8313E-02  0.1049E+00
     13.444  0.1404E-01  0.1061E+00
     13.563  0.1482E-01  0.1077E+00
     13.682  0.9751E-02  0.1092E+00
     13.801  0.7480E-02  0.1102E+00
     13.919  0.5959E-02  0.1110E+00
     14.038  0.5390E-02  0.1116E+00
     14.157  0.5459E-02  0.1123E+00
     14.276  0.4540E-02  0.1129E+00
     14.395  0.4660E-02  0.1134E+00
     14.514  0.4637E-02  0.1140E+00
     14.633  0.4052E-02  0.1145E+00
     14.751  0.2839E-02  0.1149E+00
     14.870  0.2795E-02  0.1152E+00
     14.989  0.2881E-02  0.1155E+00
     15.108  0.3360E-02  0.1159E+00
     15.227  0.2870E-02  0.1163E+00
     15.346  0.3420E-02  0.1166E+00
     15.465  0.3961E-02  0.1171E+00
     15.583  0.4871E-02  0.1176E+00
     15.702  0.4086E-02  0.1182E+00
     15.821  0.3036E-02  0.1186E+00
     15.940  0.2547E-02  0.1189E+00
     16.059  0.2392E-02  0.1192E+00
     16.178  0.1951E-02  0.1195E+00
     16.296  0.1343E-02  0.1197E+00
     16.415  0.9789E-03  0.1198E+00
     16.534  0.6081E-03  0.1199E+00
     16.653  0.2902E-03  0.1200E+00
     16.772  0.1188E-03  0.1200E+00
     16.891  0.2465E-04  0.1200E+00
     17.010  0.3450E-06  0.1200E+00
     17.128  0.0000E+00  0.1200E+00
     17.247  0.0000E+00  0.1200E+00
     17.366  0.0000E+00  0.1200E+00
     17.485  0.0000E+00  0.1200E+00
     17.604  0.0000E+00  0.1200E+00
     17.723  0.0000E+00  0.1200E+00
     17.842  0.0000E+00  0.1200E+00
     17.960  0.0000E+00  0.1200E+00
     18.079  0.0000E+00  0.1200E+00
     18.198  0.0000E+00  0.1200E+00
     18.317  0.0000E+00  0.1200E+00
     18.436  0.0000E+00  0.1200E+00
     18.555  0.0000E+00  0.1200E+00
     18.674  0.0000E+00  0.1200E+00
     18.792  0.0000E+00  0.1200E+00
     18.911  0.0000E+00  0.1200E+00
     19.030  0.0000E+00  0.1200E+00
