    4    4  200    1
  0.8468675E+01  0.2466437E-09  0.2466437E-09  0.6432798E-09  0.5000000E-15
  1.000000000000000E-004
  CAR 
 graphite                                
     16    455     12
 
  0.0000000E+00  0.0000000E+00  0.0000000E+00  0.3858025E-03
    1      -14.625539
    2      -14.212930
    3       -3.635503
    4       -1.213469
    5        2.054465
    6        2.070948
    7        2.083461
    8        2.099033
    9        9.750853
   10       13.384341
   11       13.392968
   12       13.458458
 
  0.5555556E-01  0.1040834E-16  0.0000000E+00  0.1543210E-02
    1      -14.551624
    2      -14.140725
    3       -3.545670
    4       -1.130622
    5        1.762857
    6        1.802112
    7        1.898489
    8        1.934837
    9        9.837645
   10       13.416083
   11       13.507456
   12       13.702618
 
  0.1111111E+00  0.2081668E-16  0.0000000E+00  0.1543210E-02
    1      -14.330203
    2      -13.924521
    3       -3.277120
    4       -0.883331
    5        0.931818
    6        0.995745
    7        1.475475
    8        1.525385
    9       10.098875
   10       13.423841
   11       13.575189
   12       14.599751
 
  0.1666667E+00  0.2775558E-16  0.0000000E+00  0.1543210E-02
    1      -13.962535
    2      -13.565426
    3       -2.832424
    4       -0.475877
    5       -0.259378
    6       -0.165040
    7        0.910072
    8        0.971015
    9       10.534763
   10       13.309680
   11       13.556144
   12       14.164800
 
  0.2222222E+00  0.2775558E-16  0.0000000E+00  0.1543210E-02
    1      -13.450299
    2      -13.065231
    3       -2.216600
    4       -1.651486
    5       -1.524811
    6        0.083341
    7        0.311091
    8        0.380338
    9       11.141586
   10       12.710157
   11       13.088254
   12       13.433683
 
  0.2777778E+00  0.2775558E-16  0.0000000E+00  0.1543210E-02
    1      -12.796884
    2      -12.427022
    3       -3.129668
    4       -2.970549
    5       -1.438514
    6       -0.245474
    7       -0.170855
    8        0.777628
    9       11.098400
   10       11.902663
   11       12.025465
   12       12.832051
 
  0.3333333E+00  0.5551115E-16  0.0000000E+00  0.1543210E-02
    1      -12.007262
    2      -11.655831
    3       -4.615763
    4       -4.424974
    5       -0.712588
    6       -0.634231
    7       -0.515031
    8        1.572682
    9        9.464049
   10       10.592093
   11       12.506376
   12       12.789040
 
  0.3888889E+00  0.2775558E-16  0.0000000E+00  0.1543210E-02
    1      -11.090873
    2      -10.762171
    3       -6.054158
    4       -5.835214
    5       -1.062109
    6       -0.981198
    7        0.517483
    8        2.382564
    9        7.965919
   10        9.201221
   11       12.354288
   12       12.837617
 
  0.4444444E+00  0.5551115E-16  0.0000000E+00  0.1543210E-02
    1      -10.074800
    2       -9.779981
    3       -7.381808
    4       -7.147496
    5       -1.277454
    6       -1.195048
    7        1.558406
    8        2.964313
    9        6.893159
   10        7.991018
   11       12.233354
   12       12.756597
 
  0.5000000E+00  0.0000000E+00  0.0000000E+00  0.7716049E-03
    1       -9.263368
    2       -9.106157
    3       -8.174011
    4       -8.057114
    5       -1.349836
    6       -1.267055
    7        2.173477
    8        3.028806
    9        6.602289
   10        7.376833
   11       12.191312
   12       12.725555
 
  0.5555556E-01  0.5555556E-01  0.0000000E+00  0.7716049E-03
    1      -14.403846
    2      -13.996425
    3       -3.366380
    4       -0.965405
    5        1.233368
    6        1.271295
    7        1.585912
    8        1.617684
    9       10.012053
   10       13.517629
   11       13.629914
   12       14.213727
 
  0.1111111E+00  0.5555556E-01  0.0000000E+00  0.1543210E-02
    1      -14.109198
    2      -13.708688
    3       -3.009669
    4       -0.637801
    5        0.273783
    6        0.338352
    7        1.037874
    8        1.085498
    9       10.361956
   10       13.594794
   11       13.775034
   12       14.640690
 
  0.1666667E+00  0.5555556E-01  0.0000000E+00  0.1543210E-02
    1      -13.669124
    2      -13.278925
    3       -2.479019
    4       -0.979381
    5       -0.877694
    6       -0.153831
    7        0.409394
    8        0.474401
    9       10.886155
   10       13.355136
   11       13.489602
   12       13.776477
 
  0.2222222E+00  0.5555556E-01  0.0000000E+00  0.1543210E-02
    1      -13.086186
    2      -12.709603
    3       -2.390454
    4       -2.252552
    5       -1.781276
    6       -0.197583
    7       -0.121369
    8        0.474754
    9       11.578374
   10       11.845079
   11       12.615400
   12       13.268171
 
  0.2777778E+00  0.5555556E-01  0.0000000E+00  0.1543210E-02
    1      -12.364369
    2      -12.004681
    3       -3.858352
    4       -3.686731
    5       -0.928407
    6       -0.726364
    7       -0.643138
    8        1.224833
    9       10.235373
   10       11.221796
   11       12.409737
   12       13.030832
 
  0.3333333E+00  0.5555556E-01  0.0000000E+00  0.1543210E-02
    1      -11.510595
    2      -11.171499
    3       -5.313307
    4       -5.110301
    5       -1.144138
    6       -1.056390
    7        0.055557
    8        2.044181
    9        8.665143
   10        9.821516
   11       12.755099
   12       13.164197
 
  0.3888889E+00  0.5555556E-01  0.0000000E+00  0.1543210E-02
    1      -10.539669
    2      -10.226436
    3       -6.698917
    4       -6.470931
    5       -1.431494
    6       -1.341074
    7        1.113197
    8        2.789494
    9        7.338587
   10        8.512497
   11       12.608078
   12       13.122428
 
  0.4444444E+00  0.5555556E-01  0.0000000E+00  0.1543210E-02
    1       -9.521640
    2       -9.270493
    3       -7.889674
    4       -7.679149
    5       -1.577941
    6       -1.486139
    7        2.049406
    8        3.107882
    9        6.653268
   10        7.510733
   11       12.525649
   12       13.065245
 
  0.5000000E+00  0.5555556E-01  0.0000000E+00  0.1543210E-02
    1       -9.523124
    2       -9.271777
    3       -7.888207
    4       -7.677407
    5       -1.578351
    6       -1.486531
    7        2.048577
    8        3.107932
    9        6.652863
   10        7.511923
   11       12.526117
   12       13.065721
 
 -0.4444444E+00  0.5555556E-01  0.0000000E+00  0.1543210E-02
    1      -10.541254
    2      -10.228008
    3       -6.696730
    4       -6.468673
    5       -1.432692
    6       -1.342224
    7        1.111934
    8        2.788801
    9        7.338608
   10        8.514382
   11       12.609472
   12       13.123784
 
 -0.3888889E+00  0.5555556E-01  0.0000000E+00  0.1543210E-02
    1      -11.511997
    2      -11.172894
    3       -5.310936
    4       -5.107861
    5       -1.146022
    6       -1.058207
    7        0.054302
    8        2.043157
    9        8.665177
   10        9.823460
   11       12.757285
   12       13.165237
 
 -0.3333333E+00  0.5555556E-01  0.0000000E+00  0.1543210E-02
    1      -12.365539
    2      -12.005858
    3       -3.855985
    4       -3.684291
    5       -0.929543
    6       -0.728701
    7       -0.645290
    8        1.223799
    9       10.234865
   10       11.223623
   11       12.408368
   12       13.033650
 
 -0.2777778E+00  0.5555556E-01  0.0000000E+00  0.1543210E-02
    1      -13.087158
    2      -12.710569
    3       -2.388487
    4       -2.250515
    5       -1.782244
    6       -0.199829
    7       -0.123588
    8        0.473835
    9       11.577029
   10       11.843622
   11       12.617037
   12       13.271776
 
 -0.2222222E+00  0.5555556E-01  0.0000000E+00  0.1543210E-02
    1      -13.669878
    2      -13.279674
    3       -2.479792
    4       -0.978718
    5       -0.877040
    6       -0.154578
    7        0.408459
    8        0.473282
    9       10.885071
   10       13.352645
   11       13.493360
   12       13.781261
 
 -0.1666667E+00  0.5555556E-01  0.0000000E+00  0.1543210E-02
    1      -14.109731
    2      -13.709231
    3       -3.010231
    4       -0.638350
    5        0.270886
    6        0.335454
    7        1.040842
    8        1.087784
    9       10.361155
   10       13.597801
   11       13.779354
   12       14.635120
 
 -0.1111111E+00  0.5555556E-01  0.0000000E+00  0.1543210E-02
    1      -14.404172
    2      -13.996756
    3       -3.366721
    4       -0.965738
    5        1.223078
    6        1.262003
    7        1.595749
    8        1.627210
    9       10.011550
   10       13.519128
   11       13.633188
   12       14.247713
 
 -0.5555556E-01  0.5555556E-01  0.0000000E+00  0.7716049E-03
    1      -14.551732
    2      -14.140832
    3       -3.545784
    4       -1.130734
    5        1.750520
    6        1.790378
    7        1.910764
    8        1.946696
    9        9.837473
   10       13.416998
   11       13.508616
   12       13.707768
 
  0.1111111E+00  0.1111111E+00  0.0000000E+00  0.7716049E-03
    1      -13.742170
    2      -13.350316
    3       -2.566868
    4       -0.625701
    5       -0.567880
    6       -0.233306
    7        0.337250
    8        0.379013
    9       10.802069
   10       13.608992
   11       14.005619
   12       14.104959
 
  0.1666667E+00  0.1111111E+00  0.0000000E+00  0.1543210E-02
    1      -13.231384
    2      -12.851406
    3       -1.953666
    4       -1.781423
    5       -1.689368
    6       -0.414681
    7       -0.351047
    8        0.321717
    9       11.415978
   10       12.321883
   11       12.911135
   12       14.149832
 
  0.2222222E+00  0.1111111E+00  0.0000000E+00  0.1543210E-02
    1      -12.579991
    2      -12.215277
    3       -3.118283
    4       -2.980354
    5       -1.178910
    6       -1.068441
    7       -0.981106
    8        1.011696
    9       10.858209
   10       11.618149
   11       12.196066
   12       14.002485
 
  0.2777778E+00  0.1111111E+00  0.0000000E+00  0.1543210E-02
    1      -11.793600
    2      -11.447566
    3       -4.523680
    4       -4.346416
    5       -1.585993
    6       -1.484824
    7       -0.259089
    8        1.804094
    9        9.331275
   10       10.284675
   11       13.118239
   12       13.795064
 
  0.3333333E+00  0.1111111E+00  0.0000000E+00  0.1543210E-02
    1      -10.882146
    2      -10.558713
    3       -5.914487
    4       -5.705119
    5       -1.960379
    6       -1.851915
    7        0.771029
    8        2.618785
    9        7.896626
   10        8.975912
   11       13.559605
   12       14.014266
 
  0.3888889E+00  0.1111111E+00  0.0000000E+00  0.1543210E-02
    1       -9.873811
    2       -9.584421
    3       -7.213236
    4       -6.986331
    5       -2.187367
    6       -2.075111
    7        1.815002
    8        3.218468
    9        6.850953
   10        7.806608
   11       13.446866
   12       14.011671
 
  0.4444444E+00  0.1111111E+00  0.0000000E+00  0.1543210E-02
    1       -9.074052
    2       -8.919375
    3       -7.989490
    4       -7.877654
    5       -2.263962
    6       -2.150473
    7        2.439865
    8        3.287237
    9        6.596139
   10        7.172075
   11       13.405215
   12       13.985138
 
  0.5000000E+00  0.1111111E+00  0.0000000E+00  0.1543210E-02
    1       -9.877063
    2       -9.587588
    3       -7.209256
    4       -6.982139
    5       -2.188783
    6       -2.076467
    7        1.812698
    8        3.217804
    9        6.850027
   10        7.810340
   11       13.448484
   12       14.013305
 
 -0.4444444E+00  0.1111111E+00  0.0000000E+00  0.1543210E-02
    1      -10.885145
    2      -10.561701
    3       -5.909955
    4       -5.700426
    5       -1.963073
    6       -1.854489
    7        0.768488
    8        2.616908
    9        7.896261
   10        8.980051
   11       13.562707
   12       14.014755
 
 -0.3888889E+00  0.1111111E+00  0.0000000E+00  0.1543210E-02
    1      -11.796193
    2      -11.450148
    3       -4.519115
    4       -4.341659
    5       -1.589551
    6       -1.488237
    7       -0.261478
    8        1.801965
    9        9.330084
   10       10.288758
   11       13.114975
   12       13.799413
 
 -0.3333333E+00  0.1111111E+00  0.0000000E+00  0.1543210E-02
    1      -12.582137
    2      -12.217420
    3       -3.114533
    4       -2.976337
    5       -1.181008
    6       -1.071785
    7       -0.984401
    8        1.009710
    9       10.855210
   10       11.622018
   11       12.193100
   12       14.008727
 
 -0.2777778E+00  0.1111111E+00  0.0000000E+00  0.1543210E-02
    1      -13.233110
    2      -12.853120
    3       -1.955402
    4       -1.780616
    5       -1.688265
    6       -0.415464
    7       -0.351957
    8        0.320031
    9       11.413571
   10       12.316712
   11       12.914549
   12       14.158046
 
 -0.2222222E+00  0.1111111E+00  0.0000000E+00  0.1543210E-02
    1      -13.743461
    2      -13.351596
    3       -2.568199
    4       -0.631564
    5       -0.572358
    6       -0.234615
    7        0.342305
    8        0.384409
    9       10.800228
   10       13.602579
   11       14.018022
   12       14.204324
 
 -0.1666667E+00  0.1111111E+00  0.0000000E+00  0.1543210E-02
    1      -14.110062
    2      -13.709554
    3       -3.010569
    4       -0.638692
    5        0.261739
    6        0.327511
    7        1.049483
    8        1.097209
    9       10.360694
   10       13.608122
   11       13.788474
   12       14.632243
 
 -0.1111111E+00  0.1111111E+00  0.0000000E+00  0.7716049E-03
    1      -14.330622
    2      -13.924943
    3       -3.277568
    4       -0.883763
    5        0.918655
    6        0.983078
    7        1.488936
    8        1.538521
    9       10.098230
   10       13.433071
   11       13.584170
   12       14.595540
 
  0.1666667E+00  0.1666667E+00  0.0000000E+00  0.7716049E-03
    1      -12.652140
    2      -12.285734
    3       -2.697191
    4       -2.618909
    5       -1.330756
    6       -1.273530
    7       -1.262836
    8        0.939873
    9       11.120365
   10       11.737343
   11       12.117513
   12       14.945629
 
  0.2222222E+00  0.1666667E+00  0.0000000E+00  0.1543210E-02
    1      -11.935936
    2      -11.586413
    3       -3.830913
    4       -3.710193
    5       -2.110107
    6       -2.022975
    7       -0.418238
    8        1.680104
    9        9.786671
   10       10.503337
   11       12.980377
   12       15.109359
 
  0.2777778E+00  0.1666667E+00  0.0000000E+00  0.1543210E-02
    1      -11.090710
    2      -10.761697
    3       -5.110906
    4       -4.938501
    5       -2.659530
    6       -2.542658
    7        0.557806
    8        2.497797
    9        8.407020
   10        9.269462
   11       13.985433
   12       14.949818
 
  0.3333333E+00  0.1666667E+00  0.0000000E+00  0.1543210E-02
    1      -10.132545
    2       -9.829821
    3       -6.403618
    4       -6.195519
    5       -3.004974
    6       -2.873777
    7        1.613675
    8        3.268299
    9        7.172745
   10        8.087487
   11       14.746111
   12       15.122893
 
  0.3888889E+00  0.1666667E+00  0.0000000E+00  0.1543210E-02
    1       -9.133575
    2       -8.891817
    3       -7.543232
    4       -7.347292
    5       -3.173469
    6       -3.036723
    7        2.568675
    8        3.623592
    9        6.544869
   10        7.095960
   11       14.677274
   12       15.355938
 
  0.4444444E+00  0.1666667E+00  0.0000000E+00  0.1543210E-02
    1       -9.138022
    2       -8.895680
    3       -7.538927
    4       -7.342039
    5       -3.174364
    6       -3.037570
    7        2.566149
    8        3.623780
    9        6.541207
   10        7.101615
   11       14.678231
   12       15.356780
 
  0.5000000E+00  0.1666667E+00  0.0000000E+00  0.1543210E-02
    1      -10.137299
    2       -9.834701
    3       -6.397322
    4       -6.188849
    5       -3.007508
    6       -2.876154
    7        1.609966
    8        3.266015
    9        7.170704
   10        8.094338
   11       14.748605
   12       15.116158
 
 -0.4444444E+00  0.1666667E+00  0.0000000E+00  0.1543210E-02
    1      -11.094911
    2      -10.765892
    3       -5.104586
    4       -4.931627
    5       -2.663008
    6       -2.545939
    7        0.554134
    8        2.494580
    9        8.404289
   10        9.276418
   11       13.979667
   12       14.954463
 
 -0.3888889E+00  0.1666667E+00  0.0000000E+00  0.1543210E-02
    1      -11.939500
    2      -11.589967
    3       -3.826581
    4       -3.705243
    5       -2.112584
    6       -2.025247
    7       -0.421571
    8        1.676907
    9        9.781518
   10       10.510062
   11       12.975490
   12       15.117467
 
 -0.3333333E+00  0.1666667E+00  0.0000000E+00  0.1543210E-02
    1      -12.655038
    2      -12.288630
    3       -2.698869
    4       -2.618766
    5       -1.328886
    6       -1.270584
    7       -1.265687
    8        0.937055
    9       11.112692
   10       11.742886
   11       12.113544
   12       14.965117
 
 -0.2777778E+00  0.1666667E+00  0.0000000E+00  0.1543210E-02
    1      -13.233644
    2      -12.853653
    3       -1.955949
    4       -1.789388
    5       -1.695727
    6       -0.406570
    7       -0.342160
    8        0.319432
    9       11.412892
   10       12.313085
   11       12.914137
   12       14.176383
 
 -0.2222222E+00  0.1666667E+00  0.0000000E+00  0.1543210E-02
    1      -13.670734
    2      -13.280525
    3       -2.480681
    4       -0.991221
    5       -0.888780
    6       -0.155503
    7        0.422189
    8        0.487212
    9       10.883933
   10       13.346679
   11       13.513206
   12       13.800644
 
 -0.1666667E+00  0.1666667E+00  0.0000000E+00  0.7716049E-03
    1      -13.963499
    2      -13.566385
    3       -2.833433
    4       -0.476895
    5       -0.272845
    6       -0.178036
    7        0.924651
    8        0.985382
    9       10.533408
   10       13.328210
   11       13.573795
   12       14.157820
 
  0.2222222E+00  0.2222222E+00  0.0000000E+00  0.7716049E-03
    1      -11.160573
    2      -10.829870
    3       -4.623003
    4       -4.524910
    5       -3.069852
    6       -2.996594
    7        0.485507
    8        2.454538
    9        8.633521
   10        9.352686
   11       13.913399
   12       16.221106
 
  0.2777778E+00  0.2222222E+00  0.0000000E+00  0.1543210E-02
    1      -10.265854
    2       -9.958163
    3       -5.647610
    4       -5.500209
    5       -3.748827
    6       -3.638204
    7        1.502841
    8        3.277299
    9        7.443969
   10        8.232422
   11       14.968225
   12       16.257392
 
  0.3333333E+00  0.2222222E+00  0.0000000E+00  0.1543210E-02
    1       -9.282348
    2       -9.008464
    3       -6.780077
    4       -6.588835
    5       -4.107873
    6       -3.965896
    7        2.555328
    8        3.952732
    9        6.464080
   10        7.190773
   11       16.007402
   12       16.201186
 
  0.3888889E+00  0.2222222E+00  0.0000000E+00  0.1543210E-02
    1       -8.507484
    2       -8.360470
    3       -7.496643
    4       -7.414652
    5       -4.218300
    6       -4.067582
    7        3.226249
    8        4.043888
    9        6.365220
   10        6.426943
   11       16.042160
   12       16.955236
 
  0.4444444E+00  0.2222222E+00  0.0000000E+00  0.1543210E-02
    1       -9.288880
    2       -9.014888
    3       -6.772666
    4       -6.580584
    5       -4.109559
    6       -3.967328
    7        2.550857
    8        3.950976
    9        6.458491
   10        7.200928
   11       16.003541
   12       16.195501
 
  0.5000000E+00  0.2222222E+00  0.0000000E+00  0.1543210E-02
    1      -10.271867
    2       -9.964189
    3       -5.640673
    4       -5.492304
    5       -3.750857
    6       -3.639852
    7        1.498012
    8        3.273021
    9        7.439058
   10        8.242540
   11       14.959608
   12       16.260850
 
 -0.4444444E+00  0.2222222E+00  0.0000000E+00  0.1543210E-02
    1      -11.165762
    2      -10.835066
    3       -4.621023
    4       -4.520609
    5       -3.069063
    6       -2.994362
    7        0.480939
    8        2.449906
    9        8.626584
   10        9.361850
   11       13.906281
   12       16.241283
 
 -0.3888889E+00  0.2222222E+00  0.0000000E+00  0.1543210E-02
    1      -11.940256
    2      -11.590728
    3       -3.834960
    4       -3.712308
    5       -2.103741
    6       -2.015405
    7       -0.422284
    8        1.675920
    9        9.778083
   10       10.509669
   11       12.974616
   12       15.144517
 
 -0.3333333E+00  0.2222222E+00  0.0000000E+00  0.1543210E-02
    1      -12.583438
    2      -12.218712
    3       -3.126482
    4       -2.987571
    5       -1.182281
    6       -1.057548
    7       -0.969834
    8        1.008187
    9       10.848883
   10       11.620619
   11       12.191593
   12       14.035758
 
 -0.2777778E+00  0.2222222E+00  0.0000000E+00  0.1543210E-02
    1      -13.088763
    2      -12.712170
    3       -2.401640
    4       -2.263188
    5       -1.783873
    6       -0.183558
    7       -0.107367
    8        0.472047
    9       11.575096
   10       11.835587
   11       12.614804
   12       13.297662
 
 -0.2222222E+00  0.2222222E+00  0.0000000E+00  0.7716049E-03
    1      -13.452014
    2      -13.066936
    3       -2.218362
    4       -1.664620
    5       -1.537528
    6        0.081507
    7        0.326830
    8        0.395907
    9       11.139370
   10       12.701452
   11       13.113355
   12       13.456863
 
  0.2777778E+00  0.2777778E+00  0.0000000E+00  0.7716049E-03
    1       -9.339170
    2       -9.059551
    3       -6.265415
    4       -6.149014
    5       -4.609656
    6       -4.528963
    7        2.538778
    8        4.082152
    9        6.436534
   10        7.243039
   11       16.014180
   12       16.943549
 
  0.3333333E+00  0.2777778E+00  0.0000000E+00  0.1543210E-02
    1       -8.380059
    2       -8.155150
    3       -7.086228
    4       -6.947465
    5       -5.057829
    6       -4.946017
    7        3.541648
    8        4.608726
    9        5.690746
   10        6.390092
   11       16.581221
   12       16.651413
 
  0.3888889E+00  0.2777778E+00  0.0000000E+00  0.1543210E-02
    1       -8.387826
    2       -8.162295
    3       -7.080023
    4       -6.938418
    5       -5.058106
    6       -4.946001
    7        3.537552
    8        4.609404
    9        5.682480
   10        6.400240
   11       16.588732
   12       16.646244
 
  0.4444444E+00  0.2777778E+00  0.0000000E+00  0.1543210E-02
    1       -9.347201
    2       -9.067685
    3       -6.260476
    4       -6.141341
    5       -4.608595
    6       -4.526203
    7        2.533316
    8        4.076507
    9        6.430836
   10        7.254968
   11       16.002216
   12       17.030065
 
  0.5000000E+00  0.2777778E+00  0.0000000E+00  0.1543210E-02
    1      -10.272913
    2       -9.965292
    3       -5.647909
    4       -5.498414
    5       -3.742905
    6       -3.630855
    7        1.497308
    8        3.270846
    9        7.437311
   10        8.242293
   11       14.958608
   12       16.295387
 
 -0.4444444E+00  0.2777778E+00  0.0000000E+00  0.1543210E-02
    1      -11.096677
    2      -10.767697
    3       -5.115236
    4       -4.941771
    5       -2.649464
    6       -2.532043
    7        0.552650
    8        2.491822
    9        8.399521
   10        9.275140
   11       13.978000
   12       14.987548
 
 -0.3888889E+00  0.2777778E+00  0.0000000E+00  0.1543210E-02
    1      -11.798466
    2      -11.452431
    3       -4.531158
    4       -4.353286
    5       -1.573019
    6       -1.471714
    7       -0.263545
    8        1.798985
    9        9.322963
   10       10.285962
   11       13.113372
   12       13.830259
 
 -0.3333333E+00  0.2777778E+00  0.0000000E+00  0.1543210E-02
    1      -12.368119
    2      -12.008439
    3       -3.868465
    4       -3.696422
    5       -0.932048
    6       -0.711111
    7       -0.627830
    8        1.220758
    9       10.226268
   10       11.219872
   11       12.406848
   12       13.062857
 
 -0.2777778E+00  0.2777778E+00  0.0000000E+00  0.7716049E-03
    1      -12.799572
    2      -12.429714
    3       -3.141903
    4       -2.982424
    5       -1.441190
    6       -0.228713
    7       -0.154234
    8        0.774671
    9       11.089068
   10       11.900025
   11       12.022276
   12       12.861171
 
  0.3333333E+00  0.3333333E+00  0.0000000E+00  0.7716049E-03
    1       -7.631021
    2       -7.495122
    3       -7.492640
    4       -7.360756
    5       -5.441922
    6       -5.440622
    7        4.253617
    8        5.013520
    9        5.024553
   10        5.972155
   11       16.378980
   12       16.407150
 
  0.3888889E+00  0.3333333E+00  0.0000000E+00  0.1543210E-02
    1       -8.390349
    2       -8.166323
    3       -7.081876
    4       -6.941200
    5       -5.052735
    6       -4.939365
    7        3.538206
    8        4.597561
    9        5.688985
   10        6.401537
   11       16.568309
   12       16.667975
 
  0.4444444E+00  0.3333333E+00  0.0000000E+00  0.1543210E-02
    1       -9.291627
    2       -9.018163
    3       -6.780013
    4       -6.587896
    5       -4.098270
    6       -3.955619
    7        2.550145
    8        3.942382
    9        6.460026
   10        7.200411
   11       16.015256
   12       16.218853
 
  0.5000000E+00  0.3333333E+00  0.0000000E+00  0.1543210E-02
    1      -10.140473
    2       -9.838100
    3       -6.406976
    4       -6.198342
    5       -2.992560
    6       -2.861155
    7        1.608037
    8        3.259296
    9        7.168093
   10        8.091963
   11       14.779626
   12       15.123141
 
 -0.4444444E+00  0.3333333E+00  0.0000000E+00  0.1543210E-02
    1      -10.888701
    2      -10.565364
    3       -5.920655
    4       -5.710917
    5       -1.945816
    6       -1.837325
    7        0.765676
    8        2.611237
    9        7.890758
   10        8.975869
   11       13.593983
   12       14.037498
 
 -0.3888889E+00  0.3333333E+00  0.0000000E+00  0.1543210E-02
    1      -11.515803
    2      -11.176748
    3       -5.321991
    4       -5.118678
    5       -1.127777
    6       -1.040105
    7        0.050925
    8        2.038120
    9        8.657783
   10        9.818354
   11       12.786912
   12       13.189082
 
 -0.3333333E+00  0.3333333E+00  0.0000000E+00  0.7716049E-03
    1      -12.011150
    2      -11.659730
    3       -4.626648
    4       -4.435878
    5       -0.694980
    6       -0.616765
    7       -0.518681
    8        1.568117
    9        9.455528
   10       10.587586
   11       12.530221
   12       12.805250
 
  0.3888889E+00  0.3888889E+00  0.0000000E+00  0.7716049E-03
    1       -8.516305
    2       -8.372629
    3       -7.495432
    4       -7.415422
    5       -4.206962
    6       -4.055934
    7        3.227067
    8        4.025890
    9        6.365343
   10        6.434054
   11       16.078479
   12       16.986772
 
  0.4444444E+00  0.3888889E+00  0.0000000E+00  0.1543210E-02
    1       -9.143975
    2       -8.903461
    3       -7.543989
    4       -7.348434
    5       -3.159512
    6       -3.022722
    7        2.565821
    8        3.608062
    9        6.546058
   10        7.097395
   11       14.714570
   12       15.393738
 
  0.5000000E+00  0.3888889E+00  0.0000000E+00  0.1543210E-02
    1       -9.882525
    2       -9.593637
    3       -7.217280
    4       -6.990400
    5       -2.171558
    6       -2.059348
    7        1.810216
    8        3.206116
    9        6.850116
   10        7.804422
   11       13.483107
   12       14.047993
 
 -0.4444444E+00  0.3888889E+00  0.0000000E+00  0.1543210E-02
    1      -10.546671
    2      -10.233660
    3       -6.705704
    4       -6.477589
    5       -1.414222
    6       -1.323899
    7        1.108171
    8        2.779873
    9        7.335060
   10        8.507865
   11       12.642588
   12       13.156713
 
 -0.3888889E+00  0.3888889E+00  0.0000000E+00  0.7716049E-03
    1      -11.096257
    2      -10.767673
    3       -6.063285
    4       -5.844154
    5       -1.043967
    6       -0.963112
    7        0.513063
    8        2.375344
    9        7.960002
   10        9.195511
   11       12.386860
   12       12.869563
 
  0.4444444E+00  0.4444444E+00  0.0000000E+00  0.7716049E-03
    1       -9.083859
    2       -8.932687
    3       -7.990153
    4       -7.880778
    5       -2.247254
    6       -2.133854
    7        2.440127
    8        3.267717
    9        6.603377
   10        7.163504
   11       13.441039
   12       14.021292
 
  0.5000000E+00  0.4444444E+00  0.0000000E+00  0.1543210E-02
    1       -9.531231
    2       -9.281564
    3       -7.892872
    4       -7.683226
    5       -1.559999
    6       -1.468307
    7        2.047013
    8        3.091120
    9        6.657318
   10        7.502248
   11       12.560453
   12       13.100126
 
 -0.4444444E+00  0.4444444E+00  0.0000000E+00  0.7716049E-03
    1      -10.082213
    2       -9.788086
    3       -7.388385
    4       -7.154235
    5       -1.258863
    6       -1.176585
    7        1.554505
    8        2.951667
    9        6.893102
   10        7.983232
   11       12.267184
   12       12.790391
 
  0.5000000E+00  0.5000000E+00  0.0000000E+00  0.3858025E-03
    1       -9.273496
    2       -9.119853
    3       -8.175093
    4       -8.060734
    5       -1.331115
    6       -1.248467
    7        2.173499
    8        3.008829
    9        6.609360
   10        7.364973
   11       12.225490
   12       12.759758
 