    4    4  200    1
  0.7421004E+01  0.2466437E-09  0.2466437E-09  0.5636988E-09  0.5000000E-15
  1.000000000000000E-004
  CAR 
 graphite                                
     16    455     12
 
  0.0000000E+00  0.0000000E+00  0.0000000E+00  0.3858025E-03
    1      -13.617667
    2      -12.603981
    3       -3.102121
    4        1.252439
    5        3.348115
    6        3.365446
    7        3.446268
    8        3.460591
    9       12.862891
   10       14.631936
   11       14.640030
   12       14.842360
 
  0.5555556E-01 -0.6938894E-17  0.0000000E+00  0.1543210E-02
    1      -13.542730
    2      -12.532744
    3       -3.011494
    4        1.331986
    5        3.045927
    6        3.172575
    7        3.185568
    8        3.304553
    9       12.938100
   10       14.656768
   11       14.901464
   12       14.948713
 
  0.1111111E+00 -0.1387779E-16  0.0000000E+00  0.1543210E-02
    1      -13.318436
    2      -12.319344
    3       -2.740453
    4        1.568266
    5        2.190413
    6        2.387273
    7        2.747809
    8        2.907897
    9       13.165647
   10       14.626759
   11       15.012201
   12       15.844223
 
  0.1666667E+00  0.0000000E+00  0.0000000E+00  0.1543210E-02
    1      -12.945830
    2      -11.964933
    3       -2.291175
    4        0.970926
    5        1.249599
    6        1.956231
    7        2.170497
    8        2.364284
    9       13.539643
   10       14.462205
   11       15.067225
   12       15.130041
 
  0.2222222E+00 -0.2775558E-16  0.0000000E+00  0.1543210E-02
    1      -12.426815
    2      -11.471220
    3       -1.667865
    4       -0.449919
    5       -0.086603
    6        1.562987
    7        1.781003
    8        2.484526
    9       13.620520
   10       13.954785
   11       14.281307
   12       15.051412
 
  0.2777778E+00  0.0000000E+00  0.0000000E+00  0.1543210E-02
    1      -11.764525
    2      -10.841297
    3       -1.954581
    4       -1.510280
    5       -0.878381
    6        1.000453
    7        1.234882
    8        3.130150
    9       11.964064
   10       13.752009
   11       13.809890
   12       14.571121
 
  0.3333333E+00 -0.2775558E-16  0.0000000E+00  0.1543210E-02
    1      -10.963963
    2      -10.080441
    3       -3.464519
    4       -2.944999
    5        0.062872
    6        0.529300
    7        0.774600
    8        3.839843
    9       10.324876
   10       12.412151
   11       13.541241
   12       14.583289
 
  0.3888889E+00 -0.2775558E-16  0.0000000E+00  0.1543210E-02
    1      -10.033749
    2       -9.200154
    3       -4.922301
    4       -4.337841
    5        0.177370
    6        0.429470
    7        1.124955
    8        4.465116
    9        8.931552
   10       11.096480
   11       13.324859
   12       14.487929
 
  0.4444444E+00 -0.5551115E-16  0.0000000E+00  0.1543210E-02
    1       -8.998887
    2       -8.244083
    3       -6.253982
    4       -5.640380
    5       -0.039354
    6        0.216658
    7        2.217812
    8        4.621553
    9        8.231651
   10        9.905885
   11       13.187649
   12       14.413623
 
  0.5000000E+00 -0.5551115E-16  0.0000000E+00  0.7716049E-03
    1       -8.140025
    2       -7.767809
    3       -6.852200
    4       -6.594562
    5       -0.112525
    6        0.144903
    7        2.883419
    8        4.337810
    9        8.308876
   10        9.228538
   11       13.140802
   12       14.386837
 
  0.5555556E-01  0.5555556E-01  0.0000000E+00  0.7716049E-03
    1      -13.393043
    2      -12.390297
    3       -2.830555
    4        1.489860
    5        2.510546
    6        2.626724
    7        2.889036
    8        2.988571
    9       13.090877
   10       14.748644
   11       15.023851
   12       15.466497
 
  0.1111111E+00  0.5555556E-01  0.0000000E+00  0.1543210E-02
    1      -13.094467
    2      -12.106296
    3       -2.470235
    4        1.527559
    5        1.721271
    6        1.802378
    7        2.319180
    8        2.468300
    9       13.399482
   10       14.784613
   11       15.220319
   12       15.626507
 
  0.1666667E+00  0.5555556E-01  0.0000000E+00  0.1543210E-02
    1      -12.648569
    2      -11.682134
    3       -1.933676
    4        0.242394
    5        0.538339
    6        1.668767
    7        1.870770
    8        2.261435
    9       13.849957
   10       14.296310
   11       14.628085
   12       15.311078
 
  0.2222222E+00  0.5555556E-01  0.0000000E+00  0.1543210E-02
    1      -12.057756
    2      -11.120181
    3       -1.226601
    4       -1.198445
    5       -0.808594
    6        1.048753
    7        1.284218
    8        2.851345
    9       12.736369
   10       14.213991
   11       14.267660
   12       14.565822
 
  0.2777778E+00  0.5555556E-01  0.0000000E+00  0.1543210E-02
    1      -11.326110
    2      -10.424538
    3       -2.692933
    4       -2.219292
    5       -0.359522
    6        0.512327
    7        0.768129
    8        3.538427
    9       11.096344
   10       12.964392
   11       13.996048
   12       14.890227
 
  0.3333333E+00  0.5555556E-01  0.0000000E+00  0.1543210E-02
    1      -10.460151
    2       -9.602970
    3       -4.170741
    4       -3.623200
    5        0.089960
    6        0.358282
    7        0.647118
    8        4.237325
    9        9.558341
   10       11.652873
   11       13.753087
   12       14.857163
 
  0.3888889E+00  0.5555556E-01  0.0000000E+00  0.1543210E-02
    1       -9.473719
    2       -8.674647
    3       -5.571877
    4       -4.968460
    5       -0.200084
    6        0.075579
    7        1.743588
    8        4.695292
    9        8.447009
   10       10.400478
   11       13.575160
   12       14.773314
 
  0.4444444E+00  0.5555556E-01  0.0000000E+00  0.1543210E-02
    1       -8.426590
    2       -7.791806
    3       -6.714554
    4       -6.181449
    5       -0.347737
    6       -0.068540
    7        2.741712
    8        4.518864
    9        8.241848
   10        9.365611
   11       13.482550
   12       14.722924
 
  0.5000000E+00  0.5555556E-01  0.0000000E+00  0.1543210E-02
    1       -8.428135
    2       -7.792945
    3       -6.713659
    4       -6.179585
    5       -0.348210
    6       -0.068938
    7        2.740847
    8        4.519427
    9        8.239840
   10        9.368032
   11       13.483022
   12       14.723398
 
 -0.4444444E+00  0.5555556E-01  0.0000000E+00  0.1543210E-02
    1       -9.475311
    2       -8.676206
    3       -5.569848
    4       -4.966119
    5       -0.201341
    6        0.074443
    7        1.742306
    8        4.695236
    9        8.445169
   10       10.403914
   11       13.576580
   12       14.774707
 
 -0.3888889E+00  0.5555556E-01  0.0000000E+00  0.1543210E-02
    1      -10.461554
    2       -9.604366
    3       -4.168427
    4       -3.620661
    5        0.087989
    6        0.356491
    7        0.645882
    8        4.236523
    9        9.556880
   10       11.656601
   11       13.755397
   12       14.859307
 
 -0.3333333E+00  0.5555556E-01  0.0000000E+00  0.1543210E-02
    1      -11.327302
    2      -10.425720
    3       -2.690633
    4       -2.216732
    5       -0.360631
    6        0.509898
    7        0.765876
    8        3.537432
    9       11.094366
   10       12.968331
   11       13.999075
   12       14.891887
 
 -0.2777778E+00  0.5555556E-01  0.0000000E+00  0.1543210E-02
    1      -12.058749
    2      -11.121155
    3       -1.227543
    4       -1.196532
    5       -0.806512
    6        1.046457
    7        1.281937
    8        2.850409
    9       12.733244
   10       14.216166
   11       14.271768
   12       14.566217
 
 -0.2222222E+00  0.5555556E-01  0.0000000E+00  0.1543210E-02
    1      -12.649325
    2      -11.682882
    3       -1.934428
    4        0.243057
    5        0.539048
    6        1.668010
    7        1.869388
    8        2.260658
    9       13.848910
   10       14.291868
   11       14.631563
   12       15.316132
 
 -0.1666667E+00  0.5555556E-01  0.0000000E+00  0.1543210E-02
    1      -13.095014
    2      -12.106829
    3       -2.470781
    4        1.524825
    5        1.718155
    6        1.801751
    7        2.322812
    8        2.469817
    9       13.398534
   10       14.787005
   11       15.225590
   12       15.621499
 
 -0.1111111E+00  0.5555556E-01  0.0000000E+00  0.1543210E-02
    1      -13.393325
    2      -12.390629
    3       -2.830886
    4        1.489638
    5        2.499708
    6        2.619526
    7        2.898254
    8        2.997149
    9       13.090234
   10       14.748851
   11       15.028615
   12       15.482731
 
 -0.5555556E-01  0.5555556E-01  0.0000000E+00  0.7716049E-03
    1      -13.542838
    2      -12.532850
    3       -3.011604
    4        1.331868
    5        3.033073
    6        3.162476
    7        3.197404
    8        3.315728
    9       12.937868
   10       14.655563
   11       14.903305
   12       14.954025
 
  0.1111111E+00  0.1111111E+00  0.0000000E+00  0.7716049E-03
    1      -12.722586
    2      -11.752520
    3       -2.022468
    4        0.627979
    5        0.798752
    6        1.631608
    7        1.758325
    8        2.186540
    9       13.798398
   10       14.567186
   11       15.193210
   12       15.613923
 
  0.1666667E+00  0.1111111E+00  0.0000000E+00  0.1543210E-02
    1      -12.204930
    2      -11.260139
    3       -1.401561
    4       -0.555904
    5       -0.292234
    6        0.854671
    7        1.044208
    8        2.709918
    9       13.243475
   10       14.346645
   11       14.480579
   12       15.282085
 
  0.2222222E+00  0.1111111E+00  0.0000000E+00  0.1543210E-02
    1      -11.544726
    2      -10.632326
    3       -1.928285
    4       -1.542243
    5       -0.615150
    6        0.172465
    7        0.431028
    8        3.350841
    9       11.742618
   10       13.244918
   11       14.898334
   12       15.207064
 
  0.2777778E+00  0.1111111E+00  0.0000000E+00  0.1543210E-02
    1      -10.747267
    2       -9.874981
    3       -3.362909
    4       -2.878423
    5       -0.360742
    6       -0.062790
    7        0.322516
    8        4.060490
    9       10.203988
   10       11.994333
   11       14.765135
   12       15.682906
 
  0.3333333E+00  0.1111111E+00  0.0000000E+00  0.1543210E-02
    1       -9.822139
    2       -8.999644
    3       -4.776014
    4       -4.215287
    5       -0.743048
    6       -0.424118
    7        1.381538
    8        4.699594
    9        8.855370
   10       10.765648
   11       14.559339
   12       15.720172
 
  0.3888889E+00  0.1111111E+00  0.0000000E+00  0.1543210E-02
    1       -8.794495
    2       -8.051588
    3       -6.080274
    4       -5.484705
    5       -0.973906
    6       -0.644701
    7        2.474683
    8        4.875838
    9        8.175283
   10        9.623691
   11       14.422734
   12       15.663416
 
  0.4444444E+00  0.1111111E+00  0.0000000E+00  0.1543210E-02
    1       -7.947728
    2       -7.579137
    3       -6.667143
    4       -6.420309
    5       -1.051599
    6       -0.719231
    7        3.146042
    8        4.584450
    9        8.343085
   10        8.887734
   11       14.376024
   12       15.640104
 
  0.5000000E+00  0.1111111E+00  0.0000000E+00  0.1543210E-02
    1       -8.797778
    2       -8.054643
    3       -6.076572
    4       -5.480313
    5       -0.975394
    6       -0.646033
    7        2.472348
    8        4.876721
    9        8.169912
   10        9.630833
   11       14.424379
   12       15.665077
 
 -0.4444444E+00  0.1111111E+00  0.0000000E+00  0.1543210E-02
    1       -9.825143
    2       -9.002630
    3       -4.771606
    4       -4.210377
    5       -0.745877
    6       -0.426756
    7        1.379037
    8        4.698500
    9        8.851441
   10       10.773519
   11       14.562590
   12       15.723217
 
 -0.3888889E+00  0.1111111E+00  0.0000000E+00  0.1543210E-02
    1      -10.749861
    2       -9.877566
    3       -3.358487
    4       -2.873394
    5       -0.364475
    6       -0.066185
    7        0.320190
    8        4.058524
    9       10.199653
   10       12.002752
   11       14.769816
   12       15.684063
 
 -0.3333333E+00  0.1111111E+00  0.0000000E+00  0.1543210E-02
    1      -11.546889
    2      -10.634476
    3       -1.924693
    4       -1.537970
    5       -0.617184
    6        0.168981
    7        0.427631
    8        3.348819
    9       11.736287
   10       13.253825
   11       14.900061
   12       15.208691
 
 -0.2777778E+00  0.1111111E+00  0.0000000E+00  0.1543210E-02
    1      -12.206654
    2      -11.261837
    3       -1.403242
    4       -0.555375
    5       -0.290676
    6        0.853994
    7        1.042971
    8        2.708150
    9       13.234703
   10       14.344257
   11       14.489451
   12       15.289694
 
 -0.2222222E+00  0.1111111E+00  0.0000000E+00  0.1543210E-02
    1      -12.723868
    2      -11.753795
    3       -2.023756
    4        0.621152
    5        0.796091
    6        1.636052
    7        1.763578
    8        2.185153
    9       13.796420
   10       14.557252
   11       15.205014
   12       15.629577
 
 -0.1666667E+00  0.1111111E+00  0.0000000E+00  0.1543210E-02
    1      -13.095333
    2      -12.107146
    3       -2.471106
    4        1.514854
    5        1.712118
    6        1.801381
    7        2.330223
    8        2.479623
    9       13.398053
   10       14.798193
   11       15.233484
   12       15.617966
 
 -0.1111111E+00  0.1111111E+00  0.0000000E+00  0.7716049E-03
    1      -13.318862
    2      -12.319768
    3       -2.740888
    4        1.567797
    5        2.176782
    6        2.375216
    7        2.761466
    8        2.920529
    9       13.164869
   10       14.636266
   11       15.020931
   12       15.840819
 
  0.1666667E+00  0.1666667E+00  0.0000000E+00  0.7716049E-03
    1      -11.617769
    2      -10.701866
    3       -1.467104
    4       -1.244907
    5       -0.700754
    6       -0.045216
    7        0.117673
    8        3.287358
    9       12.021186
   10       13.302337
   11       14.996928
   12       16.081263
 
  0.2222222E+00  0.1666667E+00  0.0000000E+00  0.1543210E-02
    1      -10.891632
    2      -10.011882
    3       -2.632219
    4       -2.298861
    5       -0.856942
    6       -0.611126
    7        0.158600
    8        3.965095
    9       10.665920
   10       12.100270
   11       15.747394
   12       16.208256
 
  0.2777778E+00  0.1666667E+00  0.0000000E+00  0.1543210E-02
    1      -10.033918
    2       -9.199105
    3       -3.947954
    4       -3.480300
    5       -1.441856
    6       -1.111262
    7        1.157092
    8        4.673222
    9        9.295596
   10       10.933179
   11       15.929907
   12       16.673392
 
  0.3333333E+00  0.1666667E+00  0.0000000E+00  0.1543210E-02
    1       -9.059720
    2       -8.284109
    3       -5.263364
    4       -4.709472
    5       -1.803712
    6       -1.432458
    7        2.248577
    8        5.181062
    9        8.226613
   10        9.819280
   11       15.765548
   12       17.029212
 
  0.3888889E+00  0.1666667E+00  0.0000000E+00  0.1543210E-02
    1       -8.031833
    2       -7.417906
    3       -6.359520
    4       -5.861219
    5       -1.978315
    6       -1.591451
    7        3.255600
    8        5.015888
    9        8.096190
   10        8.807320
   11       15.670742
   12       17.013773
 
  0.4444444E+00  0.1666667E+00  0.0000000E+00  0.1543210E-02
    1       -8.036437
    2       -7.420730
    3       -6.356618
    4       -5.855393
    5       -1.979269
    6       -1.592277
    7        3.253089
    8        5.017739
    9        8.084805
   10        8.819501
   11       15.671716
   12       17.014738
 
  0.5000000E+00  0.1666667E+00  0.0000000E+00  0.1543210E-02
    1       -9.064479
    2       -8.288820
    3       -5.257325
    4       -4.702377
    5       -1.806343
    6       -1.434796
    7        2.244962
    8        5.180724
    9        8.217854
   10        9.832154
   11       15.768476
   12       17.031315
 
 -0.4444444E+00  0.1666667E+00  0.0000000E+00  0.1543210E-02
    1      -10.038116
    2       -9.203317
    3       -3.941938
    4       -3.473062
    5       -1.445596
    6       -1.114524
    7        1.153549
    8        4.670430
    9        9.287682
   10       10.946881
   11       15.934631
   12       16.668356
 
 -0.3888889E+00  0.1666667E+00  0.0000000E+00  0.1543210E-02
    1      -10.895191
    2      -10.015437
    3       -2.628354
    4       -2.293143
    5       -0.859538
    6       -0.613450
    7        0.155397
    8        3.961817
    9       10.655881
   10       12.114559
   11       15.743516
   12       16.214888
 
 -0.3333333E+00  0.1666667E+00  0.0000000E+00  0.1543210E-02
    1      -11.620683
    2      -10.704768
    3       -1.470048
    4       -1.242566
    5       -0.703494
    6       -0.044564
    7        0.120849
    8        3.284343
    9       12.008716
   10       13.315746
   11       14.992994
   12       16.100760
 
 -0.2777778E+00  0.1666667E+00  0.0000000E+00  0.1543210E-02
    1      -12.207193
    2      -11.262385
    3       -1.403756
    4       -0.564949
    5       -0.296565
    6        0.861611
    7        1.053277
    8        2.707442
    9       13.230298
   10       14.343870
   11       14.490859
   12       15.309202
 
 -0.2222222E+00  0.1666667E+00  0.0000000E+00  0.1543210E-02
    1      -12.650184
    2      -11.683731
    3       -1.935277
    4        0.230046
    5        0.528213
    6        1.681354
    7        1.883312
    8        2.259617
    9       13.848237
   10       14.284205
   11       14.652104
   12       15.333175
 
 -0.1666667E+00  0.1666667E+00  0.0000000E+00  0.7716049E-03
    1      -12.946801
    2      -11.965889
    3       -2.292148
    4        0.957124
    5        1.237144
    6        1.955076
    7        2.185224
    8        2.378286
    9       13.538416
   10       14.481404
   11       15.083943
   12       15.120751
 
  0.2222222E+00  0.2222222E+00  0.0000000E+00  0.7716049E-03
    1      -10.104908
    2       -9.266143
    3       -3.414998
    4       -3.146342
    5       -1.790541
    6       -1.592964
    7        1.081171
    8        4.659069
    9        9.502231
   10       10.956342
   11       16.608196
   12       17.306548
 
  0.2777778E+00  0.2222222E+00  0.0000000E+00  0.1543210E-02
    1       -9.196059
    2       -8.408342
    3       -4.471528
    4       -4.076556
    5       -2.510583
    6       -2.210155
    7        2.125413
    8        5.338390
    9        8.332475
   10        9.893386
   11       17.241525
   12       17.594372
 
  0.3333333E+00  0.2222222E+00  0.0000000E+00  0.1543210E-02
    1       -8.192828
    2       -7.484844
    3       -5.625441
    4       -5.120454
    5       -2.908408
    6       -2.518330
    7        3.215542
    8        5.618597
    9        7.606742
   10        8.939528
   11       17.132366
   12       18.422997
 
  0.3888889E+00  0.2222222E+00  0.0000000E+00  0.1543210E-02
    1       -7.374097
    2       -7.018466
    3       -6.159419
    4       -5.986566
    5       -3.029211
    6       -2.614743
    7        3.910383
    8        5.290551
    9        7.737978
   10        8.338191
   11       17.080885
   12       18.643279
 
  0.4444444E+00  0.2222222E+00  0.0000000E+00  0.1543210E-02
    1       -8.199374
    2       -7.491117
    3       -5.618836
    4       -5.111365
    5       -2.910334
    6       -2.519773
    7        3.211350
    8        5.620631
    9        7.591869
   10        8.956300
   11       17.134127
   12       18.414825
 
  0.5000000E+00  0.2222222E+00  0.0000000E+00  0.1543210E-02
    1       -9.202045
    2       -8.414421
    3       -4.465327
    4       -4.067566
    5       -2.513051
    6       -2.211709
    7        2.120880
    8        5.335051
    9        8.320664
   10        9.911841
   11       17.243688
   12       17.586598
 
 -0.4444444E+00  0.2222222E+00  0.0000000E+00  0.1543210E-02
    1      -10.110078
    2       -9.271382
    3       -3.414567
    4       -3.139585
    5       -1.791359
    6       -1.590010
    7        1.076870
    8        4.654182
    9        9.489697
   10       10.974729
   11       16.601311
   12       17.327248
 
 -0.3888889E+00  0.2222222E+00  0.0000000E+00  0.1543210E-02
    1      -10.895941
    2      -10.016210
    3       -2.637502
    4       -2.298656
    5       -0.852048
    6       -0.603029
    7        0.154776
    8        3.960398
    9       10.652381
   10       12.115834
   11       15.744549
   12       16.241427
 
 -0.3333333E+00  0.2222222E+00  0.0000000E+00  0.1543210E-02
    1      -11.548170
    2      -10.635773
    3       -1.937122
    4       -1.548259
    5       -0.618348
    6        0.182738
    7        0.442328
    8        3.346865
    9       11.729130
   10       13.255654
   11       14.910461
   12       15.226206
 
 -0.2777778E+00  0.2222222E+00  0.0000000E+00  0.1543210E-02
    1      -12.060351
    2      -11.122754
    3       -1.229069
    4       -1.209998
    5       -0.818660
    6        1.062677
    7        1.298044
    8        2.848292
    9       12.723469
   10       14.231507
   11       14.273924
   12       14.578471
 
 -0.2222222E+00  0.2222222E+00  0.0000000E+00  0.7716049E-03
    1      -12.428533
    2      -11.472924
    3       -1.669550
    4       -0.463330
    5       -0.099131
    6        1.578820
    7        1.796282
    8        2.482443
    9       13.609066
   10       13.961080
   11       14.300389
   12       15.055761
 
  0.2777778E+00  0.2777778E+00  0.0000000E+00  0.7716049E-03
    1       -8.252549
    2       -7.528278
    3       -5.075389
    4       -4.765213
    5       -3.329029
    6       -3.119274
    7        3.188457
    8        5.962437
    9        7.317032
   10        8.995524
   11       18.270352
   12       18.497261
 
  0.3333333E+00  0.2777778E+00  0.0000000E+00  0.1543210E-02
    1       -7.266606
    2       -6.686579
    3       -5.882134
    4       -5.524876
    5       -3.813899
    6       -3.517502
    7        4.200162
    8        5.941939
    9        6.853470
   10        8.363723
   11       18.343055
   12       18.716151
 
  0.3888889E+00  0.2777778E+00  0.0000000E+00  0.1543210E-02
    1       -7.274407
    2       -6.692259
    3       -5.879349
    4       -5.513799
    5       -3.814625
    6       -3.517488
    7        4.197091
    8        5.946016
    9        6.841224
   10        8.374429
   11       18.343457
   12       18.697736
 
  0.4444444E+00  0.2777778E+00  0.0000000E+00  0.1543210E-02
    1       -8.260482
    2       -7.536580
    3       -5.072248
    4       -4.754818
    5       -3.329713
    6       -3.115634
    7        3.183802
    8        5.958082
    9        7.304696
   10        9.014817
   11       18.266820
   12       18.519558
 
  0.5000000E+00  0.2777778E+00  0.0000000E+00  0.1543210E-02
    1       -9.203053
    2       -8.415604
    3       -4.473079
    4       -4.072306
    5       -2.506480
    6       -2.202144
    7        2.120493
    8        5.330550
    9        8.321078
   10        9.912864
   11       17.269928
   12       17.594833
 
 -0.4444444E+00  0.2777778E+00  0.0000000E+00  0.1543210E-02
    1      -10.039851
    2       -9.205133
    3       -3.952906
    4       -3.482288
    5       -1.432579
    6       -1.100485
    7        1.152436
    8        4.665749
    9        9.284231
   10       10.948364
   11       15.965285
   12       16.674584
 
 -0.3888889E+00  0.2777778E+00  0.0000000E+00  0.1543210E-02
    1      -10.752115
    2       -9.879894
    3       -3.370762
    4       -2.884563
    5       -0.348074
    6       -0.049752
    7        0.318376
    8        4.054172
    9       10.192718
   10       12.003864
   11       14.799303
   12       15.702694
 
 -0.3333333E+00  0.2777778E+00  0.0000000E+00  0.1543210E-02
    1      -11.329872
    2      -10.428324
    3       -2.703314
    4       -2.228496
    5       -0.362909
    6        0.527531
    7        0.783145
    8        3.533470
    9       11.084874
   10       12.969323
   11       14.027164
   12       14.913317
 
 -0.2777778E+00  0.2777778E+00  0.0000000E+00  0.7716049E-03
    1      -11.767207
    2      -10.843980
    3       -1.967037
    4       -1.521758
    5       -0.880881
    6        1.017297
    7        1.251259
    8        3.126605
    9       11.952675
   10       13.754519
   11       13.836926
   12       14.587581
 
  0.3333333E+00  0.3333333E+00  0.0000000E+00  0.7716049E-03
    1       -6.552723
    2       -6.209817
    3       -6.204601
    4       -5.830466
    5       -4.093807
    6       -4.090619
    7        4.795007
    8        6.176522
    9        6.196476
   10        8.190862
   11       18.672552
   12       18.853154
 
  0.3888889E+00  0.3333333E+00  0.0000000E+00  0.1543210E-02
    1       -7.276298
    2       -6.698732
    3       -5.878667
    4       -5.516449
    5       -3.810542
    6       -3.510180
    7        4.199143
    8        5.924490
    9        6.855523
   10        8.377639
   11       18.375200
   12       18.683864
 
  0.4444444E+00  0.3333333E+00  0.0000000E+00  0.1543210E-02
    1       -8.201848
    2       -7.495339
    3       -5.625759
    4       -5.118305
    5       -2.899649
    6       -2.507903
    7        3.211983
    8        5.602744
    9        7.601496
   10        8.958286
   11       17.169813
   12       18.427066
 
  0.5000000E+00  0.3333333E+00  0.0000000E+00  0.1543210E-02
    1       -9.067518
    2       -8.292515
    3       -5.266877
    4       -4.711593
    5       -1.791565
    6       -1.419846
    7        2.244056
    8        5.167523
    9        8.220807
   10        9.833115
   11       15.803205
   12       17.064224
 
 -0.4444444E+00  0.3333333E+00  0.0000000E+00  0.1543210E-02
    1       -9.828628
    2       -9.006437
    3       -4.782345
    4       -4.220617
    5       -0.728620
    6       -0.409644
    7        1.376955
    8        4.688697
    9        8.848978
   10       10.773336
   11       14.595415
   12       15.755189
 
 -0.3888889E+00  0.3333333E+00  0.0000000E+00  0.1543210E-02
    1      -10.465324
    2       -9.608296
    3       -4.179578
    4       -3.631205
    5        0.106300
    6        0.374393
    7        0.643023
    8        4.228944
    9        9.550559
   10       11.656046
   11       13.786748
   12       14.889659
 
 -0.3333333E+00  0.3333333E+00  0.0000000E+00  0.7716049E-03
    1      -10.967829
    2      -10.084381
    3       -3.475562
    4       -2.955257
    5        0.059589
    6        0.546971
    7        0.791853
    8        3.833760
    9       10.315734
   10       12.413082
   11       13.572200
   12       14.612466
 
  0.3888889E+00  0.3888889E+00  0.0000000E+00  0.7716049E-03
    1       -7.381091
    2       -7.032881
    3       -6.156924
    4       -5.987823
    5       -3.018314
    6       -2.603027
    7        3.914450
    8        5.264121
    9        7.741992
   10        8.350190
   11       17.117983
   12       18.679373
 
  0.4444444E+00  0.3888889E+00  0.0000000E+00  0.1543210E-02
    1       -8.041528
    2       -7.431056
    3       -6.359422
    4       -5.862170
    5       -1.964514
    6       -1.577530
    7        3.255699
    8        4.992117
    9        8.096381
   10        8.819637
   11       15.708170
   12       17.051900
 
  0.5000000E+00  0.3888889E+00  0.0000000E+00  0.1543210E-02
    1       -8.802917
    2       -8.061482
    3       -6.083980
    4       -5.488548
    5       -0.958152
    6       -0.629077
    7        2.471824
    8        4.856091
    9        8.177284
   10        9.628675
   11       14.459061
   12       15.699854
 
 -0.4444444E+00  0.3888889E+00  0.0000000E+00  0.1543210E-02
    1       -9.480580
    2       -8.682172
    3       -5.578586
    4       -4.974879
    5       -0.182807
    6        0.092581
    7        1.739811
    8        4.679810
    9        8.446676
   10       10.401404
   11       13.609803
   12       14.807714
 
 -0.3888889E+00  0.3888889E+00  0.0000000E+00  0.7716049E-03
    1      -10.039023
    2       -9.205770
    3       -4.931451
    4       -4.346535
    5        0.195645
    6        0.447607
    7        1.121353
    8        4.453831
    9        8.927869
   10       11.095603
   11       13.357729
   12       14.520334
 
  0.4444444E+00  0.4444444E+00  0.0000000E+00  0.7716049E-03
    1       -7.955673
    2       -7.594867
    3       -6.666190
    4       -6.424338
    5       -1.034897
    6       -0.702767
    7        3.150231
    8        4.555014
    9        8.358437
   10        8.881363
   11       14.411837
   12       15.676174
 
  0.5000000E+00  0.4444444E+00  0.0000000E+00  0.1543210E-02
    1       -8.435417
    2       -7.804889
    3       -6.716403
    4       -6.185716
    5       -0.329769
    6       -0.050886
    7        2.742520
    8        4.492757
    9        8.252308
   10        9.360902
   11       13.517347
   12       14.757685
 
 -0.4444444E+00  0.4444444E+00  0.0000000E+00  0.7716049E-03
    1       -9.005987
    2       -8.252792
    3       -6.260012
    4       -5.647040
    5       -0.020709
    6        0.234932
    7        2.215956
    8        4.600568
    9        8.237886
   10        9.901937
   11       13.221502
   12       14.447314
 
  0.5000000E+00  0.5000000E+00  0.0000000E+00  0.3858025E-03
    1       -8.148281
    2       -7.783934
    3       -6.851630
    4       -6.599148
    5       -0.093756
    6        0.163304
    7        2.887508
    8        4.307591
    9        8.324974
   10        9.217652
   11       13.174963
   12       14.420903
 