32   
4    

1    
  0.0035800324135267  -0.0000013929212998   0.0093372033274353
  -0.2336364900    0.0071822700   -0.1341520400
   0.0272982700    0.0061201800   -0.0040360200
  -0.0109192400   -0.0159397600   -0.0039717200
  -0.0110261300    0.0283403500   -0.0041961600
  -0.0107197400    0.0060979800    0.0025615100
  -0.0106947400    0.0060913000    0.0026312300
  -0.0106997100    0.0060927200    0.0026254100
  -0.0107081700    0.0060975700    0.0026302400
   0.0103905900   -0.0062256500   -0.0026975700
   0.0100906800   -0.0063331200   -0.0028115900
   0.0103316800   -0.0060150500   -0.0027561800
   0.0101008700   -0.0062001600   -0.0016509500
   0.0103982600   -0.0056403100   -0.0028970100
   0.0106829200   -0.0057269800   -0.0027907100
   0.0106120300   -0.0059323000   -0.0028442800
   0.0103998000   -0.0057712800   -0.0016367600
   0.0112876300   -0.0056886200    0.0122162800
   0.0397556800   -0.0064146100    0.0460682000
   0.0868087700    0.0213399700    0.0465075800
   0.0870782700   -0.0330780400    0.0455697100
   0.0098886300   -0.0056521900   -0.0004498500
   0.0099045200   -0.0056475400   -0.0004176100
   0.0098931200   -0.0056523400   -0.0004194800
   0.0099046500   -0.0056502400   -0.0004155600
  -0.0099616300    0.0059177800    0.0011935100
  -0.0090894200    0.0060738900    0.0012550200
  -0.0096622600    0.0052525400    0.0012237100
  -0.0094301800    0.0057439600    0.0001461800
  -0.0091665000    0.0049999900    0.0011894200
  -0.0099407900    0.0051636200    0.0011033500
  -0.0096983900    0.0057508900    0.0011279000
  -0.0094730000    0.0053031900    0.0000942400

1    
 -0.0035800324135267   0.0000013929212998  -0.0093372033274353
   0.2125305000    0.0070377800    0.1341485100
  -0.0484557000    0.0059566100    0.0040234700
  -0.0101200600    0.0281270300    0.0040868100
  -0.0102229400   -0.0161685200    0.0040539400
  -0.0101422600    0.0061122200   -0.0024846300
  -0.0101625600    0.0061137200   -0.0025516400
  -0.0101532600    0.0061104700   -0.0025481100
  -0.0101514200    0.0060995400   -0.0025510700
   0.0104372900   -0.0064059400    0.0027171300
   0.0107156400   -0.0063022700    0.0028251600
   0.0104879600   -0.0066010200    0.0027669900
   0.0107157700   -0.0064284700    0.0015639300
   0.0109870300   -0.0061144800    0.0028164800
   0.0106958300   -0.0060254300    0.0027052300
   0.0107662700   -0.0058042100    0.0027645100
   0.0109795500   -0.0059675600    0.0016552600
   0.0082538400   -0.0055458900   -0.0122819200
  -0.0201931200   -0.0060728700   -0.0461356100
  -0.0677291500   -0.0329904800   -0.0456825700
  -0.0670623300    0.0214429900   -0.0465272400
   0.0093521800   -0.0056333900    0.0004847300
   0.0093406900   -0.0056286700    0.0004519100
   0.0093437400   -0.0056160400    0.0004516400
   0.0093524800   -0.0056241600    0.0004508800
  -0.0095665200    0.0058356300   -0.0011449100
  -0.0103392400    0.0056770400   -0.0011957400
  -0.0098145900    0.0064110000   -0.0011726400
  -0.0100499900    0.0059768300   -0.0001217000
  -0.0103916000    0.0058395000   -0.0012193100
  -0.0095370400    0.0056759800   -0.0011157700
  -0.0098210200    0.0050093200   -0.0011448100
  -0.0100459600    0.0055037300   -0.0000889100

17   
  0.0035800324135267  -0.0000013929212998   0.0093372033274353
  -0.0087730600    0.0055889600    0.0111636400
   0.0196958500    0.0061274500    0.0450096800
   0.0672272700    0.0330263600    0.0445504500
   0.0665698000   -0.0214045300    0.0454089900
  -0.0075954300    0.0057288400   -0.0015243500
  -0.0075829100    0.0057249200   -0.0014912500
  -0.0075857700    0.0057187900   -0.0014934700
  -0.0075899300    0.0057218200   -0.0014898100
   0.0114754600   -0.0068456100    0.0021222300
   0.0116804000   -0.0067010300    0.0024181800
   0.0114605100   -0.0069177400    0.0022631600
   0.0116662400   -0.0068200400    0.0012001800
   0.0116783700   -0.0066552800    0.0024034300
   0.0114932000   -0.0064599800    0.0020752400
   0.0114259700   -0.0064199500    0.0022271200
   0.0116746100   -0.0065076500    0.0011835100
  -0.2137256000   -0.0061312600   -0.1360121200
   0.0468584800   -0.0050428400   -0.0070914400
   0.0095526600   -0.0266233600   -0.0071526500
   0.0096609900    0.0164867200   -0.0071421300
   0.0067118800   -0.0052265400    0.0004031600
   0.0066998700   -0.0052182400    0.0002043800
   0.0066979200   -0.0052053500    0.0002042000
   0.0067152900   -0.0052160700    0.0002050600
  -0.0110333500    0.0064505700    0.0001224900
  -0.0106320500    0.0064141500    0.0002518800
  -0.0107942400    0.0060898900    0.0001740800
  -0.0109023000    0.0063069500   -0.0003275100
  -0.0104609200    0.0059013400    0.0002566600
  -0.0108754100    0.0058717000    0.0000758500
  -0.0106336900    0.0062304600    0.0001517000
  -0.0107601200    0.0060065400   -0.0003505500

17   
 -0.0035800324135267   0.0000013929212998  -0.0093372033274353
  -0.0124950500    0.0063783400   -0.0102224000
  -0.0408242700    0.0071042000   -0.0440834100
  -0.0879515200   -0.0207005200   -0.0445277900
  -0.0882018500    0.0337844200   -0.0435798400
  -0.0102857100    0.0063476700    0.0024219100
  -0.0102910900    0.0063488900    0.0023895900
  -0.0102870600    0.0063523700    0.0023884500
  -0.0102860100    0.0063475000    0.0023891900
   0.0101710500   -0.0060408100   -0.0030161700
   0.0099765300   -0.0061715800   -0.0033074500
   0.0101831000   -0.0059654100   -0.0031527300
   0.0099781700   -0.0060603300   -0.0021108100
   0.0099451100   -0.0054253100   -0.0033369900
   0.0101377100   -0.0056272700   -0.0030076200
   0.0102117500   -0.0056647800   -0.0031618100
   0.0099656700   -0.0055711700   -0.0020963500
   0.2334469900   -0.0070153500    0.1359547900
  -0.0273789200   -0.0059440200    0.0069613900
   0.0099758600    0.0156346800    0.0068989700
   0.0100745600   -0.0276563300    0.0071351300
   0.0095382600   -0.0058961500   -0.0005109900
   0.0095548500   -0.0058986600   -0.0003126400
   0.0095521100   -0.0059047100   -0.0003126200
   0.0095470400   -0.0058982800   -0.0003129700
  -0.0092270300    0.0055064400    0.0000008000
  -0.0096270100    0.0055558900   -0.0001316800
  -0.0094733800    0.0058747700   -0.0000571900
  -0.0093641400    0.0056555400    0.0004348800
  -0.0093660100    0.0052438700   -0.0001568500
  -0.0089579300    0.0052665100    0.0000190300
  -0.0091853000    0.0049093800   -0.0000560000
  -0.0090564900    0.0051302200    0.0004601700
