mesh: [     9,     9,     4 ]
nqpoint: 50     
reciprocal_lattice:
- [   0.40553429,   0.23434576,   0.00000000 ] # a*
- [   0.00018224,   0.46837588,   0.00000000 ] # b*
- [   0.00000000,   0.00000000,   0.15545335 ] # c*
natom:   4      
lattice:
- [     2.466437248995937,    -0.000959642981403,     0.000000000000000 ] # a
- [    -1.234049699648306,     2.135517492938035,     0.000000000000000 ] # b
- [     0.000000000000000,     0.000000000000000,     6.432798206301330 ] # c
points:
- symbol: C  # 1
  coordinates: [  0.999346608899160,  0.000653437440448,  0.250000000000000 ]
  mass: 12.010700
- symbol: C  # 2
  coordinates: [  0.000653437440448,  0.999346608899160,  0.750000000000000 ]
  mass: 12.010700
- symbol: C  # 3
  coordinates: [  0.332584924946424,  0.667415057713967,  0.250000000000000 ]
  mass: 12.010700
- symbol: C  # 4
  coordinates: [  0.667415057713967,  0.332584924946424,  0.750000000000000 ]
  mass: 12.010700
phonon:
- q-position: [    0.0000000,    0.0000000,    0.1250000 ]
  weight: 2    
  band:
  - # 1
    frequency:    -1.2559499688
  - # 2
    frequency:    -0.7789807948
  - # 3
    frequency:    -0.4959763010
  - # 4
    frequency:     1.0391430596
  - # 5
    frequency:     1.4792553305
  - # 6
    frequency:     3.4981430478
  - # 7
    frequency:    24.3129520853
  - # 8
    frequency:    26.1307567863
  - # 9
    frequency:    45.8714014558
  - # 10
    frequency:    46.0045823544
  - # 11
    frequency:    46.0399027801
  - # 12
    frequency:    46.9854712452

- q-position: [    0.1111111,    0.0000000,    0.1250000 ]
  weight: 8    
  band:
  - # 1
    frequency:     4.0333602032
  - # 2
    frequency:     5.5670672105
  - # 3
    frequency:     5.8982665281
  - # 4
    frequency:     6.0444684927
  - # 5
    frequency:    11.4129986067
  - # 6
    frequency:    11.5593091467
  - # 7
    frequency:    23.8583301071
  - # 8
    frequency:    25.5381962549
  - # 9
    frequency:    45.4969862191
  - # 10
    frequency:    45.8985649354
  - # 11
    frequency:    45.9885277767
  - # 12
    frequency:    46.6357080946

- q-position: [    0.2222222,    0.0000000,    0.1250000 ]
  weight: 8    
  band:
  - # 1
    frequency:     7.7339113020
  - # 2
    frequency:     8.9439932713
  - # 3
    frequency:    11.3513275587
  - # 4
    frequency:    11.5142284993
  - # 5
    frequency:    22.0107073303
  - # 6
    frequency:    22.1699847977
  - # 7
    frequency:    22.5992286743
  - # 8
    frequency:    23.8946300666
  - # 9
    frequency:    44.4125423643
  - # 10
    frequency:    44.9377690695
  - # 11
    frequency:    45.7853474976
  - # 12
    frequency:    46.0375382573

- q-position: [    0.3333333,    0.0000000,    0.1250000 ]
  weight: 8    
  band:
  - # 1
    frequency:    11.0982014727
  - # 2
    frequency:    12.0267116193
  - # 3
    frequency:    15.7911413088
  - # 4
    frequency:    15.9366821006
  - # 5
    frequency:    20.8296064672
  - # 6
    frequency:    21.5888417719
  - # 7
    frequency:    30.9398802759
  - # 8
    frequency:    31.0931814665
  - # 9
    frequency:    43.0062797226
  - # 10
    frequency:    43.3345011619
  - # 11
    frequency:    44.7963402747
  - # 12
    frequency:    44.8905364186

- q-position: [    0.4444444,    0.0000000,    0.1250000 ]
  weight: 8    
  band:
  - # 1
    frequency:    13.7195708337
  - # 2
    frequency:    14.2508425138
  - # 3
    frequency:    18.4466840353
  - # 4
    frequency:    18.5038464975
  - # 5
    frequency:    19.1210425334
  - # 6
    frequency:    19.3851010480
  - # 7
    frequency:    37.7338245909
  - # 8
    frequency:    37.8459167482
  - # 9
    frequency:    41.9647316757
  - # 10
    frequency:    42.0681669165
  - # 11
    frequency:    42.3060733154
  - # 12
    frequency:    42.3654298931

- q-position: [    0.1111111,    0.1111111,    0.1250000 ]
  weight: 4    
  band:
  - # 1
    frequency:     7.2206799050
  - # 2
    frequency:     8.0987634768
  - # 3
    frequency:    10.5766471207
  - # 4
    frequency:    10.9237351378
  - # 5
    frequency:    19.0628662076
  - # 6
    frequency:    19.1423190901
  - # 7
    frequency:    22.9385540491
  - # 8
    frequency:    24.3247617933
  - # 9
    frequency:    44.7817850487
  - # 10
    frequency:    45.6248306084
  - # 11
    frequency:    45.8329902086
  - # 12
    frequency:    45.8502677078

- q-position: [    0.2222222,    0.1111111,    0.1250000 ]
  weight: 8    
  band:
  - # 1
    frequency:    10.4279412374
  - # 2
    frequency:    11.1581184973
  - # 3
    frequency:    15.7347144600
  - # 4
    frequency:    16.1652220456
  - # 5
    frequency:    21.3617966992
  - # 6
    frequency:    22.2602626351
  - # 7
    frequency:    27.3164856877
  - # 8
    frequency:    27.4383431473
  - # 9
    frequency:    43.7156155820
  - # 10
    frequency:    44.1978098660
  - # 11
    frequency:    45.0572535828
  - # 12
    frequency:    45.1219701365

- q-position: [    0.3333333,    0.1111111,    0.1250000 ]
  weight: 8    
  band:
  - # 1
    frequency:    13.2232180010
  - # 2
    frequency:    13.7535219697
  - # 3
    frequency:    19.5298052704
  - # 4
    frequency:    19.5726749548
  - # 5
    frequency:    19.8844437928
  - # 6
    frequency:    19.9197103459
  - # 7
    frequency:    34.3281776361
  - # 8
    frequency:    34.4758694691
  - # 9
    frequency:    42.4891995317
  - # 10
    frequency:    42.5752277714
  - # 11
    frequency:    43.4014276970
  - # 12
    frequency:    43.5231504802

- q-position: [   -0.5555556,    0.1111111,    0.1250000 ]
  weight: 8    
  band:
  - # 1
    frequency:    14.4512297395
  - # 2
    frequency:    14.9091151097
  - # 3
    frequency:    18.5443132356
  - # 4
    frequency:    18.6675304381
  - # 5
    frequency:    21.0092943094
  - # 6
    frequency:    21.2286327185
  - # 7
    frequency:    39.4079325973
  - # 8
    frequency:    39.4369934518
  - # 9
    frequency:    39.6512177501
  - # 10
    frequency:    39.7719625737
  - # 11
    frequency:    42.5814887109
  - # 12
    frequency:    42.5840337940

- q-position: [   -0.4444444,    0.1111111,    0.1250000 ]
  weight: 8    
  band:
  - # 1
    frequency:    12.4701600090
  - # 2
    frequency:    13.4164972160
  - # 3
    frequency:    19.5401334308
  - # 4
    frequency:    19.6649053548
  - # 5
    frequency:    19.8216547233
  - # 6
    frequency:    20.3176566456
  - # 7
    frequency:    34.2768838449
  - # 8
    frequency:    34.3607073558
  - # 9
    frequency:    42.4996777687
  - # 10
    frequency:    42.7255514834
  - # 11
    frequency:    43.4775659008
  - # 12
    frequency:    43.5360746094

- q-position: [   -0.3333333,    0.1111111,    0.1250000 ]
  weight: 8    
  band:
  - # 1
    frequency:     9.4145896471
  - # 2
    frequency:    10.7971113481
  - # 3
    frequency:    15.6833581025
  - # 4
    frequency:    15.7812226863
  - # 5
    frequency:    21.6203672218
  - # 6
    frequency:    22.6503948574
  - # 7
    frequency:    27.2049404588
  - # 8
    frequency:    27.3026998908
  - # 9
    frequency:    43.8376982892
  - # 10
    frequency:    44.1260994452
  - # 11
    frequency:    45.0743472273
  - # 12
    frequency:    45.3367002512

- q-position: [   -0.2222222,    0.1111111,    0.1250000 ]
  weight: 8    
  band:
  - # 1
    frequency:     6.0049919078
  - # 2
    frequency:     7.8740980514
  - # 3
    frequency:    10.4834789385
  - # 4
    frequency:    10.5559393528
  - # 5
    frequency:    18.9057385962
  - # 6
    frequency:    19.0172645173
  - # 7
    frequency:    23.1037139335
  - # 8
    frequency:    24.5822481031
  - # 9
    frequency:    44.9308609624
  - # 10
    frequency:    45.0877277556
  - # 11
    frequency:    45.7816059819
  - # 12
    frequency:    46.4874490445

- q-position: [   -0.1111111,    0.1111111,    0.1250000 ]
  weight: 4    
  band:
  - # 1
    frequency:     3.1357663727
  - # 2
    frequency:     5.5117133038
  - # 3
    frequency:     5.7621054411
  - # 4
    frequency:     5.9084558499
  - # 5
    frequency:    11.2779633934
  - # 6
    frequency:    11.5047685352
  - # 7
    frequency:    23.9146666542
  - # 8
    frequency:    25.6277913427
  - # 9
    frequency:    45.6111743487
  - # 10
    frequency:    45.6402487088
  - # 11
    frequency:    45.9091037460
  - # 12
    frequency:    46.9279176834

- q-position: [    0.2222222,    0.2222222,    0.1250000 ]
  weight: 4    
  band:
  - # 1
    frequency:    13.0533686086
  - # 2
    frequency:    13.5671907672
  - # 3
    frequency:    19.6757279268
  - # 4
    frequency:    20.0605502783
  - # 5
    frequency:    21.4445667828
  - # 6
    frequency:    21.9114021706
  - # 7
    frequency:    32.0734310150
  - # 8
    frequency:    32.1049474088
  - # 9
    frequency:    43.0926940116
  - # 10
    frequency:    43.1138338975
  - # 11
    frequency:    43.3601457813
  - # 12
    frequency:    43.6294656674

- q-position: [    0.3333333,    0.2222222,    0.1250000 ]
  weight: 8    
  band:
  - # 1
    frequency:    15.1289768122
  - # 2
    frequency:    15.4679140398
  - # 3
    frequency:    17.9795145218
  - # 4
    frequency:    18.0572405695
  - # 5
    frequency:    25.3299283935
  - # 6
    frequency:    25.6645502421
  - # 7
    frequency:    36.0387926026
  - # 8
    frequency:    36.1309906627
  - # 9
    frequency:    39.9429290292
  - # 10
    frequency:    39.9977926890
  - # 11
    frequency:    43.3566660153
  - # 12
    frequency:    43.4053983547

- q-position: [   -0.5555556,    0.2222222,    0.1250000 ]
  weight: 8    
  band:
  - # 1
    frequency:    14.3334893929
  - # 2
    frequency:    15.0492359719
  - # 3
    frequency:    18.4263539538
  - # 4
    frequency:    18.6119709358
  - # 5
    frequency:    25.2961915451
  - # 6
    frequency:    25.4882993421
  - # 7
    frequency:    36.0011081483
  - # 8
    frequency:    36.0630036775
  - # 9
    frequency:    40.0027139078
  - # 10
    frequency:    40.0582163741
  - # 11
    frequency:    43.4028012625
  - # 12
    frequency:    43.4442578734

- q-position: [   -0.4444444,    0.2222222,    0.1250000 ]
  weight: 8    
  band:
  - # 1
    frequency:    11.8675326178
  - # 2
    frequency:    12.9848459423
  - # 3
    frequency:    20.1303407904
  - # 4
    frequency:    20.7447297558
  - # 5
    frequency:    21.4180486367
  - # 6
    frequency:    21.5273983961
  - # 7
    frequency:    31.8810615742
  - # 8
    frequency:    31.9836711915
  - # 9
    frequency:    43.1441583816
  - # 10
    frequency:    43.2942767465
  - # 11
    frequency:    43.5215958328
  - # 12
    frequency:    43.6341906094

- q-position: [   -0.3333333,    0.2222222,    0.1250000 ]
  weight: 8    
  band:
  - # 1
    frequency:     9.1212420294
  - # 2
    frequency:    10.6637777579
  - # 3
    frequency:    15.7196244947
  - # 4
    frequency:    15.7942200713
  - # 5
    frequency:    21.6904006470
  - # 6
    frequency:    22.7780406656
  - # 7
    frequency:    27.0597112370
  - # 8
    frequency:    27.2350182000
  - # 9
    frequency:    43.8881937459
  - # 10
    frequency:    43.9079981274
  - # 11
    frequency:    45.0599068368
  - # 12
    frequency:    45.6036047396

- q-position: [   -0.2222222,    0.2222222,    0.1250000 ]
  weight: 4    
  band:
  - # 1
    frequency:     6.6942816174
  - # 2
    frequency:     8.6418097651
  - # 3
    frequency:    11.2969084525
  - # 4
    frequency:    11.3924857357
  - # 5
    frequency:    21.7683659998
  - # 6
    frequency:    22.0043584250
  - # 7
    frequency:    22.7688799162
  - # 8
    frequency:    24.1726284675
  - # 9
    frequency:    44.5313570400
  - # 10
    frequency:    44.5434105608
  - # 11
    frequency:    45.7644440385
  - # 12
    frequency:    46.5348427835

- q-position: [   -0.6666667,    0.3333333,    0.1250000 ]
  weight: 4    
  band:
  - # 1
    frequency:    16.1023469062
  - # 2
    frequency:    16.3557068634
  - # 3
    frequency:    16.9193995000
  - # 4
    frequency:    17.1925324322
  - # 5
    frequency:    28.8852817748
  - # 6
    frequency:    29.0130016027
  - # 7
    frequency:    36.9901846601
  - # 8
    frequency:    37.0246329749
  - # 9
    frequency:    37.0584121507
  - # 10
    frequency:    37.1739979679
  - # 11
    frequency:    43.6835626346
  - # 12
    frequency:    43.7063529585

- q-position: [   -0.5555556,    0.3333333,    0.1250000 ]
  weight: 8    
  band:
  - # 1
    frequency:    14.3692857613
  - # 2
    frequency:    14.9820414100
  - # 3
    frequency:    18.4698095858
  - # 4
    frequency:    18.6117905773
  - # 5
    frequency:    25.3744203738
  - # 6
    frequency:    25.4126928763
  - # 7
    frequency:    35.9703404914
  - # 8
    frequency:    36.0811350318
  - # 9
    frequency:    40.0147426616
  - # 10
    frequency:    40.0321782659
  - # 11
    frequency:    43.4085000584
  - # 12
    frequency:    43.4367364963

- q-position: [   -0.4444444,    0.3333333,    0.1250000 ]
  weight: 8    
  band:
  - # 1
    frequency:    12.3983796470
  - # 2
    frequency:    13.3239624381
  - # 3
    frequency:    19.6166958646
  - # 4
    frequency:    19.6593514893
  - # 5
    frequency:    19.8638325775
  - # 6
    frequency:    20.4091724070
  - # 7
    frequency:    34.1502144190
  - # 8
    frequency:    34.3016064340
  - # 9
    frequency:    42.5533949817
  - # 10
    frequency:    42.5780396581
  - # 11
    frequency:    43.4692241047
  - # 12
    frequency:    43.7055866780

- q-position: [   -0.3333333,    0.3333333,    0.1250000 ]
  weight: 4    
  band:
  - # 1
    frequency:    10.3987694739
  - # 2
    frequency:    11.6933957567
  - # 3
    frequency:    15.7882471079
  - # 4
    frequency:    15.8505281248
  - # 5
    frequency:    21.0372120826
  - # 6
    frequency:    21.9471598520
  - # 7
    frequency:    30.7173847368
  - # 8
    frequency:    30.9262148293
  - # 9
    frequency:    43.0998709800
  - # 10
    frequency:    43.1108776797
  - # 11
    frequency:    44.8015908011
  - # 12
    frequency:    45.2576095521

- q-position: [   -0.5555556,    0.4444444,    0.1250000 ]
  weight: 4    
  band:
  - # 1
    frequency:    14.4050613621
  - # 2
    frequency:    14.8130484651
  - # 3
    frequency:    18.6316451343
  - # 4
    frequency:    18.7337310402
  - # 5
    frequency:    21.1021900105
  - # 6
    frequency:    21.1040073246
  - # 7
    frequency:    39.4479254457
  - # 8
    frequency:    39.4582859192
  - # 9
    frequency:    39.6112889525
  - # 10
    frequency:    39.6912634728
  - # 11
    frequency:    42.5847979239
  - # 12
    frequency:    42.5908177978

- q-position: [   -0.4444444,    0.4444444,    0.1250000 ]
  weight: 4    
  band:
  - # 1
    frequency:    13.5856510073
  - # 2
    frequency:    14.1595806412
  - # 3
    frequency:    18.4565716601
  - # 4
    frequency:    18.4789012588
  - # 5
    frequency:    19.2008917968
  - # 6
    frequency:    19.5119953197
  - # 7
    frequency:    37.6494945219
  - # 8
    frequency:    37.7550958587
  - # 9
    frequency:    41.9938962508
  - # 10
    frequency:    42.0224782788
  - # 11
    frequency:    42.3036459389
  - # 12
    frequency:    42.4763557814

- q-position: [    0.0000000,    0.0000000,    0.3750000 ]
  weight: 2    
  band:
  - # 1
    frequency:    -1.4658811653
  - # 2
    frequency:    -1.2582015568
  - # 3
    frequency:    -0.8978834781
  - # 4
    frequency:     0.1434483397
  - # 5
    frequency:     2.8750059441
  - # 6
    frequency:     3.6924350074
  - # 7
    frequency:    25.4735122678
  - # 8
    frequency:    26.2242138055
  - # 9
    frequency:    45.5511915605
  - # 10
    frequency:    45.6328135635
  - # 11
    frequency:    45.6474101979
  - # 12
    frequency:    46.0164169538

- q-position: [    0.1111111,    0.0000000,    0.3750000 ]
  weight: 8    
  band:
  - # 1
    frequency:     4.8725444041
  - # 2
    frequency:     5.5083395660
  - # 3
    frequency:     5.8947951014
  - # 4
    frequency:     5.9591187184
  - # 5
    frequency:    11.4171627268
  - # 6
    frequency:    11.4807957612
  - # 7
    frequency:    24.9224602033
  - # 8
    frequency:    25.6161173746
  - # 9
    frequency:    45.2079185790
  - # 10
    frequency:    45.4687198770
  - # 11
    frequency:    45.6680163249
  - # 12
    frequency:    45.8444464000

- q-position: [    0.2222222,    0.0000000,    0.3750000 ]
  weight: 8    
  band:
  - # 1
    frequency:     8.2042432019
  - # 2
    frequency:     8.7098247785
  - # 3
    frequency:    11.4118298981
  - # 4
    frequency:    11.4843791795
  - # 5
    frequency:    22.0513768595
  - # 6
    frequency:    22.1186154702
  - # 7
    frequency:    23.3992725126
  - # 8
    frequency:    23.9338767691
  - # 9
    frequency:    44.2238309536
  - # 10
    frequency:    44.4614454952
  - # 11
    frequency:    45.5701830569
  - # 12
    frequency:    45.6556492629

- q-position: [    0.3333333,    0.0000000,    0.3750000 ]
  weight: 8    
  band:
  - # 1
    frequency:    11.3765066778
  - # 2
    frequency:    11.7604670995
  - # 3
    frequency:    15.8556133588
  - # 4
    frequency:    15.9171660872
  - # 5
    frequency:    21.2712965424
  - # 6
    frequency:    21.5846405186
  - # 7
    frequency:    30.9990513710
  - # 8
    frequency:    31.0628849963
  - # 9
    frequency:    42.9397873186
  - # 10
    frequency:    43.0790739183
  - # 11
    frequency:    44.6908379753
  - # 12
    frequency:    44.7267114193

- q-position: [    0.4444444,    0.0000000,    0.3750000 ]
  weight: 8    
  band:
  - # 1
    frequency:    13.8758381092
  - # 2
    frequency:    14.0959559974
  - # 3
    frequency:    18.4675896152
  - # 4
    frequency:    18.4913077375
  - # 5
    frequency:    19.2371899386
  - # 6
    frequency:    19.3468741379
  - # 7
    frequency:    37.7804315897
  - # 8
    frequency:    37.8268099997
  - # 9
    frequency:    41.9741965899
  - # 10
    frequency:    42.0181214194
  - # 11
    frequency:    42.2921847172
  - # 12
    frequency:    42.3174171907

- q-position: [    0.1111111,    0.1111111,    0.3750000 ]
  weight: 4    
  band:
  - # 1
    frequency:     7.6564710285
  - # 2
    frequency:     8.0392094354
  - # 3
    frequency:    10.6340849155
  - # 4
    frequency:    10.7874857553
  - # 5
    frequency:    19.0518824537
  - # 6
    frequency:    19.0849025436
  - # 7
    frequency:    23.8021929767
  - # 8
    frequency:    24.3745223875
  - # 9
    frequency:    44.5870559493
  - # 10
    frequency:    44.9379861689
  - # 11
    frequency:    45.5800681132
  - # 12
    frequency:    45.5877091251

- q-position: [    0.2222222,    0.1111111,    0.3750000 ]
  weight: 8    
  band:
  - # 1
    frequency:    10.7071318696
  - # 2
    frequency:    11.0128250990
  - # 3
    frequency:    15.8456834646
  - # 4
    frequency:    16.0272475667
  - # 5
    frequency:    21.8957715010
  - # 6
    frequency:    22.2664486002
  - # 7
    frequency:    27.3303049577
  - # 8
    frequency:    27.3810713159
  - # 9
    frequency:    43.6356816422
  - # 10
    frequency:    43.8397996517
  - # 11
    frequency:    44.9222257817
  - # 12
    frequency:    44.9443647574

- q-position: [    0.3333333,    0.1111111,    0.3750000 ]
  weight: 8    
  band:
  - # 1
    frequency:    13.3953712990
  - # 2
    frequency:    13.6144520498
  - # 3
    frequency:    19.6687817308
  - # 4
    frequency:    19.7071586425
  - # 5
    frequency:    19.8129597320
  - # 6
    frequency:    19.8535004763
  - # 7
    frequency:    34.3674000030
  - # 8
    frequency:    34.4287308108
  - # 9
    frequency:    42.4784426473
  - # 10
    frequency:    42.5148057313
  - # 11
    frequency:    43.3850130062
  - # 12
    frequency:    43.4344301879

- q-position: [   -0.5555556,    0.1111111,    0.3750000 ]
  weight: 8    
  band:
  - # 1
    frequency:    14.5781195567
  - # 2
    frequency:    14.7697835631
  - # 3
    frequency:    18.5691839126
  - # 4
    frequency:    18.6222891665
  - # 5
    frequency:    21.0897770458
  - # 6
    frequency:    21.1805179012
  - # 7
    frequency:    39.4257190833
  - # 8
    frequency:    39.4387569260
  - # 9
    frequency:    39.6875105124
  - # 10
    frequency:    39.7371418538
  - # 11
    frequency:    42.5942801483
  - # 12
    frequency:    42.5952453379

- q-position: [   -0.4444444,    0.1111111,    0.3750000 ]
  weight: 8    
  band:
  - # 1
    frequency:    12.6807013650
  - # 2
    frequency:    13.0730343025
  - # 3
    frequency:    19.6411833796
  - # 4
    frequency:    19.6927184359
  - # 5
    frequency:    20.0963310116
  - # 6
    frequency:    20.3015191341
  - # 7
    frequency:    34.3419128208
  - # 8
    frequency:    34.3763934768
  - # 9
    frequency:    42.4717580205
  - # 10
    frequency:    42.5655291908
  - # 11
    frequency:    43.4330370756
  - # 12
    frequency:    43.4574935197

- q-position: [   -0.3333333,    0.1111111,    0.3750000 ]
  weight: 8    
  band:
  - # 1
    frequency:     9.7978504301
  - # 2
    frequency:    10.3725054927
  - # 3
    frequency:    15.8010837879
  - # 4
    frequency:    15.8409242537
  - # 5
    frequency:    22.2381202840
  - # 6
    frequency:    22.6629679555
  - # 7
    frequency:    27.2748940556
  - # 8
    frequency:    27.3153174088
  - # 9
    frequency:    43.6995462143
  - # 10
    frequency:    43.8316969789
  - # 11
    frequency:    44.9248093191
  - # 12
    frequency:    45.0216381756

- q-position: [   -0.2222222,    0.1111111,    0.3750000 ]
  weight: 8    
  band:
  - # 1
    frequency:     6.6938580808
  - # 2
    frequency:     7.4655549185
  - # 3
    frequency:    10.5610902741
  - # 4
    frequency:    10.5889329224
  - # 5
    frequency:    18.9824856269
  - # 6
    frequency:    19.0267622857
  - # 7
    frequency:    24.0230028271
  - # 8
    frequency:    24.6331029875
  - # 9
    frequency:    44.6707200703
  - # 10
    frequency:    44.7534567843
  - # 11
    frequency:    45.5441725868
  - # 12
    frequency:    45.8207658190

- q-position: [   -0.1111111,    0.1111111,    0.3750000 ]
  weight: 4    
  band:
  - # 1
    frequency:     4.3099078505
  - # 2
    frequency:     5.2398978403
  - # 3
    frequency:     5.7772554463
  - # 4
    frequency:     5.8392765997
  - # 5
    frequency:    11.3797456659
  - # 6
    frequency:    11.4644611349
  - # 7
    frequency:    24.9982721928
  - # 8
    frequency:    25.7054970587
  - # 9
    frequency:    45.2736547327
  - # 10
    frequency:    45.2856474375
  - # 11
    frequency:    45.6190931511
  - # 12
    frequency:    46.0442879177

- q-position: [    0.2222222,    0.2222222,    0.3750000 ]
  weight: 4    
  band:
  - # 1
    frequency:    13.2283751295
  - # 2
    frequency:    13.4406802437
  - # 3
    frequency:    19.8743057910
  - # 4
    frequency:    20.0329245545
  - # 5
    frequency:    21.5786535481
  - # 6
    frequency:    21.7727487148
  - # 7
    frequency:    32.0653730212
  - # 8
    frequency:    32.0780962577
  - # 9
    frequency:    43.0587214198
  - # 10
    frequency:    43.0675116592
  - # 11
    frequency:    43.3779089227
  - # 12
    frequency:    43.4889935879

- q-position: [    0.3333333,    0.2222222,    0.3750000 ]
  weight: 8    
  band:
  - # 1
    frequency:    15.2337663416
  - # 2
    frequency:    15.3782153776
  - # 3
    frequency:    17.9436398204
  - # 4
    frequency:    17.9732803960
  - # 5
    frequency:    25.4410907728
  - # 6
    frequency:    25.5793495836
  - # 7
    frequency:    36.0791433812
  - # 8
    frequency:    36.1171516245
  - # 9
    frequency:    39.9844118260
  - # 10
    frequency:    40.0071061572
  - # 11
    frequency:    43.4005871341
  - # 12
    frequency:    43.4211941604

- q-position: [   -0.5555556,    0.2222222,    0.3750000 ]
  weight: 8    
  band:
  - # 1
    frequency:    14.4442455165
  - # 2
    frequency:    14.7446664469
  - # 3
    frequency:    18.5078292803
  - # 4
    frequency:    18.5845892059
  - # 5
    frequency:    25.4158561149
  - # 6
    frequency:    25.4952089521
  - # 7
    frequency:    36.0667714008
  - # 8
    frequency:    36.0923931138
  - # 9
    frequency:    40.0012849420
  - # 10
    frequency:    40.0243708183
  - # 11
    frequency:    43.4268892941
  - # 12
    frequency:    43.4439605923

- q-position: [   -0.4444444,    0.2222222,    0.3750000 ]
  weight: 8    
  band:
  - # 1
    frequency:    12.0853012929
  - # 2
    frequency:    12.5521807281
  - # 3
    frequency:    20.4806786677
  - # 4
    frequency:    20.7335709982
  - # 5
    frequency:    21.5439028291
  - # 6
    frequency:    21.5888402106
  - # 7
    frequency:    31.9762858279
  - # 8
    frequency:    32.0187908649
  - # 9
    frequency:    43.0725302401
  - # 10
    frequency:    43.1467635675
  - # 11
    frequency:    43.4604122719
  - # 12
    frequency:    43.4957289926

- q-position: [   -0.3333333,    0.2222222,    0.3750000 ]
  weight: 8    
  band:
  - # 1
    frequency:     9.5188486469
  - # 2
    frequency:    10.1649450383
  - # 3
    frequency:    15.8109803363
  - # 4
    frequency:    15.8416294962
  - # 5
    frequency:    22.3395828789
  - # 6
    frequency:    22.7876887239
  - # 7
    frequency:    27.2081604319
  - # 8
    frequency:    27.2799260729
  - # 9
    frequency:    43.7255216654
  - # 10
    frequency:    43.7353186368
  - # 11
    frequency:    44.9145962521
  - # 12
    frequency:    45.1392800845

- q-position: [   -0.2222222,    0.2222222,    0.3750000 ]
  weight: 4    
  band:
  - # 1
    frequency:     7.3195527850
  - # 2
    frequency:     8.1298533479
  - # 3
    frequency:    11.3625735620
  - # 4
    frequency:    11.4024822213
  - # 5
    frequency:    21.9421659540
  - # 6
    frequency:    22.0370355024
  - # 7
    frequency:    23.6319789316
  - # 8
    frequency:    24.2107366240
  - # 9
    frequency:    44.2873504525
  - # 10
    frequency:    44.2922585860
  - # 11
    frequency:    45.5527863360
  - # 12
    frequency:    45.8738560021

- q-position: [   -0.6666667,    0.3333333,    0.3750000 ]
  weight: 4    
  band:
  - # 1
    frequency:    16.0958522051
  - # 2
    frequency:    16.2311007003
  - # 3
    frequency:    16.9591056450
  - # 4
    frequency:    17.0441970370
  - # 5
    frequency:    28.9618241386
  - # 6
    frequency:    29.0147421173
  - # 7
    frequency:    37.0603847957
  - # 8
    frequency:    37.0682655776
  - # 9
    frequency:    37.1057203455
  - # 10
    frequency:    37.1748613211
  - # 11
    frequency:    43.7322610441
  - # 12
    frequency:    43.7410800035

- q-position: [   -0.5555556,    0.3333333,    0.3750000 ]
  weight: 8    
  band:
  - # 1
    frequency:    14.4513741709
  - # 2
    frequency:    14.7103298571
  - # 3
    frequency:    18.5370346639
  - # 4
    frequency:    18.5936452596
  - # 5
    frequency:    25.4473295453
  - # 6
    frequency:    25.4630851194
  - # 7
    frequency:    36.0516163872
  - # 8
    frequency:    36.0974319593
  - # 9
    frequency:    40.0057894325
  - # 10
    frequency:    40.0127834358
  - # 11
    frequency:    43.4260669606
  - # 12
    frequency:    43.4377087003

- q-position: [   -0.4444444,    0.3333333,    0.3750000 ]
  weight: 8    
  band:
  - # 1
    frequency:    12.5850495161
  - # 2
    frequency:    12.9741962644
  - # 3
    frequency:    19.6721221698
  - # 4
    frequency:    19.6897168120
  - # 5
    frequency:    20.1632547212
  - # 6
    frequency:    20.3865207890
  - # 7
    frequency:    34.2800279091
  - # 8
    frequency:    34.3426615257
  - # 9
    frequency:    42.5033677522
  - # 10
    frequency:    42.5140626269
  - # 11
    frequency:    43.4171663268
  - # 12
    frequency:    43.5134815043

- q-position: [   -0.3333333,    0.3333333,    0.3750000 ]
  weight: 4    
  band:
  - # 1
    frequency:    10.7028515750
  - # 2
    frequency:    11.2477305572
  - # 3
    frequency:    15.8412208741
  - # 4
    frequency:    15.8671126196
  - # 5
    frequency:    21.5651953548
  - # 6
    frequency:    21.9395235614
  - # 7
    frequency:    30.8918224878
  - # 8
    frequency:    30.9777581481
  - # 9
    frequency:    42.9853888496
  - # 10
    frequency:    42.9900150292
  - # 11
    frequency:    44.6885477492
  - # 12
    frequency:    44.8782887192

- q-position: [   -0.5555556,    0.4444444,    0.3750000 ]
  weight: 4    
  band:
  - # 1
    frequency:    14.5070023352
  - # 2
    frequency:    14.6777321217
  - # 3
    frequency:    18.6589432803
  - # 4
    frequency:    18.7024417405
  - # 5
    frequency:    21.1255319350
  - # 6
    frequency:    21.1262840621
  - # 7
    frequency:    39.4530475037
  - # 8
    frequency:    39.4566557084
  - # 9
    frequency:    39.6488484480
  - # 10
    frequency:    39.6824727673
  - # 11
    frequency:    42.5918061219
  - # 12
    frequency:    42.5941399359

- q-position: [   -0.4444444,    0.4444444,    0.3750000 ]
  weight: 4    
  band:
  - # 1
    frequency:    13.7317316023
  - # 2
    frequency:    13.9728445743
  - # 3
    frequency:    18.4688231981
  - # 4
    frequency:    18.4780815549
  - # 5
    frequency:    19.3478065950
  - # 6
    frequency:    19.4740472945
  - # 7
    frequency:    37.7350509174
  - # 8
    frequency:    37.7787557569
  - # 9
    frequency:    41.9863001472
  - # 10
    frequency:    41.9981539282
  - # 11
    frequency:    42.2840214680
  - # 12
    frequency:    42.3557265730

