mesh: [     9,     9,     4 ]
nqpoint: 50     
natom:   4      
reciprocal_lattice:
- [   0.40532700,   0.23401531,   0.00000000 ] # a*
- [  -0.00000030,   0.46803114,   0.00000000 ] # b*
- [   0.00000000,   0.00000000,   0.14978692 ] # c*
phonon:
- q-position: [    0.0000000,    0.0000000,    0.1250000 ]
  weight: 2    
  band:
  - # 1
    frequency:   -29.6805832649
  - # 2
    frequency:    -5.1880807199
  - # 3
    frequency:    -5.1879557082
  - # 4
    frequency:    -1.2756914892
  - # 5
    frequency:    -1.2755090312
  - # 6
    frequency:     5.4868614627
  - # 7
    frequency:    21.9557006653
  - # 8
    frequency:    29.9897157977
  - # 9
    frequency:    57.9357133054
  - # 10
    frequency:    57.9363654459
  - # 11
    frequency:    59.9291074868
  - # 12
    frequency:    59.9295874187

- q-position: [    0.1111111,    0.0000000,    0.1250000 ]
  weight: 8    
  band:
  - # 1
    frequency:   -27.4800551399
  - # 2
    frequency:    -7.8168151044
  - # 3
    frequency:     5.0306037290
  - # 4
    frequency:     7.8912020596
  - # 5
    frequency:    12.7797977213
  - # 6
    frequency:    13.8893579672
  - # 7
    frequency:    20.7678344569
  - # 8
    frequency:    29.2109353948
  - # 9
    frequency:    57.1115719088
  - # 10
    frequency:    57.6897311781
  - # 11
    frequency:    58.8904619075
  - # 12
    frequency:    59.8492904500

- q-position: [    0.2222222,    0.0000000,    0.1250000 ]
  weight: 8    
  band:
  - # 1
    frequency:   -20.9444949074
  - # 2
    frequency:    -7.5603584752
  - # 3
    frequency:     0.6909208495
  - # 4
    frequency:    11.9384311461
  - # 5
    frequency:    18.5728179054
  - # 6
    frequency:    25.2285809776
  - # 7
    frequency:    25.9991547908
  - # 8
    frequency:    27.1157725332
  - # 9
    frequency:    54.9354520884
  - # 10
    frequency:    55.8192510737
  - # 11
    frequency:    57.4945160579
  - # 12
    frequency:    59.4505203310

- q-position: [    0.3333333,    0.0000000,    0.1250000 ]
  weight: 8    
  band:
  - # 1
    frequency:   -13.3810154994
  - # 2
    frequency:    -7.8448718781
  - # 3
    frequency:     6.1697906499
  - # 4
    frequency:    13.8268715626
  - # 5
    frequency:    18.3882105341
  - # 6
    frequency:    24.3866910715
  - # 7
    frequency:    34.8074624312
  - # 8
    frequency:    35.4796096009
  - # 9
    frequency:    51.8369548627
  - # 10
    frequency:    52.2859734211
  - # 11
    frequency:    57.2330323318
  - # 12
    frequency:    58.7361162647

- q-position: [    0.4444444,    0.0000000,    0.1250000 ]
  weight: 8    
  band:
  - # 1
    frequency:   -16.7226904920
  - # 2
    frequency:     9.7954860483
  - # 3
    frequency:    12.6848459929
  - # 4
    frequency:    14.4426341659
  - # 5
    frequency:    19.1877401847
  - # 6
    frequency:    22.2721994910
  - # 7
    frequency:    40.6768083272
  - # 8
    frequency:    41.5495333472
  - # 9
    frequency:    48.5453950075
  - # 10
    frequency:    49.4703775533
  - # 11
    frequency:    57.1683434409
  - # 12
    frequency:    58.1176191638

- q-position: [    0.1111111,    0.1111111,    0.1250000 ]
  weight: 4    
  band:
  - # 1
    frequency:   -21.9159062721
  - # 2
    frequency:    -4.5701516127
  - # 3
    frequency:    12.2964318705
  - # 4
    frequency:    12.8546673616
  - # 5
    frequency:    16.7888406621
  - # 6
    frequency:    16.9237105288
  - # 7
    frequency:    18.6611148640
  - # 8
    frequency:    27.6818084416
  - # 9
    frequency:    55.9768885691
  - # 10
    frequency:    56.7459449167
  - # 11
    frequency:    58.5059916283
  - # 12
    frequency:    59.9946389108

- q-position: [    0.2222222,    0.1111111,    0.1250000 ]
  weight: 8    
  band:
  - # 1
    frequency:   -12.8345764165
  - # 2
    frequency:   -11.0847084615
  - # 3
    frequency:    13.7416941985
  - # 4
    frequency:    17.6691268419
  - # 5
    frequency:    18.4912941282
  - # 6
    frequency:    24.9095962092
  - # 7
    frequency:    25.1831789574
  - # 8
    frequency:    26.8558375988
  - # 9
    frequency:    53.8272701445
  - # 10
    frequency:    54.3088496788
  - # 11
    frequency:    58.3866077072
  - # 12
    frequency:    59.8323862547

- q-position: [    0.3333333,    0.1111111,    0.1250000 ]
  weight: 8    
  band:
  - # 1
    frequency:   -16.7016127666
  - # 2
    frequency:    11.2038160341
  - # 3
    frequency:    14.7698795449
  - # 4
    frequency:    17.7485775298
  - # 5
    frequency:    19.0446142675
  - # 6
    frequency:    22.7560530582
  - # 7
    frequency:    34.0286408677
  - # 8
    frequency:    34.6599185732
  - # 9
    frequency:    50.7032139792
  - # 10
    frequency:    52.4331948850
  - # 11
    frequency:    57.8153289865
  - # 12
    frequency:    59.3168274646

- q-position: [    0.4444444,    0.1111111,    0.1250000 ]
  weight: 8    
  band:
  - # 1
    frequency:   -16.8731558477
  - # 2
    frequency:    12.9842095994
  - # 3
    frequency:    14.3307808449
  - # 4
    frequency:    16.2811386164
  - # 5
    frequency:    19.6178189505
  - # 6
    frequency:    21.8246171424
  - # 7
    frequency:    40.3563504776
  - # 8
    frequency:    41.1643500485
  - # 9
    frequency:    47.5198514525
  - # 10
    frequency:    49.9075396485
  - # 11
    frequency:    56.8641719798
  - # 12
    frequency:    58.7443248691

- q-position: [   -0.4444444,    0.1111111,    0.1250000 ]
  weight: 8    
  band:
  - # 1
    frequency:   -13.4840554478
  - # 2
    frequency:     4.4765638009
  - # 3
    frequency:    10.6891468841
  - # 4
    frequency:    14.8866016497
  - # 5
    frequency:    19.2761142693
  - # 6
    frequency:    23.0699780769
  - # 7
    frequency:    41.9777689707
  - # 8
    frequency:    42.6650720329
  - # 9
    frequency:    47.6266316549
  - # 10
    frequency:    48.1076513602
  - # 11
    frequency:    56.0569586796
  - # 12
    frequency:    58.4411750015

- q-position: [   -0.3333333,    0.1111111,    0.1250000 ]
  weight: 8    
  band:
  - # 1
    frequency:   -18.1554031535
  - # 2
    frequency:    -5.8049235853
  - # 3
    frequency:     7.4781844532
  - # 4
    frequency:    13.8365545456
  - # 5
    frequency:    19.3834230772
  - # 6
    frequency:    25.5287241441
  - # 7
    frequency:    34.4897579895
  - # 8
    frequency:    35.8328274252
  - # 9
    frequency:    51.6477038831
  - # 10
    frequency:    52.6819271782
  - # 11
    frequency:    55.7398455453
  - # 12
    frequency:    58.5852517996

- q-position: [   -0.2222222,    0.1111111,    0.1250000 ]
  weight: 8    
  band:
  - # 1
    frequency:   -25.5725424969
  - # 2
    frequency:     1.6106332723
  - # 3
    frequency:     7.6530088011
  - # 4
    frequency:    12.3030317017
  - # 5
    frequency:    21.0107673169
  - # 6
    frequency:    23.5313092268
  - # 7
    frequency:    25.9367761239
  - # 8
    frequency:    27.9849634822
  - # 9
    frequency:    54.8521398427
  - # 10
    frequency:    56.1785461261
  - # 11
    frequency:    56.8169825914
  - # 12
    frequency:    58.9179939692

- q-position: [   -0.1111111,    0.1111111,    0.1250000 ]
  weight: 4    
  band:
  - # 1
    frequency:   -28.7024270823
  - # 2
    frequency:     5.2496652902
  - # 3
    frequency:     8.6209234946
  - # 4
    frequency:     8.8833940127
  - # 5
    frequency:     9.8542383018
  - # 6
    frequency:    16.7497054582
  - # 7
    frequency:    22.0522872554
  - # 8
    frequency:    29.3160295483
  - # 9
    frequency:    56.5633458845
  - # 10
    frequency:    57.2207390597
  - # 11
    frequency:    59.1207223478
  - # 12
    frequency:    59.1842504075

- q-position: [    0.2222222,    0.2222222,    0.1250000 ]
  weight: 4    
  band:
  - # 1
    frequency:   -16.7175348527
  - # 2
    frequency:    10.9019818356
  - # 3
    frequency:    18.7325278828
  - # 4
    frequency:    21.3406834916
  - # 5
    frequency:    22.4158573501
  - # 6
    frequency:    23.0621684868
  - # 7
    frequency:    27.7113515461
  - # 8
    frequency:    28.4957682139
  - # 9
    frequency:    51.6101891625
  - # 10
    frequency:    53.2082771002
  - # 11
    frequency:    58.3160054036
  - # 12
    frequency:    60.1130474029

- q-position: [    0.3333333,    0.2222222,    0.1250000 ]
  weight: 8    
  band:
  - # 1
    frequency:   -17.0379111638
  - # 2
    frequency:    13.8552343207
  - # 3
    frequency:    19.6479569243
  - # 4
    frequency:    20.5211781190
  - # 5
    frequency:    21.3560799365
  - # 6
    frequency:    21.8834429391
  - # 7
    frequency:    34.5269690729
  - # 8
    frequency:    35.0297449295
  - # 9
    frequency:    49.2626293048
  - # 10
    frequency:    51.6603927332
  - # 11
    frequency:    57.3814455518
  - # 12
    frequency:    59.8349881254

- q-position: [   -0.5555556,    0.2222222,    0.1250000 ]
  weight: 8    
  band:
  - # 1
    frequency:   -13.4644464728
  - # 2
    frequency:     8.9925164312
  - # 3
    frequency:    18.3585990300
  - # 4
    frequency:    18.8536552252
  - # 5
    frequency:    20.2711806295
  - # 6
    frequency:    21.7579383192
  - # 7
    frequency:    41.0868663792
  - # 8
    frequency:    41.5392604238
  - # 9
    frequency:    46.3136163971
  - # 10
    frequency:    48.8387539074
  - # 11
    frequency:    55.8957820527
  - # 12
    frequency:    59.0502421256

- q-position: [   -0.4444444,    0.2222222,    0.1250000 ]
  weight: 8    
  band:
  - # 1
    frequency:   -14.0340649389
  - # 2
    frequency:    -4.1253437656
  - # 3
    frequency:    16.2927817702
  - # 4
    frequency:    17.7219475603
  - # 5
    frequency:    20.2459055121
  - # 6
    frequency:    23.4207881359
  - # 7
    frequency:    40.3176715483
  - # 8
    frequency:    43.4876874497
  - # 9
    frequency:    47.1514311534
  - # 10
    frequency:    48.2499816279
  - # 11
    frequency:    54.6749143794
  - # 12
    frequency:    58.2045704739

- q-position: [   -0.3333333,    0.2222222,    0.1250000 ]
  weight: 8    
  band:
  - # 1
    frequency:   -22.1675319633
  - # 2
    frequency:     7.4991576720
  - # 3
    frequency:    16.2009801768
  - # 4
    frequency:    17.9482864053
  - # 5
    frequency:    21.2304337240
  - # 6
    frequency:    25.6215793665
  - # 7
    frequency:    32.2750806387
  - # 8
    frequency:    36.2463612802
  - # 9
    frequency:    51.1783224758
  - # 10
    frequency:    53.4331241268
  - # 11
    frequency:    54.4083596731
  - # 12
    frequency:    57.6227350571

- q-position: [   -0.2222222,    0.2222222,    0.1250000 ]
  weight: 4    
  band:
  - # 1
    frequency:   -25.9738450687
  - # 2
    frequency:     7.5609173875
  - # 3
    frequency:    16.4469648212
  - # 4
    frequency:    17.9030918021
  - # 5
    frequency:    21.4519006499
  - # 6
    frequency:    22.9740570240
  - # 7
    frequency:    27.3575310062
  - # 8
    frequency:    29.2401775304
  - # 9
    frequency:    53.4115196128
  - # 10
    frequency:    55.3044579386
  - # 11
    frequency:    57.0101332434
  - # 12
    frequency:    57.3328882344

- q-position: [    0.3333333,    0.3333333,    0.1250000 ]
  weight: 4    
  band:
  - # 1
    frequency:   -13.4571117223
  - # 2
    frequency:    10.2448835685
  - # 3
    frequency:    20.6713366517
  - # 4
    frequency:    20.6991744912
  - # 5
    frequency:    21.5393042898
  - # 6
    frequency:    22.7842624124
  - # 7
    frequency:    37.5551199392
  - # 8
    frequency:    38.4115469006
  - # 9
    frequency:    47.6899929582
  - # 10
    frequency:    50.1693181731
  - # 11
    frequency:    56.0706602469
  - # 12
    frequency:    59.4885450973

- q-position: [   -0.5555556,    0.3333333,    0.1250000 ]
  weight: 8    
  band:
  - # 1
    frequency:    -9.9483603503
  - # 2
    frequency:    -3.2724062199
  - # 3
    frequency:    20.0061009070
  - # 4
    frequency:    20.8406301505
  - # 5
    frequency:    21.2229292992
  - # 6
    frequency:    21.8409102824
  - # 7
    frequency:    41.7493495160
  - # 8
    frequency:    43.0499344725
  - # 9
    frequency:    46.3179486612
  - # 10
    frequency:    47.9339948319
  - # 11
    frequency:    54.1737334234
  - # 12
    frequency:    58.3530156097

- q-position: [   -0.4444444,    0.3333333,    0.1250000 ]
  weight: 8    
  band:
  - # 1
    frequency:   -18.3762610954
  - # 2
    frequency:    10.0742739336
  - # 3
    frequency:    19.6166519649
  - # 4
    frequency:    20.4884668514
  - # 5
    frequency:    21.1903946949
  - # 6
    frequency:    23.1684503777
  - # 7
    frequency:    39.3229880892
  - # 8
    frequency:    43.2024859862
  - # 9
    frequency:    48.3460828095
  - # 10
    frequency:    49.7386280157
  - # 11
    frequency:    52.6708080477
  - # 12
    frequency:    56.9943184039

- q-position: [   -0.3333333,    0.3333333,    0.1250000 ]
  weight: 4    
  band:
  - # 1
    frequency:   -22.2470945195
  - # 2
    frequency:    10.3745672417
  - # 3
    frequency:    19.6200099214
  - # 4
    frequency:    21.3924680568
  - # 5
    frequency:    21.5612855648
  - # 6
    frequency:    24.7024237161
  - # 7
    frequency:    33.7135782653
  - # 8
    frequency:    38.6500122257
  - # 9
    frequency:    50.7795174153
  - # 10
    frequency:    52.6739676151
  - # 11
    frequency:    53.5585406222
  - # 12
    frequency:    56.1779358206

- q-position: [   -0.5555556,    0.4444444,    0.1250000 ]
  weight: 4    
  band:
  - # 1
    frequency:   -16.5053845040
  - # 2
    frequency:    11.3490203285
  - # 3
    frequency:    20.0490053966
  - # 4
    frequency:    20.4355451115
  - # 5
    frequency:    21.2508674236
  - # 6
    frequency:    21.9448191473
  - # 7
    frequency:    44.4231890042
  - # 8
    frequency:    45.2766741597
  - # 9
    frequency:    46.5288955016
  - # 10
    frequency:    47.3832026615
  - # 11
    frequency:    51.7956488962
  - # 12
    frequency:    56.9795285525

- q-position: [   -0.4444444,    0.4444444,    0.1250000 ]
  weight: 4    
  band:
  - # 1
    frequency:   -19.1964009613
  - # 2
    frequency:    12.9034816326
  - # 3
    frequency:    19.6479630658
  - # 4
    frequency:    20.7428957130
  - # 5
    frequency:    21.0206122294
  - # 6
    frequency:    22.6145293070
  - # 7
    frequency:    42.1371581444
  - # 8
    frequency:    45.1057464304
  - # 9
    frequency:    48.9301205920
  - # 10
    frequency:    49.6015549286
  - # 11
    frequency:    49.9782320964
  - # 12
    frequency:    56.1337941239

- q-position: [    0.0000000,    0.0000000,    0.3750000 ]
  weight: 2    
  band:
  - # 1
    frequency:   -11.0265111793
  - # 2
    frequency:    -4.6692325132
  - # 3
    frequency:    -4.6691502003
  - # 4
    frequency:    -3.4148968086
  - # 5
    frequency:    -3.4146569264
  - # 6
    frequency:    15.4825142720
  - # 7
    frequency:    21.2383306539
  - # 8
    frequency:    24.6547461929
  - # 9
    frequency:    59.0548554123
  - # 10
    frequency:    59.0553966828
  - # 11
    frequency:    59.8759556912
  - # 12
    frequency:    59.8764259731

- q-position: [    0.1111111,    0.0000000,    0.3750000 ]
  weight: 8    
  band:
  - # 1
    frequency:   -10.7110558076
  - # 2
    frequency:    -4.8987515986
  - # 3
    frequency:     5.6009312657
  - # 4
    frequency:    12.7919864256
  - # 5
    frequency:    13.2861748593
  - # 6
    frequency:    15.4015924964
  - # 7
    frequency:    20.5559825104
  - # 8
    frequency:    24.1626684416
  - # 9
    frequency:    58.1268787437
  - # 10
    frequency:    58.7668875895
  - # 11
    frequency:    58.9355243954
  - # 12
    frequency:    59.7335952015

- q-position: [    0.2222222,    0.0000000,    0.3750000 ]
  weight: 8    
  band:
  - # 1
    frequency:    -8.5687783972
  - # 2
    frequency:    -4.1636714687
  - # 3
    frequency:    10.4043605495
  - # 4
    frequency:    14.0115264417
  - # 5
    frequency:    18.9477824980
  - # 6
    frequency:    22.7909832065
  - # 7
    frequency:    25.5899158308
  - # 8
    frequency:    26.0161253518
  - # 9
    frequency:    55.6606106683
  - # 10
    frequency:    56.0562242047
  - # 11
    frequency:    58.4218671936
  - # 12
    frequency:    59.2667732273

- q-position: [    0.3333333,    0.0000000,    0.3750000 ]
  weight: 8    
  band:
  - # 1
    frequency:    -5.9964445712
  - # 2
    frequency:     2.3658132750
  - # 3
    frequency:    11.7318058636
  - # 4
    frequency:    13.1407282254
  - # 5
    frequency:    18.6088762669
  - # 6
    frequency:    21.1220287515
  - # 7
    frequency:    35.2100541702
  - # 8
    frequency:    35.5006063777
  - # 9
    frequency:    52.3758438347
  - # 10
    frequency:    52.5593237297
  - # 11
    frequency:    57.9201826550
  - # 12
    frequency:    58.5650159120

- q-position: [    0.4444444,    0.0000000,    0.3750000 ]
  weight: 8    
  band:
  - # 1
    frequency:    -8.9404812825
  - # 2
    frequency:     8.8785610707
  - # 3
    frequency:    11.2647335118
  - # 4
    frequency:    13.6894389491
  - # 5
    frequency:    18.7105939655
  - # 6
    frequency:    19.9897764056
  - # 7
    frequency:    41.0535392548
  - # 8
    frequency:    41.3988474273
  - # 9
    frequency:    49.3162431779
  - # 10
    frequency:    49.7011863632
  - # 11
    frequency:    57.5673633952
  - # 12
    frequency:    57.9856123599

- q-position: [    0.1111111,    0.1111111,    0.3750000 ]
  weight: 4    
  band:
  - # 1
    frequency:    -7.1993690756
  - # 2
    frequency:     9.5810465737
  - # 3
    frequency:    13.6635517190
  - # 4
    frequency:    14.9963901761
  - # 5
    frequency:    15.6877922648
  - # 6
    frequency:    16.9846640376
  - # 7
    frequency:    20.0250329857
  - # 8
    frequency:    23.2283293073
  - # 9
    frequency:    56.7684526798
  - # 10
    frequency:    57.1245691802
  - # 11
    frequency:    59.2746494215
  - # 12
    frequency:    59.9282644256

- q-position: [    0.2222222,    0.1111111,    0.3750000 ]
  weight: 8    
  band:
  - # 1
    frequency:    -2.6258220316
  - # 2
    frequency:     3.3777833852
  - # 3
    frequency:    16.0401308682
  - # 4
    frequency:    17.0386982030
  - # 5
    frequency:    18.8803350825
  - # 6
    frequency:    21.6507868517
  - # 7
    frequency:    25.8885505461
  - # 8
    frequency:    26.7032275424
  - # 9
    frequency:    54.4321054514
  - # 10
    frequency:    54.6233804250
  - # 11
    frequency:    59.1348690497
  - # 12
    frequency:    59.7462143790

- q-position: [    0.3333333,    0.1111111,    0.3750000 ]
  weight: 8    
  band:
  - # 1
    frequency:    -9.3416321741
  - # 2
    frequency:     7.8732647935
  - # 3
    frequency:    15.8847646455
  - # 4
    frequency:    16.7010236182
  - # 5
    frequency:    19.1618964048
  - # 6
    frequency:    20.4308847774
  - # 7
    frequency:    34.4144311619
  - # 8
    frequency:    34.6818855523
  - # 9
    frequency:    51.6087459989
  - # 10
    frequency:    52.3269705674
  - # 11
    frequency:    58.4992201938
  - # 12
    frequency:    59.1406578898

- q-position: [    0.4444444,    0.1111111,    0.3750000 ]
  weight: 8    
  band:
  - # 1
    frequency:    -9.4900707970
  - # 2
    frequency:     9.0346562058
  - # 3
    frequency:    14.2205489371
  - # 4
    frequency:    15.5282687120
  - # 5
    frequency:    19.0067611754
  - # 6
    frequency:    19.8835714559
  - # 7
    frequency:    40.6616713342
  - # 8
    frequency:    41.0041679593
  - # 9
    frequency:    48.6648852574
  - # 10
    frequency:    49.6613174210
  - # 11
    frequency:    57.5938041616
  - # 12
    frequency:    58.3979218424

- q-position: [   -0.4444444,    0.1111111,    0.3750000 ]
  weight: 8    
  band:
  - # 1
    frequency:    -6.1022657690
  - # 2
    frequency:     6.9332963875
  - # 3
    frequency:    12.1777170981
  - # 4
    frequency:    14.1345235848
  - # 5
    frequency:    18.8715781642
  - # 6
    frequency:    20.4497209916
  - # 7
    frequency:    42.5011368294
  - # 8
    frequency:    42.7363126784
  - # 9
    frequency:    47.9505517764
  - # 10
    frequency:    48.1845510115
  - # 11
    frequency:    56.9949319525
  - # 12
    frequency:    57.9975251473

- q-position: [   -0.3333333,    0.1111111,    0.3750000 ]
  weight: 8    
  band:
  - # 1
    frequency:    -7.2758011524
  - # 2
    frequency:     1.4501570278
  - # 3
    frequency:    12.7279718065
  - # 4
    frequency:    13.8183730183
  - # 5
    frequency:    19.1285475376
  - # 6
    frequency:    21.9190813312
  - # 7
    frequency:    35.1212032167
  - # 8
    frequency:    35.6676495950
  - # 9
    frequency:    52.1898957152
  - # 10
    frequency:    52.6211314725
  - # 11
    frequency:    56.9719033238
  - # 12
    frequency:    58.1467506401

- q-position: [   -0.2222222,    0.1111111,    0.3750000 ]
  weight: 8    
  band:
  - # 1
    frequency:   -10.7122973569
  - # 2
    frequency:     4.9578088671
  - # 3
    frequency:    11.3002889875
  - # 4
    frequency:    15.3912436375
  - # 5
    frequency:    20.0232701608
  - # 6
    frequency:    22.9114729316
  - # 7
    frequency:    24.5976919617
  - # 8
    frequency:    25.5628096584
  - # 9
    frequency:    55.8295951582
  - # 10
    frequency:    56.6084226236
  - # 11
    frequency:    57.4887424050
  - # 12
    frequency:    58.5855761104

- q-position: [   -0.1111111,    0.1111111,    0.3750000 ]
  weight: 4    
  band:
  - # 1
    frequency:   -11.4707882228
  - # 2
    frequency:     8.9420533534
  - # 3
    frequency:     9.4569390922
  - # 4
    frequency:    10.2323433905
  - # 5
    frequency:    13.7389834939
  - # 6
    frequency:    16.9275040023
  - # 7
    frequency:    20.9496461753
  - # 8
    frequency:    24.3648951690
  - # 9
    frequency:    57.8084523623
  - # 10
    frequency:    58.3017648975
  - # 11
    frequency:    58.8592779896
  - # 12
    frequency:    59.1143227067

- q-position: [    0.2222222,    0.2222222,    0.3750000 ]
  weight: 4    
  band:
  - # 1
    frequency:    -9.4992988554
  - # 2
    frequency:     7.9759468513
  - # 3
    frequency:    17.8948478478
  - # 4
    frequency:    19.5147223440
  - # 5
    frequency:    22.2451513526
  - # 6
    frequency:    23.2966024569
  - # 7
    frequency:    28.2588253095
  - # 8
    frequency:    28.5256994715
  - # 9
    frequency:    52.4501154840
  - # 10
    frequency:    53.0924754464
  - # 11
    frequency:    59.1566332551
  - # 12
    frequency:    59.9086159848

- q-position: [    0.3333333,    0.2222222,    0.3750000 ]
  weight: 8    
  band:
  - # 1
    frequency:   -10.2962759983
  - # 2
    frequency:     8.7182240577
  - # 3
    frequency:    17.9740410491
  - # 4
    frequency:    18.7584051849
  - # 5
    frequency:    21.2772493021
  - # 6
    frequency:    21.9891715349
  - # 7
    frequency:    34.8856682754
  - # 8
    frequency:    35.0561821815
  - # 9
    frequency:    50.2769248977
  - # 10
    frequency:    51.2554363806
  - # 11
    frequency:    58.3800592297
  - # 12
    frequency:    59.4035996183

- q-position: [   -0.5555556,    0.2222222,    0.3750000 ]
  weight: 8    
  band:
  - # 1
    frequency:    -6.9687786924
  - # 2
    frequency:     7.4161168625
  - # 3
    frequency:    17.1012899174
  - # 4
    frequency:    17.9217056944
  - # 5
    frequency:    19.8874361354
  - # 6
    frequency:    20.2986414525
  - # 7
    frequency:    41.3975805413
  - # 8
    frequency:    41.5993038833
  - # 9
    frequency:    47.3159399534
  - # 10
    frequency:    48.3671227284
  - # 11
    frequency:    57.0845646293
  - # 12
    frequency:    58.3981457049

- q-position: [   -0.4444444,    0.2222222,    0.3750000 ]
  weight: 8    
  band:
  - # 1
    frequency:    -5.7339958728
  - # 2
    frequency:     6.5819195034
  - # 3
    frequency:    16.2079481013
  - # 4
    frequency:    16.8790838267
  - # 5
    frequency:    19.7635476495
  - # 6
    frequency:    20.8737307492
  - # 7
    frequency:    41.6006601680
  - # 8
    frequency:    42.9111675582
  - # 9
    frequency:    47.6318102360
  - # 10
    frequency:    48.1081396368
  - # 11
    frequency:    56.0250775470
  - # 12
    frequency:    57.4836144012

- q-position: [   -0.3333333,    0.2222222,    0.3750000 ]
  weight: 8    
  band:
  - # 1
    frequency:   -10.1079722644
  - # 2
    frequency:    10.0247099928
  - # 3
    frequency:    16.6059008432
  - # 4
    frequency:    17.7799806689
  - # 5
    frequency:    19.9302501910
  - # 6
    frequency:    22.0335162923
  - # 7
    frequency:    33.8114923434
  - # 8
    frequency:    35.4112867662
  - # 9
    frequency:    52.2575816977
  - # 10
    frequency:    53.1929315815
  - # 11
    frequency:    55.6473311016
  - # 12
    frequency:    56.9800811421

- q-position: [   -0.2222222,    0.2222222,    0.3750000 ]
  weight: 4    
  band:
  - # 1
    frequency:   -11.4212103823
  - # 2
    frequency:    12.6996728723
  - # 3
    frequency:    16.8765902232
  - # 4
    frequency:    17.4682451625
  - # 5
    frequency:    19.4079446096
  - # 6
    frequency:    22.2461075864
  - # 7
    frequency:    26.0351677509
  - # 8
    frequency:    28.0577006595
  - # 9
    frequency:    54.9773034351
  - # 10
    frequency:    56.2475178964
  - # 11
    frequency:    56.5891541391
  - # 12
    frequency:    56.9561306682

- q-position: [    0.3333333,    0.3333333,    0.3750000 ]
  weight: 4    
  band:
  - # 1
    frequency:    -7.5642436432
  - # 2
    frequency:     7.3897020770
  - # 3
    frequency:    18.5978585662
  - # 4
    frequency:    18.6474028568
  - # 5
    frequency:    21.6520286906
  - # 6
    frequency:    22.3185257047
  - # 7
    frequency:    38.0779254585
  - # 8
    frequency:    38.3908121981
  - # 9
    frequency:    48.6951187313
  - # 10
    frequency:    49.6965741994
  - # 11
    frequency:    57.3545615668
  - # 12
    frequency:    58.7724326190

- q-position: [   -0.5555556,    0.3333333,    0.3750000 ]
  weight: 8    
  band:
  - # 1
    frequency:    -3.3074348487
  - # 2
    frequency:     4.6100299084
  - # 3
    frequency:    18.1330932667
  - # 4
    frequency:    19.1909275021
  - # 5
    frequency:    20.6638341619
  - # 6
    frequency:    21.0293690841
  - # 7
    frequency:    42.5207172740
  - # 8
    frequency:    43.0536087332
  - # 9
    frequency:    47.0379061831
  - # 10
    frequency:    47.6827559700
  - # 11
    frequency:    55.6685256515
  - # 12
    frequency:    57.4074137916

- q-position: [   -0.4444444,    0.3333333,    0.3750000 ]
  weight: 8    
  band:
  - # 1
    frequency:    -9.2719591894
  - # 2
    frequency:     8.8579023263
  - # 3
    frequency:    17.9636537739
  - # 4
    frequency:    19.7527041626
  - # 5
    frequency:    20.3237921138
  - # 6
    frequency:    20.9611906558
  - # 7
    frequency:    40.8551357289
  - # 8
    frequency:    42.4127533658
  - # 9
    frequency:    49.3036360734
  - # 10
    frequency:    49.8294931123
  - # 11
    frequency:    54.1247265327
  - # 12
    frequency:    55.9471498348

- q-position: [   -0.3333333,    0.3333333,    0.3750000 ]
  weight: 4    
  band:
  - # 1
    frequency:   -11.0187350931
  - # 2
    frequency:    11.0321616423
  - # 3
    frequency:    18.7147645835
  - # 4
    frequency:    19.9589862093
  - # 5
    frequency:    20.6816515632
  - # 6
    frequency:    21.3368616751
  - # 7
    frequency:    35.7529007331
  - # 8
    frequency:    37.6788846070
  - # 9
    frequency:    52.7554343410
  - # 10
    frequency:    53.3303583696
  - # 11
    frequency:    53.6935102598
  - # 12
    frequency:    54.9788831858

- q-position: [   -0.5555556,    0.4444444,    0.3750000 ]
  weight: 4    
  band:
  - # 1
    frequency:    -8.6762622532
  - # 2
    frequency:     7.7261960604
  - # 3
    frequency:    18.3512668444
  - # 4
    frequency:    19.7499846963
  - # 5
    frequency:    19.9470951506
  - # 6
    frequency:    20.4209860275
  - # 7
    frequency:    45.2032121429
  - # 8
    frequency:    45.6103498442
  - # 9
    frequency:    47.0895005457
  - # 10
    frequency:    47.3686196925
  - # 11
    frequency:    53.5678122791
  - # 12
    frequency:    55.7465235373

- q-position: [   -0.4444444,    0.4444444,    0.3750000 ]
  weight: 4    
  band:
  - # 1
    frequency:   -10.4547546142
  - # 2
    frequency:     8.9897898416
  - # 3
    frequency:    18.3953147577
  - # 4
    frequency:    19.5953080490
  - # 5
    frequency:    20.1874512414
  - # 6
    frequency:    20.2544552576
  - # 7
    frequency:    43.4139801829
  - # 8
    frequency:    44.6091982780
  - # 9
    frequency:    49.5340756028
  - # 10
    frequency:    49.7972453120
  - # 11
    frequency:    52.1997649465
  - # 12
    frequency:    54.7376257264

