       N       E                     dE             d eps       ncg     rms          rms(c)
DAV:   1     0.540911032684E+02    0.54091E+02   -0.90701E+03 10928   0.139E+03
DAV:   2    -0.351460578624E+02   -0.89237E+02   -0.82414E+02 15436   0.242E+02
DAV:   3    -0.390756840002E+02   -0.39296E+01   -0.38958E+01 13932   0.510E+01
DAV:   4    -0.391241964423E+02   -0.48512E-01   -0.48447E-01 13384   0.652E+00
DAV:   5    -0.391252814303E+02   -0.10850E-02   -0.10836E-02 13564   0.927E-01    0.780E+00
DAV:   6    -0.373436514889E+02    0.17816E+01   -0.17672E+00 12580   0.934E+00    0.409E+00
DAV:   7    -0.367845691619E+02    0.55908E+00   -0.17998E+00 13056   0.954E+00    0.675E-01
DAV:   8    -0.367918060508E+02   -0.72369E-02   -0.46062E-02 12648   0.147E+00    0.846E-02
DAV:   9    -0.367919899902E+02   -0.18394E-03   -0.10364E-03 13772   0.277E-01    0.376E-02
DAV:  10    -0.367920934995E+02   -0.10351E-03   -0.10932E-04 13424   0.945E-02    0.540E-03
DAV:  11    -0.367920950483E+02   -0.15488E-05   -0.34950E-06 13716   0.160E-02    0.164E-03
DAV:  12    -0.367920950407E+02    0.76448E-08   -0.65616E-07  9464   0.707E-03
   1 F= -.37449309E+02 E0= -.37449309E+02  d E =-.374493E+02
