# Thermal properties / unit cell (natom)

unit:
  temperature:   K
  free_energy:   kJ/mol
  entropy:       J/K/mol
  heat_capacity: J/K/mol

natom:     4
num_modes: 3888
num_integrated_modes: 3876

zero_point_energy:      66.4568539
high_T_entropy:        229.1360553

thermal_properties:
- temperature:         0.0000000
  free_energy:        66.4568539
  entropy:             0.0000000
  heat_capacity:       0.0000000
  energy:             66.4568539

- temperature:        10.0000000
  free_energy:        66.4564917
  entropy:             0.0739413
  heat_capacity:       0.0603342
  energy:             66.4572312

- temperature:        20.0000000
  free_energy:        66.4554662
  entropy:             0.1304417
  heat_capacity:       0.1110614
  energy:             66.4580750

- temperature:        30.0000000
  free_energy:        66.4538706
  entropy:             0.1909164
  heat_capacity:       0.2072570
  energy:             66.4595981

- temperature:        40.0000000
  free_energy:        66.4515664
  entropy:             0.2756774
  heat_capacity:       0.4135960
  energy:             66.4625935

- temperature:        50.0000000
  free_energy:        66.4482171
  entropy:             0.4021360
  heat_capacity:       0.7553579
  energy:             66.4683239

- temperature:        60.0000000
  free_energy:        66.4433516
  entropy:             0.5800686
  heat_capacity:       1.2337391
  energy:             66.4781557

- temperature:        70.0000000
  free_energy:        66.4364265
  entropy:             0.8147139
  heat_capacity:       1.8494956
  energy:             66.4934565

- temperature:        80.0000000
  free_energy:        66.4268571
  entropy:             1.1094029
  heat_capacity:       2.6042263
  energy:             66.5156093

- temperature:        90.0000000
  free_energy:        66.4140309
  entropy:             1.4663147
  heat_capacity:       3.4962573
  energy:             66.5459993

- temperature:       100.0000000
  free_energy:        66.3973197
  entropy:             1.8865111
  heat_capacity:       4.5190490
  energy:             66.5859708

- temperature:       110.0000000
  free_energy:        66.3760899
  entropy:             2.3699105
  heat_capacity:       5.6616848
  energy:             66.6367801

- temperature:       120.0000000
  free_energy:        66.3497146
  entropy:             2.9153562
  heat_capacity:       6.9101025
  energy:             66.6995573

- temperature:       130.0000000
  free_energy:        66.3175828
  entropy:             3.5207621
  heat_capacity:       8.2484412
  energy:             66.7752819

- temperature:       140.0000000
  free_energy:        66.2791088
  entropy:             4.1833018
  heat_capacity:       9.6602777
  energy:             66.8647711

- temperature:       150.0000000
  free_energy:        66.2337375
  entropy:             4.8996106
  heat_capacity:      11.1296530
  energy:             66.9686791

- temperature:       160.0000000
  free_energy:        66.1809497
  entropy:             5.6659807
  heat_capacity:      12.6418340
  energy:             67.0875066

- temperature:       170.0000000
  free_energy:        66.1202640
  entropy:             6.4785346
  heat_capacity:      14.1837953
  energy:             67.2216149

- temperature:       180.0000000
  free_energy:        66.0512381
  entropy:             7.3333695
  heat_capacity:      15.7444448
  energy:             67.3712446

- temperature:       190.0000000
  free_energy:        65.9734684
  entropy:             8.2266684
  heat_capacity:      17.3146424
  energy:             67.5365354

- temperature:       200.0000000
  free_energy:        65.8865887
  entropy:             9.1547800
  heat_capacity:      18.8870716
  energy:             67.7175447

- temperature:       210.0000000
  free_energy:        65.7902682
  entropy:            10.1142707
  heat_capacity:      20.4560226
  energy:             67.9142651

- temperature:       220.0000000
  free_energy:        65.6842093
  entropy:            11.1019525
  heat_capacity:      22.0171336
  energy:             68.1266389

- temperature:       230.0000000
  free_energy:        65.5681450
  entropy:            12.1148939
  heat_capacity:      23.5671278
  energy:             68.3545706

- temperature:       240.0000000
  free_energy:        65.4418362
  entropy:            13.1504166
  heat_capacity:      25.1035694
  energy:             68.5979362

- temperature:       250.0000000
  free_energy:        65.3050695
  entropy:            14.2060847
  heat_capacity:      26.6246504
  energy:             68.8565907

- temperature:       260.0000000
  free_energy:        65.1576548
  entropy:            15.2796873
  heat_capacity:      28.1290152
  energy:             69.1303735

- temperature:       270.0000000
  free_energy:        64.9994227
  entropy:            16.3692189
  heat_capacity:      29.6156224
  energy:             69.4191118

- temperature:       280.0000000
  free_energy:        64.8302234
  entropy:            17.4728591
  heat_capacity:      31.0836406
  energy:             69.7226239

- temperature:       290.0000000
  free_energy:        64.6499241
  entropy:            18.5889527
  heat_capacity:      32.5323731
  energy:             70.0407203

- temperature:       300.0000000
  free_energy:        64.4584079
  entropy:            19.7159907
  heat_capacity:      33.9612070
  energy:             70.3732051

- temperature:       310.0000000
  free_energy:        64.2555724
  entropy:            20.8525932
  heat_capacity:      35.3695808
  energy:             70.7198763

- temperature:       320.0000000
  free_energy:        64.0413283
  entropy:            21.9974949
  heat_capacity:      36.7569660
  energy:             71.0805267

- temperature:       330.0000000
  free_energy:        63.8155987
  entropy:            23.1495311
  heat_capacity:      38.1228585
  energy:             71.4549439

- temperature:       340.0000000
  free_energy:        63.5783175
  entropy:            24.3076268
  heat_capacity:      39.4667766
  energy:             71.8429106

- temperature:       350.0000000
  free_energy:        63.3294293
  entropy:            25.4707869
  heat_capacity:      40.7882639
  energy:             72.2442047

- temperature:       360.0000000
  free_energy:        63.0688880
  entropy:            26.6380881
  heat_capacity:      42.0868935
  energy:             72.6585997

- temperature:       370.0000000
  free_energy:        62.7966566
  entropy:            27.8086716
  heat_capacity:      43.3622738
  energy:             73.0858651

- temperature:       380.0000000
  free_energy:        62.5127063
  entropy:            28.9817374
  heat_capacity:      44.6140543
  energy:             73.5257665

- temperature:       390.0000000
  free_energy:        62.2170161
  entropy:            30.1565395
  heat_capacity:      45.8419300
  energy:             73.9780665

- temperature:       400.0000000
  free_energy:        61.9095720
  entropy:            31.3323813
  heat_capacity:      47.0456462
  energy:             74.4425246

- temperature:       410.0000000
  free_energy:        61.5903671
  entropy:            32.5086123
  heat_capacity:      48.2250007
  energy:             74.9188982

- temperature:       420.0000000
  free_energy:        61.2594005
  entropy:            33.6846247
  heat_capacity:      49.3798460
  energy:             75.4069429

- temperature:       430.0000000
  free_energy:        60.9166773
  entropy:            34.8598507
  heat_capacity:      50.5100896
  energy:             75.9064131

- temperature:       440.0000000
  free_energy:        60.5622079
  entropy:            36.0337605
  heat_capacity:      51.6156939
  energy:             76.4170625

- temperature:       450.0000000
  free_energy:        60.1960081
  entropy:            37.2058595
  heat_capacity:      52.6966747
  energy:             76.9386449

- temperature:       460.0000000
  free_energy:        59.8180983
  entropy:            38.3756867
  heat_capacity:      53.7530995
  energy:             77.4709142

- temperature:       470.0000000
  free_energy:        59.4285034
  entropy:            39.5428128
  heat_capacity:      54.7850848
  energy:             78.0136254

- temperature:       480.0000000
  free_energy:        59.0272524
  entropy:            40.7068387
  heat_capacity:      55.7927931
  energy:             78.5665349

- temperature:       490.0000000
  free_energy:        58.6143782
  entropy:            41.8673936
  heat_capacity:      56.7764296
  energy:             79.1294010

- temperature:       500.0000000
  free_energy:        58.1899172
  entropy:            43.0241338
  heat_capacity:      57.7362390
  energy:             79.7019841

- temperature:       510.0000000
  free_energy:        57.7539093
  entropy:            44.1767412
  heat_capacity:      58.6725013
  energy:             80.2840473

- temperature:       520.0000000
  free_energy:        57.3063972
  entropy:            45.3249222
  heat_capacity:      59.5855288
  energy:             80.8753567

- temperature:       530.0000000
  free_energy:        56.8474265
  entropy:            46.4684058
  heat_capacity:      60.4756622
  energy:             81.4756816

- temperature:       540.0000000
  free_energy:        56.3770455
  entropy:            47.6069432
  heat_capacity:      61.3432671
  energy:             82.0847948

- temperature:       550.0000000
  free_energy:        55.8953049
  entropy:            48.7403059
  heat_capacity:      62.1887309
  energy:             82.7024731

- temperature:       560.0000000
  free_energy:        55.4022574
  entropy:            49.8682851
  heat_capacity:      63.0124590
  energy:             83.3284970

- temperature:       570.0000000
  free_energy:        54.8979578
  entropy:            50.9906903
  heat_capacity:      63.8148727
  energy:             83.9626512

- temperature:       580.0000000
  free_energy:        54.3824627
  entropy:            52.1073485
  heat_capacity:      64.5964055
  energy:             84.6047248

- temperature:       590.0000000
  free_energy:        53.8558305
  entropy:            53.2181030
  heat_capacity:      65.3575010
  energy:             85.2545112

- temperature:       600.0000000
  free_energy:        53.3181208
  entropy:            54.3228124
  heat_capacity:      66.0986104
  energy:             85.9118082

- temperature:       610.0000000
  free_energy:        52.7693948
  entropy:            55.4213501
  heat_capacity:      66.8201901
  energy:             86.5764183

- temperature:       620.0000000
  free_energy:        52.2097148
  entropy:            56.5136028
  heat_capacity:      67.5227000
  energy:             87.2481485

- temperature:       630.0000000
  free_energy:        51.6391440
  entropy:            57.5994703
  heat_capacity:      68.2066014
  energy:             87.9268103

- temperature:       640.0000000
  free_energy:        51.0577469
  entropy:            58.6788642
  heat_capacity:      68.8723555
  energy:             88.6122200

- temperature:       650.0000000
  free_energy:        50.4655886
  entropy:            59.7517075
  heat_capacity:      69.5204222
  energy:             89.3041985

- temperature:       660.0000000
  free_energy:        49.8627348
  entropy:            60.8179336
  heat_capacity:      70.1512583
  energy:             90.0025710

- temperature:       670.0000000
  free_energy:        49.2492522
  entropy:            61.8774859
  heat_capacity:      70.7653168
  energy:             90.7071677

- temperature:       680.0000000
  free_energy:        48.6252075
  entropy:            62.9303168
  heat_capacity:      71.3630455
  energy:             91.4178229

- temperature:       690.0000000
  free_energy:        47.9906684
  entropy:            63.9763874
  heat_capacity:      71.9448867
  energy:             92.1343757

- temperature:       700.0000000
  free_energy:        47.3457024
  entropy:            65.0156668
  heat_capacity:      72.5112759
  energy:             92.8566692

- temperature:       710.0000000
  free_energy:        46.6903777
  entropy:            66.0481315
  heat_capacity:      73.0626416
  energy:             93.5845511

- temperature:       720.0000000
  free_energy:        46.0247626
  entropy:            67.0737649
  heat_capacity:      73.5994044
  energy:             94.3178733

- temperature:       730.0000000
  free_energy:        45.3489252
  entropy:            68.0925570
  heat_capacity:      74.1219769
  energy:             95.0564919

- temperature:       740.0000000
  free_energy:        44.6629342
  entropy:            69.1045036
  heat_capacity:      74.6307630
  energy:             95.8002669

- temperature:       750.0000000
  free_energy:        43.9668580
  entropy:            70.1096060
  heat_capacity:      75.1261581
  energy:             96.5490625

- temperature:       760.0000000
  free_energy:        43.2607649
  entropy:            71.1078708
  heat_capacity:      75.6085483
  energy:             97.3027467

- temperature:       770.0000000
  free_energy:        42.5447233
  entropy:            72.0993092
  heat_capacity:      76.0783107
  energy:             98.0611914

- temperature:       780.0000000
  free_energy:        41.8188014
  entropy:            73.0839367
  heat_capacity:      76.5358130
  energy:             98.8242721

- temperature:       790.0000000
  free_energy:        41.0830672
  entropy:            74.0617731
  heat_capacity:      76.9814136
  energy:             99.5918680

- temperature:       800.0000000
  free_energy:        40.3375885
  entropy:            75.0328416
  heat_capacity:      77.4154617
  energy:            100.3638618

- temperature:       810.0000000
  free_energy:        39.5824329
  entropy:            75.9971691
  heat_capacity:      77.8382971
  energy:            101.1401398

- temperature:       820.0000000
  free_energy:        38.8176675
  entropy:            76.9547853
  heat_capacity:      78.2502501
  energy:            101.9205915

- temperature:       830.0000000
  free_energy:        38.0433594
  entropy:            77.9057231
  heat_capacity:      78.6516420
  energy:            102.7051096

- temperature:       840.0000000
  free_energy:        37.2595752
  entropy:            78.8500178
  heat_capacity:      79.0427851
  energy:            103.4935902

- temperature:       850.0000000
  free_energy:        36.4663811
  entropy:            79.7877072
  heat_capacity:      79.4239825
  energy:            104.2859322

- temperature:       860.0000000
  free_energy:        35.6638429
  entropy:            80.7188311
  heat_capacity:      79.7955284
  energy:            105.0820377

- temperature:       870.0000000
  free_energy:        34.8520262
  entropy:            81.6434314
  heat_capacity:      80.1577086
  energy:            105.8818115

- temperature:       880.0000000
  free_energy:        34.0309959
  entropy:            82.5615518
  heat_capacity:      80.5108002
  energy:            106.6851615

- temperature:       890.0000000
  free_energy:        33.2008166
  entropy:            83.4732377
  heat_capacity:      80.8550718
  energy:            107.4919981

- temperature:       900.0000000
  free_energy:        32.3615525
  entropy:            84.3785355
  heat_capacity:      81.1907841
  energy:            108.3022344

- temperature:       910.0000000
  free_energy:        31.5132670
  entropy:            85.2774935
  heat_capacity:      81.5181896
  energy:            109.1157861

- temperature:       920.0000000
  free_energy:        30.6560236
  entropy:            86.1701607
  heat_capacity:      81.8375330
  energy:            109.9325714

- temperature:       930.0000000
  free_energy:        29.7898846
  entropy:            87.0565872
  heat_capacity:      82.1490517
  energy:            110.7525107

- temperature:       940.0000000
  free_energy:        28.9149124
  entropy:            87.9368241
  heat_capacity:      82.4529752
  energy:            111.5755271

- temperature:       950.0000000
  free_energy:        28.0311686
  entropy:            88.8109232
  heat_capacity:      82.7495262
  energy:            112.4015456

- temperature:       960.0000000
  free_energy:        27.1387143
  entropy:            89.6789370
  heat_capacity:      83.0389203
  energy:            113.2304937

- temperature:       970.0000000
  free_energy:        26.2376100
  entropy:            90.5409185
  heat_capacity:      83.3213660
  energy:            114.0623009

- temperature:       980.0000000
  free_energy:        25.3279158
  entropy:            91.3969212
  heat_capacity:      83.5970657
  energy:            114.8968986

- temperature:       990.0000000
  free_energy:        24.4096913
  entropy:            92.2469990
  heat_capacity:      83.8662149
  energy:            115.7342204

- temperature:      1000.0000000
  free_energy:        23.4829954
  entropy:            93.0912063
  heat_capacity:      84.1290031
  energy:            116.5742017
