    4    4  200    1
  0.9084151E+01  0.2467155E-09  0.2467155E-09  0.6893556E-09  0.5000000E-15
  1.000000000000000E-004
  CAR 
 graphite                                
     16    455     12
 
  0.0000000E+00  0.0000000E+00  0.0000000E+00  0.3858025E-03
    1      -15.160304
    2      -14.917368
    3       -3.946941
    4       -2.236470
    5        1.430133
    6        1.434831
    7        1.444056
    8        1.448742
    9        8.532166
   10       12.757741
   11       12.764588
   12       12.798626
 
  0.5555556E-01 -0.1040834E-16  0.0000000E+00  0.1543210E-02
    1      -15.086802
    2      -14.844986
    3       -3.857826
    4       -2.152463
    5        1.132621
    6        1.152374
    7        1.273108
    8        1.290972
    9        8.621863
   10       12.790336
   11       12.845505
   12       13.081126
 
  0.1111111E+00 -0.2081668E-16  0.0000000E+00  0.1543210E-02
    1      -14.866709
    2      -14.628166
    3       -3.591293
    4       -1.901916
    5        0.307659
    6        0.341000
    7        0.854684
    8        0.879596
    9        8.891560
   10       12.809751
   11       12.901645
   12       13.961762
 
  0.1666667E+00 -0.4163336E-16  0.0000000E+00  0.1543210E-02
    1      -14.501141
    2      -14.268040
    3       -3.150065
    4       -1.488644
    5       -0.875638
    6       -0.825361
    7        0.293387
    8        0.324192
    9        9.341444
   10       12.714135
   11       12.865272
   12       13.621440
 
  0.2222222E+00 -0.1387779E-16  0.0000000E+00  0.1543210E-02
    1      -13.991913
    2      -13.766429
    3       -2.539355
    4       -2.259381
    5       -2.190705
    6       -0.920292
    7       -0.302277
    8       -0.267070
    9        9.969305
   10       12.195273
   11       12.510570
   12       12.719283
 
  0.2777778E+00  0.0000000E+00  0.0000000E+00  0.1543210E-02
    1      -13.342171
    2      -13.126482
    3       -3.728507
    4       -3.641231
    5       -1.768686
    6       -0.856372
    7       -0.818192
    8       -0.211681
    9       10.612247
   10       10.767542
   11       11.230390
   12       12.264345
 
  0.3333333E+00 -0.2775558E-16  0.0000000E+00  0.1543210E-02
    1      -12.557206
    2      -12.353380
    3       -5.206242
    4       -5.100247
    5       -1.321555
    6       -1.281484
    7       -0.856416
    8        0.606774
    9        8.996658
   10        9.766153
   11       11.680847
   12       12.049517
 
  0.3888889E+00 -0.8326673E-16  0.0000000E+00  0.1543210E-02
    1      -11.646613
    2      -11.456728
    3       -6.636524
    4       -6.513611
    5       -1.670051
    6       -1.628314
    7        0.157821
    8        1.462463
    9        7.491137
   10        8.352675
   11       11.816012
   12       12.097670
 
  0.4444444E+00 -0.2775558E-16  0.0000000E+00  0.1543210E-02
    1      -10.638896
    2      -10.469995
    3       -7.959162
    4       -7.826548
    5       -1.884557
    6       -1.842058
    7        1.165367
    8        2.151670
    9        6.342844
   10        7.141708
   11       11.702467
   12       12.017826
 
  0.5000000E+00 -0.5551115E-16  0.0000000E+00  0.7716049E-03
    1       -9.851304
    2       -9.761661
    3       -8.782716
    4       -8.714842
    5       -1.956865
    6       -1.914294
    7        1.742960
    8        2.335662
    9        5.945218
   10        6.551502
   11       11.662292
   12       11.985411
 
  0.5555556E-01  0.5555556E-01  0.0000000E+00  0.7716049E-03
    1      -14.940009
    2      -14.700364
    3       -3.679984
    4       -1.985225
    5        0.602212
    6        0.621889
    7        0.960860
    8        0.976617
    9        8.801730
   10       12.893230
   11       12.963734
   12       13.596014
 
  0.1111111E+00  0.5555556E-01  0.0000000E+00  0.1543210E-02
    1      -14.647150
    2      -14.411887
    3       -3.326016
    4       -1.653119
    5       -0.349314
    6       -0.315227
    7        0.416656
    8        0.440745
    9        9.162272
   10       12.985380
   11       13.099285
   12       14.101205
 
  0.1666667E+00  0.5555556E-01  0.0000000E+00  0.1543210E-02
    1      -14.209706
    2      -13.981014
    3       -2.799802
    4       -1.592563
    5       -1.537778
    6       -1.161795
    7       -0.206884
    8       -0.173596
    9        9.702682
   10       12.823061
   11       12.902517
   12       13.080798
 
  0.2222222E+00  0.5555556E-01  0.0000000E+00  0.1543210E-02
    1      -13.630242
    2      -13.410213
    3       -2.993741
    4       -2.918535
    5       -2.108301
    6       -0.810084
    7       -0.770642
    8       -0.521920
    9       10.419189
   10       11.341223
   11       11.848158
   12       12.698310
 
  0.2777778E+00  0.5555556E-01  0.0000000E+00  0.1543210E-02
    1      -12.912726
    2      -12.703425
    3       -4.452516
    4       -4.357684
    5       -1.335916
    6       -1.292814
    7       -1.264644
    8        0.246028
    9        9.756798
   10       10.422813
   11       11.300247
   12       12.464036
 
  0.3333333E+00  0.5555556E-01  0.0000000E+00  0.1543210E-02
    1      -12.064325
    2      -11.867900
    3       -5.898977
    4       -5.785988
    5       -1.751552
    6       -1.705910
    7       -0.294833
    8        1.096916
    9        8.196437
   10        8.993679
   11       12.159689
   12       12.343950
 
  0.3888889E+00  0.5555556E-01  0.0000000E+00  0.1543210E-02
    1      -11.100056
    2      -10.919820
    3       -7.277547
    4       -7.149004
    5       -2.037434
    6       -1.990380
    7        0.738545
    8        1.911636
    9        6.837090
   10        7.669441
   11       12.074490
   12       12.384548
 
  0.4444444E+00  0.5555556E-01  0.0000000E+00  0.1543210E-02
    1      -10.095180
    2       -9.951777
    3       -8.472330
    4       -8.352237
    5       -2.182981
    6       -2.135107
    7        1.632262
    8        2.373896
    9        6.031562
   10        6.684570
   11       11.995854
   12       12.325488
 
  0.5000000E+00  0.5555556E-01  0.0000000E+00  0.1543210E-02
    1      -10.095354
    2       -9.951937
    3       -8.472155
    4       -8.352047
    5       -2.183016
    6       -2.135143
    7        1.632208
    8        2.373899
    9        6.031567
   10        6.684565
   11       11.995936
   12       12.325578
 
 -0.4444444E+00  0.5555556E-01  0.0000000E+00  0.1543210E-02
    1      -11.100251
    2      -10.920013
    3       -7.277312
    4       -7.148770
    5       -2.037530
    6       -1.990478
    7        0.738455
    8        1.911603
    9        6.837090
   10        7.669402
   11       12.074745
   12       12.384825
 
 -0.3888889E+00  0.5555556E-01  0.0000000E+00  0.1543210E-02
    1      -12.064500
    2      -11.868074
    3       -5.898756
    4       -5.785771
    5       -1.751683
    6       -1.706044
    7       -0.294928
    8        1.096863
    9        8.196392
   10        8.993578
   11       12.160039
   12       12.344311
 
 -0.3333333E+00  0.5555556E-01  0.0000000E+00  0.1543210E-02
    1      -12.912876
    2      -12.703513
    3       -4.452356
    4       -4.357539
    5       -1.336014
    6       -1.292926
    7       -1.264710
    8        0.245969
    9        9.756674
   10       10.422635
   11       11.300122
   12       12.464712
 
 -0.2777778E+00  0.5555556E-01  0.0000000E+00  0.1543210E-02
    1      -13.630365
    2      -13.410336
    3       -2.993759
    4       -2.918579
    5       -2.108380
    6       -0.810027
    7       -0.770609
    8       -0.521975
    9       10.419065
   10       11.340996
   11       11.847902
   12       12.699249
 
 -0.2222222E+00  0.5555556E-01  0.0000000E+00  0.1543210E-02
    1      -14.209803
    2      -13.981109
    3       -2.799866
    4       -1.592988
    5       -1.538262
    6       -1.161842
    7       -0.206388
    8       -0.173159
    9        9.702582
   10       12.822509
   11       12.903541
   12       13.082852
 
 -0.1666667E+00  0.5555556E-01  0.0000000E+00  0.1543210E-02
    1      -14.647218
    2      -14.411956
    3       -3.326064
    4       -1.653155
    5       -0.350656
    6       -0.316677
    7        0.418145
    8        0.442120
    9        9.162199
   10       12.987530
   11       13.101535
   12       14.107742
 
 -0.1111111E+00  0.5555556E-01  0.0000000E+00  0.1543210E-02
    1      -14.940050
    2      -14.700405
    3       -3.680013
    4       -1.985247
    5        0.599154
    6        0.618838
    7        0.963977
    8        0.979728
    9        8.801684
   10       12.896373
   11       12.966911
   12       13.589374
 
 -0.5555556E-01  0.5555556E-01  0.0000000E+00  0.7716049E-03
    1      -15.086815
    2      -14.845000
    3       -3.857836
    4       -2.152471
    5        1.129205
    6        1.148969
    7        1.276552
    8        1.294414
    9        8.621848
   10       12.792840
   11       12.848200
   12       13.088953
 
  0.1111111E+00  0.1111111E+00  0.0000000E+00  0.7716049E-03
    1      -14.282452
    2      -14.052693
    3       -2.886926
    4       -1.248130
    5       -1.242749
    6       -1.217016
    7       -0.286184
    8       -0.264372
    9        9.614514
   10       13.066521
   11       13.380718
   12       13.398312
 
  0.1666667E+00  0.1111111E+00  0.0000000E+00  0.1543210E-02
    1      -13.774765
    2      -13.552625
    3       -2.394223
    4       -2.344234
    5       -2.279202
    6       -1.032189
    7       -0.998591
    8       -0.678415
    9       10.245913
   10       11.797761
   11       12.179585
   12       13.565499
 
  0.2222222E+00  0.1111111E+00  0.0000000E+00  0.1543210E-02
    1      -13.127391
    2      -12.914898
    3       -3.719382
    4       -3.643655
    5       -1.678943
    6       -1.632675
    7       -1.512250
    8        0.025660
    9       10.357940
   10       10.863642
   11       11.051340
   12       13.439623
 
  0.2777778E+00  0.1111111E+00  0.0000000E+00  0.1543210E-02
    1      -12.345822
    2      -12.145113
    3       -5.114533
    4       -5.016357
    5       -2.191660
    6       -2.138083
    7       -0.603795
    8        0.840967
    9        8.851166
   10        9.500234
   11       12.019279
   12       13.237665
 
  0.3333333E+00  0.1111111E+00  0.0000000E+00  0.1543210E-02
    1      -11.440387
    2      -11.253749
    3       -6.496967
    4       -6.379733
    5       -2.563048
    6       -2.505397
    7        0.408253
    8        1.699580
    9        7.414233
   10        8.165660
   11       12.976559
   12       13.161253
 
  0.3888889E+00  0.1111111E+00  0.0000000E+00  0.1543210E-02
    1      -10.440522
    2      -10.274716
    3       -7.790629
    4       -7.662311
    5       -2.788092
    6       -2.728363
    7        1.420249
    8        2.404443
    9        6.296103
   10        6.992789
   11       12.915742
   12       13.270743
 
  0.4444444E+00  0.1111111E+00  0.0000000E+00  0.1543210E-02
    1       -9.662826
    2       -9.574813
    3       -8.599487
    4       -8.534518
    5       -2.863520
    6       -2.803114
    7        2.009520
    8        2.597154
    9        5.920733
   10        6.389090
   11       12.875678
   12       13.242899
 
  0.5000000E+00  0.1111111E+00  0.0000000E+00  0.1543210E-02
    1      -10.440913
    2      -10.275100
    3       -7.790196
    4       -7.661873
    5       -2.788192
    6       -2.728466
    7        1.420097
    8        2.404418
    9        6.296092
   10        6.992737
   11       12.916053
   12       13.271099
 
 -0.4444444E+00  0.1111111E+00  0.0000000E+00  0.1543210E-02
    1      -11.440757
    2      -11.254117
    3       -6.496531
    4       -6.379305
    5       -2.563205
    6       -2.505563
    7        0.408072
    8        1.699495
    9        7.414151
   10        8.165500
   11       12.977052
   12       13.161392
 
 -0.3888889E+00  0.1111111E+00  0.0000000E+00  0.1543210E-02
    1      -12.346147
    2      -12.145436
    3       -5.114214
    4       -5.016059
    5       -2.191764
    6       -2.138209
    7       -0.603976
    8        0.840858
    9        8.850939
   10        9.499934
   11       12.018964
   12       13.238588
 
 -0.3333333E+00  0.1111111E+00  0.0000000E+00  0.1543210E-02
    1      -13.127664
    2      -12.915170
    3       -3.719396
    4       -3.643719
    5       -1.678744
    6       -1.632524
    7       -1.512416
    8        0.025550
    9       10.357509
   10       10.863197
   11       11.051048
   12       13.441268
 
 -0.2777778E+00  0.1111111E+00  0.0000000E+00  0.1543210E-02
    1      -13.774984
    2      -13.552844
    3       -2.395026
    4       -2.345120
    5       -2.279343
    6       -1.031187
    7       -0.997673
    8       -0.678515
    9       10.245676
   10       11.797103
   11       12.179030
   12       13.568442
 
 -0.2222222E+00  0.1111111E+00  0.0000000E+00  0.1543210E-02
    1      -14.282617
    2      -14.052857
    3       -2.887036
    4       -1.250309
    5       -1.242830
    6       -1.219183
    7       -0.283877
    8       -0.262063
    9        9.614335
   10       13.065662
   11       13.375563
   12       13.402489
 
 -0.1666667E+00  0.1111111E+00  0.0000000E+00  0.1543210E-02
    1      -14.647260
    2      -14.411997
    3       -3.326092
    4       -1.653176
    5       -0.352548
    6       -0.318438
    7        0.420041
    8        0.444143
    9        9.162151
   10       12.989633
   11       13.103532
   12       14.083964
 
 -0.1111111E+00  0.1111111E+00  0.0000000E+00  0.7716049E-03
    1      -14.866764
    2      -14.628221
    3       -3.591331
    4       -1.901945
    5        0.304434
    6        0.337786
    7        0.858041
    8        0.882952
    9        8.891497
   10       12.812857
   11       12.904721
   12       13.968306
 
  0.1666667E+00  0.1666667E+00  0.0000000E+00  0.7716049E-03
    1      -13.199156
    2      -12.985608
    3       -3.310555
    4       -3.267661
    5       -1.950179
    6       -1.918967
    7       -1.595165
    8       -0.048452
    9       10.605483
   10       10.966297
   11       11.009859
   12       14.359843
 
  0.2222222E+00  0.1666667E+00  0.0000000E+00  0.1543210E-02
    1      -12.487496
    2      -12.284564
    3       -4.433140
    4       -4.366627
    5       -2.721002
    6       -2.673494
    7       -0.760334
    8        0.709546
    9        9.286940
   10        9.764971
   11       11.856258
   12       14.553102
 
  0.2777778E+00  0.1666667E+00  0.0000000E+00  0.1543210E-02
    1      -11.647794
    2      -11.457652
    3       -5.700894
    4       -5.604823
    5       -3.261447
    6       -3.198126
    7        0.201610
    8        1.556821
    9        7.920094
   10        8.508086
   11       12.903017
   12       14.405679
 
  0.3333333E+00  0.1666667E+00  0.0000000E+00  0.1543210E-02
    1      -10.696599
    2      -10.522758
    3       -6.984679
    4       -6.867646
    5       -3.602003
    6       -3.530883
    7        1.234771
    8        2.389885
    9        6.665071
   10        7.306981
   11       14.046219
   12       14.282401
 
  0.3888889E+00  0.1666667E+00  0.0000000E+00  0.1543210E-02
    1       -9.710499
    2       -9.572727
    3       -8.127540
    4       -8.016149
    5       -3.767987
    6       -3.693834
    7        2.151292
    8        2.892053
    9        5.906561
   10        6.336456
   11       14.149686
   12       14.606071
 
  0.4444444E+00  0.1666667E+00  0.0000000E+00  0.1543210E-02
    1       -9.711008
    2       -9.573195
    3       -8.127049
    4       -8.015617
    5       -3.768027
    6       -3.693877
    7        2.151144
    8        2.892077
    9        5.906516
   10        6.336414
   11       14.149896
   12       14.606355
 
  0.5000000E+00  0.1666667E+00  0.0000000E+00  0.1543210E-02
    1      -10.697175
    2      -10.523328
    3       -6.984075
    4       -6.867052
    5       -3.602076
    6       -3.530970
    7        1.234532
    8        2.389816
    9        6.664920
   10        7.306790
   11       14.046007
   12       14.282476
 
 -0.4444444E+00  0.1666667E+00  0.0000000E+00  0.1543210E-02
    1      -11.648314
    2      -11.458170
    3       -5.700484
    4       -5.604450
    5       -3.261374
    6       -3.198094
    7        0.201352
    8        1.556692
    9        7.919728
   10        8.507710
   11       12.902425
   12       14.406856
 
 -0.3888889E+00  0.1666667E+00  0.0000000E+00  0.1543210E-02
    1      -12.487942
    2      -12.285010
    3       -4.433327
    4       -4.366878
    5       -2.720351
    6       -2.672923
    7       -0.760580
    8        0.709404
    9        9.286269
   10        9.764413
   11       11.855745
   12       14.555637
 
 -0.3333333E+00  0.1666667E+00  0.0000000E+00  0.1543210E-02
    1      -13.199525
    2      -12.985976
    3       -3.311907
    4       -3.268994
    5       -1.948508
    6       -1.917285
    7       -1.595387
    8       -0.048600
    9       10.604478
   10       10.965880
   11       11.009151
   12       14.365346
 
 -0.2777778E+00  0.1666667E+00  0.0000000E+00  0.1543210E-02
    1      -13.775053
    2      -13.552912
    3       -2.396564
    4       -2.346533
    5       -2.279385
    6       -1.029549
    7       -0.995918
    8       -0.678544
    9       10.245593
   10       11.796535
   11       12.178765
   12       13.571969
 
 -0.2222222E+00  0.1666667E+00  0.0000000E+00  0.1543210E-02
    1      -14.209912
    2      -13.981219
    3       -2.799937
    4       -1.595391
    5       -1.540602
    6       -1.161894
    7       -0.203698
    8       -0.170415
    9        9.702452
   10       12.821581
   11       12.906691
   12       13.085558
 
 -0.1666667E+00  0.1666667E+00  0.0000000E+00  0.7716049E-03
    1      -14.501264
    2      -14.268163
    3       -3.150148
    4       -1.488706
    5       -0.878582
    6       -0.828294
    7        0.296642
    8        0.327447
    9        9.341302
   10       12.717697
   11       12.868784
   12       13.620337
 
  0.2222222E+00  0.2222222E+00  0.0000000E+00  0.7716049E-03
    1      -11.717471
    2      -11.526163
    3       -5.227559
    4       -5.172994
    5       -3.684321
    6       -3.643321
    7        0.131398
    8        1.506774
    9        8.138510
   10        8.618802
   11       12.820821
   12       15.667784
 
  0.2777778E+00  0.2222222E+00  0.0000000E+00  0.1543210E-02
    1      -10.828795
    2      -10.651799
    3       -6.240604
    4       -6.158225
    5       -4.352285
    6       -4.291028
    7        1.131556
    8        2.367206
    9        6.953213
   10        7.486180
   11       13.923989
   12       15.723097
 
  0.3333333E+00  0.2222222E+00  0.0000000E+00  0.1543210E-02
    1       -9.853809
    2       -9.697630
    3       -7.363293
    4       -7.255470
    5       -4.702020
    6       -4.623855
    7        2.157163
    8        3.134002
    9        5.925973
   10        6.432855
   11       15.111014
   12       15.595454
 
  0.3888889E+00  0.2222222E+00  0.0000000E+00  0.1543210E-02
    1       -9.098214
    2       -9.015023
    3       -8.113154
    4       -8.065265
    5       -4.808948
    6       -4.726274
    7        2.800491
    8        3.370140
    9        5.678210
   10        5.702104
   11       15.513952
   12       16.177691
 
  0.4444444E+00  0.2222222E+00  0.0000000E+00  0.1543210E-02
    1       -9.854565
    2       -9.698371
    3       -7.362623
    4       -7.254808
    5       -4.701923
    6       -4.623786
    7        2.156927
    8        3.134020
    9        5.925699
   10        6.432673
   11       15.110091
   12       15.595554
 
  0.5000000E+00  0.2222222E+00  0.0000000E+00  0.1543210E-02
    1      -10.829522
    2      -10.652521
    3       -6.240293
    4       -6.157965
    5       -4.351804
    6       -4.290613
    7        1.131262
    8        2.367114
    9        6.952649
   10        7.485775
   11       13.923056
   12       15.724180
 
 -0.4444444E+00  0.2222222E+00  0.0000000E+00  0.1543210E-02
    1      -11.718113
    2      -11.526803
    3       -5.228215
    4       -5.173623
    5       -3.683008
    6       -3.641996
    7        0.131090
    8        1.506620
    9        8.137559
   10        8.618189
   11       12.820037
   12       15.673206
 
 -0.3888889E+00  0.2222222E+00  0.0000000E+00  0.1543210E-02
    1      -12.488037
    2      -12.285235
    3       -4.434721
    4       -4.368130
    5       -2.718857
    6       -2.671300
    7       -0.760623
    8        0.709381
    9        9.285634
   10        9.764142
   11       11.855625
   12       14.559157
 
 -0.3333333E+00  0.2222222E+00  0.0000000E+00  0.1543210E-02
    1      -13.127827
    2      -12.915333
    3       -3.721445
    4       -3.645703
    5       -1.676274
    6       -1.629999
    7       -1.512504
    8        0.025494
    9       10.356405
   10       10.862621
   11       11.050849
   12       13.444920
 
 -0.2777778E+00  0.2222222E+00  0.0000000E+00  0.1543210E-02
    1      -13.630571
    2      -13.410540
    3       -2.996154
    4       -2.920944
    5       -2.108503
    6       -0.807055
    7       -0.767617
    8       -0.522059
    9       10.418825
   10       11.339633
   11       11.847077
   12       12.702891
 
 -0.2222222E+00  0.2222222E+00  0.0000000E+00  0.7716049E-03
    1      -13.992132
    2      -13.766648
    3       -2.539495
    4       -2.262012
    5       -2.193326
    6       -0.920392
    7       -0.299096
    8       -0.263888
    9        9.969056
   10       12.193857
   11       12.514456
   12       12.669326
 
  0.2777778E+00  0.2777778E+00  0.0000000E+00  0.7716049E-03
    1       -9.909502
    2       -9.749817
    3       -6.862888
    4       -6.797248
    5       -5.220249
    6       -5.174435
    7        2.148013
    8        3.219506
    9        5.948114
   10        6.487328
   11       15.037185
   12       15.855294
 
  0.3333333E+00  0.2777778E+00  0.0000000E+00  0.1543210E-02
    1       -8.962465
    2       -8.834812
    3       -7.680433
    4       -7.601478
    5       -5.658777
    6       -5.596309
    7        3.129556
    8        3.884299
    9        5.133971
   10        5.596743
   11       15.649036
   12       15.754769
 
  0.3888889E+00  0.2777778E+00  0.0000000E+00  0.1543210E-02
    1       -8.963261
    2       -8.835549
    3       -7.679933
    4       -7.600943
    5       -5.658487
    6       -5.596052
    7        3.129435
    8        3.884488
    9        5.133580
   10        5.596586
   11       15.649116
   12       15.754774
 
  0.4444444E+00  0.2777778E+00  0.0000000E+00  0.1543210E-02
    1       -9.910419
    2       -9.750722
    3       -6.862984
    4       -6.797310
    5       -5.219191
    6       -5.173357
    7        2.147778
    8        3.219564
    9        5.947314
   10        6.486885
   11       15.035851
   12       15.868049
 
  0.5000000E+00  0.2777778E+00  0.0000000E+00  0.1543210E-02
    1      -10.829641
    2      -10.652641
    3       -6.241505
    4       -6.159065
    5       -4.350451
    6       -4.289148
    7        1.131253
    8        2.367130
    9        6.952012
   10        7.485484
   11       13.922894
   12       15.728647
 
 -0.4444444E+00  0.2777778E+00  0.0000000E+00  0.1543210E-02
    1      -11.648529
    2      -11.458385
    3       -5.702266
    4       -5.606173
    5       -3.259133
    6       -3.195800
    7        0.201288
    8        1.556675
    9        7.918569
   10        8.507108
   11       12.902150
   12       14.411195
 
 -0.3888889E+00  0.2777778E+00  0.0000000E+00  0.1543210E-02
    1      -12.346431
    2      -12.145720
    3       -5.116263
    4       -5.018077
    5       -2.188997
    6       -2.135420
    7       -0.604100
    8        0.840795
    9        8.849431
   10        9.499017
   11       12.018636
   12       13.242686
 
 -0.3333333E+00  0.2777778E+00  0.0000000E+00  0.1543210E-02
    1      -12.913203
    2      -12.703839
    3       -4.454558
    4       -4.359724
    5       -1.332950
    6       -1.289854
    7       -1.264881
    8        0.245865
    9        9.754977
   10       10.421497
   11       11.299783
   12       12.468605
 
 -0.2777778E+00  0.2777778E+00  0.0000000E+00  0.7716049E-03
    1      -13.342513
    2      -13.126823
    3       -3.730820
    4       -3.643535
    5       -1.768883
    6       -0.853233
    7       -0.815054
    8       -0.211812
    9       10.610517
   10       10.767182
   11       11.229187
   12       12.268432
 
  0.3333333E+00  0.3333333E+00  0.0000000E+00  0.7716049E-03
    1       -8.198352
    2       -8.121201
    3       -8.121091
    4       -8.047336
    5       -6.068219
    6       -6.068131
    7        3.896033
    8        4.423620
    9        4.424151
   10        5.044155
   11       15.482735
   12       15.483288
 
  0.3888889E+00  0.3333333E+00  0.0000000E+00  0.1543210E-02
    1       -8.963415
    2       -8.835725
    3       -7.680856
    4       -7.601807
    5       -5.657405
    6       -5.594855
    7        3.129651
    8        3.884556
    9        5.133032
   10        5.596096
   11       15.649452
   12       15.755079
 
  0.4444444E+00  0.3333333E+00  0.0000000E+00  0.1543210E-02
    1       -9.854824
    2       -9.698635
    3       -7.364126
    4       -7.256264
    5       -4.699989
    6       -4.621803
    7        2.157034
    8        3.134113
    9        5.924538
   10        6.431986
   11       15.109757
   12       15.600275
 
  0.5000000E+00  0.3333333E+00  0.0000000E+00  0.1543210E-02
    1      -10.697531
    2      -10.523686
    3       -6.985816
    4       -6.868767
    5       -3.599610
    6       -3.528485
    7        1.234522
    8        2.389861
    9        6.663356
   10        7.305809
   11       14.046064
   12       14.286550
 
 -0.4444444E+00  0.3333333E+00  0.0000000E+00  0.1543210E-02
    1      -11.441185
    2      -11.254545
    3       -6.498401
    4       -6.381157
    5       -2.560357
    6       -2.502707
    7        0.407961
    8        1.699473
    9        7.412344
   10        8.164245
   11       12.979543
   12       13.163720
 
 -0.3888889E+00  0.3333333E+00  0.0000000E+00  0.1543210E-02
    1      -12.064972
    2      -11.868546
    3       -5.900705
    4       -5.787709
    5       -1.748601
    6       -1.702960
    7       -0.295117
    8        1.096776
    9        8.194462
   10        8.992155
   11       12.162345
   12       12.346922
 
 -0.3333333E+00  0.3333333E+00  0.0000000E+00  0.7716049E-03
    1      -12.557694
    2      -12.353868
    3       -5.208246
    4       -5.102243
    5       -1.318437
    6       -1.278367
    7       -0.856655
    8        0.606638
    9        8.994720
   10        9.764701
   11       11.680965
   12       12.053536
 
  0.3888889E+00  0.3888889E+00  0.0000000E+00  0.7716049E-03
    1       -9.098854
    2       -9.015709
    3       -8.114332
    4       -8.066430
    5       -4.806879
    6       -4.724184
    7        2.800874
    8        3.370089
    9        5.676865
   10        5.700996
   11       15.518473
   12       16.180748
 
  0.4444444E+00  0.3888889E+00  0.0000000E+00  0.1543210E-02
    1       -9.711525
    2       -9.573735
    3       -8.128597
    4       -8.017163
    5       -3.765529
    6       -3.691371
    7        2.151390
    8        2.892088
    9        5.904757
   10        6.334974
   11       14.154520
   12       14.610957
 
  0.5000000E+00  0.3888889E+00  0.0000000E+00  0.1543210E-02
    1      -10.441500
    2      -10.275690
    3       -7.791841
    4       -7.663506
    5       -2.785350
    6       -2.725621
    7        1.420134
    8        2.404459
    9        6.294073
   10        6.991105
   11       12.920453
   12       13.275473
 
 -0.4444444E+00  0.3888889E+00  0.0000000E+00  0.1543210E-02
    1      -11.100888
    2      -10.920649
    3       -7.279003
    4       -7.150450
    5       -2.034462
    6       -1.987410
    7        0.738337
    8        1.911591
    9        6.834976
   10        7.667684
   11       12.078951
   12       12.388991
 
 -0.3888889E+00  0.3888889E+00  0.0000000E+00  0.7716049E-03
    1      -11.647308
    2      -11.457396
    3       -6.638242
    4       -6.515319
    5       -1.666941
    6       -1.625222
    7        0.157598
    8        1.462378
    9        7.489037
   10        8.350969
   11       11.820179
   12       12.101671
 
  0.4444444E+00  0.4444444E+00  0.0000000E+00  0.7716049E-03
    1       -9.663646
    2       -9.575682
    3       -8.600824
    4       -8.535859
    5       -2.860721
    6       -2.800315
    7        2.009824
    8        2.597030
    9        5.918795
   10        6.387076
   11       12.880266
   12       13.247515
 
  0.5000000E+00  0.4444444E+00  0.0000000E+00  0.1543210E-02
    1      -10.096144
    2       -9.952740
    3       -8.473625
    4       -8.353509
    5       -2.179976
    6       -2.132104
    7        1.632367
    8        2.373851
    9        6.029429
   10        6.682452
   11       12.000292
   12       12.329939
 
 -0.4444444E+00  0.4444444E+00  0.0000000E+00  0.7716049E-03
    1      -10.639725
    2      -10.470825
    3       -7.960633
    4       -7.828007
    5       -1.881449
    6       -1.838951
    7        1.165309
    8        2.151669
    9        6.340635
   10        7.139717
   11       11.706766
   12       12.022124
 
  0.5000000E+00  0.5000000E+00  0.0000000E+00  0.3858025E-03
    1       -9.852185
    2       -9.762591
    3       -8.784078
    4       -8.716210
    5       -1.953757
    6       -1.911188
    7        1.743234
    8        2.335508
    9        5.943104
   10        6.549183
   11       11.666616
   12       11.989741
 