   4   4   0   0
  0.1110955E+02  0.2466143E-09  0.2466143E-09  0.8425457E-09  0.5000000E-15
  1.000000000000000E-004
  CAR 
 graphite                                
     16.16118908    -18.63872486  301      2.87412428      1.00000000
    -18.639  0.0000E+00  0.0000E+00
    -18.523  0.0000E+00  0.0000E+00
    -18.407  0.0000E+00  0.0000E+00
    -18.291  0.0000E+00  0.0000E+00
    -18.175  0.0000E+00  0.0000E+00
    -18.059  0.0000E+00  0.0000E+00
    -17.943  0.0000E+00  0.0000E+00
    -17.827  0.0000E+00  0.0000E+00
    -17.711  0.0000E+00  0.0000E+00
    -17.595  0.0000E+00  0.0000E+00
    -17.479  0.0000E+00  0.0000E+00
    -17.363  0.0000E+00  0.0000E+00
    -17.247  0.0000E+00  0.0000E+00
    -17.131  0.0000E+00  0.0000E+00
    -17.015  0.0000E+00  0.0000E+00
    -16.899  0.0000E+00  0.0000E+00
    -16.783  0.0000E+00  0.0000E+00
    -16.667  0.0000E+00  0.0000E+00
    -16.551  0.3415E-02  0.1561E-03
    -16.435  0.3192E-02  0.5044E-03
    -16.319  0.2911E-02  0.8705E-03
    -16.203  0.3127E-02  0.1219E-02
    -16.087  0.3057E-02  0.1589E-02
    -15.971  0.3013E-02  0.1941E-02
    -15.855  0.3122E-02  0.2296E-02
    -15.739  0.3202E-02  0.2665E-02
    -15.623  0.3055E-02  0.3024E-02
    -15.507  0.3080E-02  0.3380E-02
    -15.391  0.3135E-02  0.3740E-02
    -15.275  0.3211E-02  0.4108E-02
    -15.159  0.3105E-02  0.4473E-02
    -15.043  0.3096E-02  0.4831E-02
    -14.927  0.3128E-02  0.5192E-02
    -14.811  0.3162E-02  0.5557E-02
    -14.695  0.3213E-02  0.5927E-02
    -14.579  0.3140E-02  0.6296E-02
    -14.463  0.3138E-02  0.6660E-02
    -14.347  0.3148E-02  0.7024E-02
    -14.231  0.3179E-02  0.7391E-02
    -14.115  0.3209E-02  0.7761E-02
    -13.999  0.3242E-02  0.8135E-02
    -13.883  0.3196E-02  0.8508E-02
    -13.767  0.3192E-02  0.8878E-02
    -13.651  0.3205E-02  0.9249E-02
    -13.535  0.3221E-02  0.9622E-02
    -13.419  0.3249E-02  0.9997E-02
    -13.303  0.3278E-02  0.1038E-01
    -13.187  0.3293E-02  0.1076E-01
    -13.071  0.3272E-02  0.1114E-01
    -12.955  0.3281E-02  0.1152E-01
    -12.839  0.3304E-02  0.1190E-01
    -12.723  0.3330E-02  0.1228E-01
    -12.607  0.3356E-02  0.1267E-01
    -12.491  0.3398E-02  0.1306E-01
    -12.375  0.3442E-02  0.1346E-01
    -12.259  0.3462E-02  0.1386E-01
    -12.143  0.3504E-02  0.1426E-01
    -12.027  0.3605E-02  0.1468E-01
    -11.911  0.3741E-02  0.1510E-01
    -11.795  0.3962E-02  0.1555E-01
    -11.679  0.4183E-02  0.1602E-01
    -11.563  0.6193E-02  0.1661E-01
    -11.447  0.4319E-02  0.1722E-01
    -11.331  0.3239E-02  0.1764E-01
    -11.215  0.5483E-02  0.1812E-01
    -11.099  0.2298E-02  0.1848E-01
    -10.983  0.2050E-02  0.1873E-01
    -10.867  0.1803E-02  0.1896E-01
    -10.751  0.1556E-02  0.1915E-01
    -10.635  0.1429E-02  0.1932E-01
    -10.519  0.2452E-02  0.1954E-01
    -10.403  0.8776E-03  0.1970E-01
    -10.287  0.1015E-02  0.1980E-01
    -10.171  0.1532E-02  0.1995E-01
    -10.055  0.4438E-02  0.2028E-01
     -9.939  0.2669E-02  0.2073E-01
     -9.823  0.2798E-02  0.2105E-01
     -9.707  0.2956E-02  0.2138E-01
     -9.591  0.3822E-02  0.2197E-01
     -9.475  0.4468E-02  0.2245E-01
     -9.359  0.5156E-02  0.2301E-01
     -9.243  0.5905E-02  0.2365E-01
     -9.127  0.3897E-02  0.2414E-01
     -9.011  0.3745E-02  0.2458E-01
     -8.895  0.3593E-02  0.2501E-01
     -8.779  0.3447E-02  0.2542E-01
     -8.663  0.3309E-02  0.2581E-01
     -8.547  0.3171E-02  0.2619E-01
     -8.431  0.3028E-02  0.2655E-01
     -8.315  0.2978E-02  0.2689E-01
     -8.199  0.2942E-02  0.2724E-01
     -8.083  0.2907E-02  0.2758E-01
     -7.967  0.2870E-02  0.2791E-01
     -7.851  0.2832E-02  0.2824E-01
     -7.735  0.2586E-02  0.2856E-01
     -7.619  0.2697E-02  0.2886E-01
     -7.503  0.3121E-02  0.2920E-01
     -7.387  0.3544E-02  0.2958E-01
     -7.271  0.3967E-02  0.3002E-01
     -7.155  0.3752E-02  0.3047E-01
     -7.039  0.3696E-02  0.3090E-01
     -6.923  0.3640E-02  0.3133E-01
     -6.807  0.3584E-02  0.3175E-01
     -6.691  0.3659E-02  0.3217E-01
     -6.575  0.3755E-02  0.3260E-01
     -6.459  0.3847E-02  0.3304E-01
     -6.343  0.3933E-02  0.3349E-01
     -6.227  0.3957E-02  0.3395E-01
     -6.111  0.3964E-02  0.3441E-01
     -5.995  0.3938E-02  0.3487E-01
     -5.879  0.4003E-02  0.3532E-01
     -5.763  0.4043E-02  0.3579E-01
     -5.647  0.4082E-02  0.3626E-01
     -5.531  0.4122E-02  0.3673E-01
     -5.415  0.4162E-02  0.3721E-01
     -5.299  0.4268E-02  0.3770E-01
     -5.183  0.4376E-02  0.3820E-01
     -5.067  0.4454E-02  0.3871E-01
     -4.951  0.4637E-02  0.3924E-01
     -4.835  0.5421E-02  0.3983E-01
     -4.719  0.5930E-02  0.4049E-01
     -4.603  0.6324E-02  0.4120E-01
     -4.487  0.6898E-02  0.4196E-01
     -4.371  0.7762E-02  0.4282E-01
     -4.255  0.8343E-02  0.4376E-01
     -4.139  0.8632E-02  0.4474E-01
     -4.023  0.9059E-02  0.4577E-01
     -3.907  0.1125E-01  0.4696E-01
     -3.791  0.9158E-02  0.4816E-01
     -3.675  0.9871E-02  0.4926E-01
     -3.559  0.9935E-02  0.5042E-01
     -3.443  0.7711E-02  0.5146E-01
     -3.327  0.7699E-02  0.5233E-01
     -3.211  0.9448E-02  0.5331E-01
     -3.095  0.1027E-01  0.5450E-01
     -2.979  0.9323E-02  0.5564E-01
     -2.863  0.9286E-02  0.5669E-01
     -2.747  0.3489E-02  0.5731E-01
     -2.631  0.3703E-02  0.5765E-01
     -2.515  0.5913E-02  0.5833E-01
     -2.399  0.9064E-02  0.5910E-01
     -2.283  0.8400E-02  0.6022E-01
     -2.167  0.7271E-02  0.6113E-01
     -2.051  0.6672E-02  0.6193E-01
     -1.935  0.6293E-02  0.6268E-01
     -1.819  0.6206E-02  0.6340E-01
     -1.703  0.6157E-02  0.6412E-01
     -1.587  0.6031E-02  0.6483E-01
     -1.471  0.5909E-02  0.6552E-01
     -1.355  0.5784E-02  0.6620E-01
     -1.239  0.5730E-02  0.6687E-01
     -1.123  0.5896E-02  0.6754E-01
     -1.007  0.5804E-02  0.6822E-01
     -0.891  0.5676E-02  0.6888E-01
     -0.775  0.5540E-02  0.6953E-01
     -0.659  0.5663E-02  0.7018E-01
     -0.543  0.5633E-02  0.7084E-01
     -0.427  0.5927E-02  0.7149E-01
     -0.311  0.5619E-02  0.7215E-01
     -0.195  0.4392E-02  0.7277E-01
     -0.079  0.3684E-02  0.7321E-01
      0.037  0.3861E-02  0.7364E-01
      0.153  0.4112E-02  0.7410E-01
      0.269  0.4510E-02  0.7460E-01
      0.385  0.5883E-02  0.7518E-01
      0.501  0.5906E-02  0.7588E-01
      0.617  0.4340E-02  0.7653E-01
      0.733  0.3542E-02  0.7699E-01
      0.849  0.3318E-02  0.7738E-01
      0.965  0.2982E-02  0.7774E-01
      1.081  0.2508E-02  0.7807E-01
      1.197  0.2340E-02  0.7835E-01
      1.313  0.2081E-02  0.7861E-01
      1.429  0.1800E-02  0.7883E-01
      1.545  0.1546E-02  0.7902E-01
      1.661  0.1433E-02  0.7919E-01
      1.777  0.1409E-02  0.7936E-01
      1.893  0.1266E-02  0.7952E-01
      2.009  0.9879E-03  0.7965E-01
      2.125  0.7192E-03  0.7975E-01
      2.241  0.6003E-03  0.7982E-01
      2.357  0.4813E-03  0.7989E-01
      2.473  0.3623E-03  0.7993E-01
      2.589  0.2434E-03  0.7997E-01
      2.705  0.1244E-03  0.7999E-01
      2.821  0.2788E-04  0.8000E-01
      2.937  0.3473E-04  0.8000E-01
      3.053  0.1385E-03  0.8001E-01
      3.169  0.2653E-03  0.8003E-01
      3.285  0.3921E-03  0.8007E-01
      3.401  0.5189E-03  0.8012E-01
      3.517  0.6458E-03  0.8019E-01
      3.633  0.7727E-03  0.8027E-01
      3.749  0.1248E-02  0.8038E-01
      3.865  0.1619E-02  0.8056E-01
      3.981  0.1516E-02  0.8074E-01
      4.097  0.1708E-02  0.8092E-01
      4.213  0.2177E-02  0.8115E-01
      4.329  0.2646E-02  0.8143E-01
      4.445  0.4254E-02  0.8185E-01
      4.561  0.6822E-02  0.8247E-01
      4.677  0.5808E-02  0.8315E-01
      4.793  0.5321E-02  0.8382E-01
      4.909  0.4294E-02  0.8436E-01
      5.025  0.3841E-02  0.8483E-01
      5.141  0.3546E-02  0.8525E-01
      5.257  0.3350E-02  0.8565E-01
      5.373  0.3177E-02  0.8603E-01
      5.489  0.3016E-02  0.8639E-01
      5.605  0.2858E-02  0.8673E-01
      5.721  0.2726E-02  0.8705E-01
      5.837  0.2664E-02  0.8737E-01
      5.953  0.2603E-02  0.8767E-01
      6.069  0.2649E-02  0.8797E-01
      6.185  0.2838E-02  0.8830E-01
      6.301  0.2939E-02  0.8863E-01
      6.417  0.2988E-02  0.8898E-01
      6.533  0.3017E-02  0.8932E-01
      6.649  0.3053E-02  0.8968E-01
      6.765  0.3048E-02  0.9003E-01
      6.881  0.3060E-02  0.9039E-01
      6.997  0.3097E-02  0.9074E-01
      7.113  0.3142E-02  0.9110E-01
      7.229  0.3183E-02  0.9147E-01
      7.345  0.3210E-02  0.9184E-01
      7.461  0.3236E-02  0.9222E-01
      7.577  0.3269E-02  0.9259E-01
      7.693  0.3310E-02  0.9297E-01
      7.809  0.3375E-02  0.9336E-01
      7.925  0.3468E-02  0.9376E-01
      8.041  0.3520E-02  0.9416E-01
      8.157  0.3668E-02  0.9458E-01
      8.273  0.3891E-02  0.9502E-01
      8.389  0.4256E-02  0.9549E-01
      8.505  0.3799E-02  0.9595E-01
      8.621  0.3533E-02  0.9638E-01
      8.737  0.3115E-02  0.9676E-01
      8.853  0.2860E-02  0.9711E-01
      8.969  0.2605E-02  0.9742E-01
      9.085  0.3034E-02  0.9775E-01
      9.201  0.3315E-02  0.9811E-01
      9.317  0.3908E-02  0.9853E-01
      9.433  0.4167E-02  0.9901E-01
      9.549  0.4051E-02  0.9949E-01
      9.665  0.3925E-02  0.9995E-01
      9.781  0.3912E-02  0.1004E+00
      9.897  0.4003E-02  0.1009E+00
     10.013  0.4089E-02  0.1013E+00
     10.129  0.4199E-02  0.1018E+00
     10.245  0.5699E-02  0.1024E+00
     10.361  0.9040E-02  0.1032E+00
     10.477  0.9236E-02  0.1043E+00
     10.593  0.8318E-02  0.1054E+00
     10.709  0.6905E-02  0.1062E+00
     10.825  0.6352E-02  0.1070E+00
     10.941  0.6340E-02  0.1077E+00
     11.057  0.6547E-02  0.1085E+00
     11.173  0.7991E-02  0.1093E+00
     11.289  0.1620E-01  0.1109E+00
     11.405  0.1141E-01  0.1124E+00
     11.521  0.6577E-02  0.1135E+00
     11.637  0.3265E-02  0.1140E+00
     11.753  0.2845E-02  0.1143E+00
     11.869  0.2700E-02  0.1147E+00
     11.985  0.2564E-02  0.1150E+00
     12.101  0.2454E-02  0.1153E+00
     12.217  0.2366E-02  0.1155E+00
     12.333  0.2311E-02  0.1158E+00
     12.449  0.2275E-02  0.1161E+00
     12.565  0.2256E-02  0.1163E+00
     12.681  0.2276E-02  0.1166E+00
     12.797  0.2423E-02  0.1169E+00
     12.913  0.2584E-02  0.1172E+00
     13.029  0.2551E-02  0.1175E+00
     13.145  0.2680E-02  0.1178E+00
     13.261  0.2966E-02  0.1181E+00
     13.377  0.5472E-02  0.1185E+00
     13.493  0.4208E-02  0.1191E+00
     13.609  0.2732E-02  0.1195E+00
     13.725  0.1641E-02  0.1198E+00
     13.841  0.8382E-03  0.1199E+00
     13.957  0.3542E-03  0.1200E+00
     14.073  0.9328E-04  0.1200E+00
     14.189  0.0000E+00  0.1200E+00
     14.305  0.0000E+00  0.1200E+00
     14.421  0.0000E+00  0.1200E+00
     14.537  0.0000E+00  0.1200E+00
     14.653  0.0000E+00  0.1200E+00
     14.769  0.0000E+00  0.1200E+00
     14.885  0.0000E+00  0.1200E+00
     15.001  0.0000E+00  0.1200E+00
     15.117  0.0000E+00  0.1200E+00
     15.233  0.0000E+00  0.1200E+00
     15.349  0.0000E+00  0.1200E+00
     15.465  0.0000E+00  0.1200E+00
     15.581  0.0000E+00  0.1200E+00
     15.697  0.0000E+00  0.1200E+00
     15.813  0.0000E+00  0.1200E+00
     15.929  0.0000E+00  0.1200E+00
     16.045  0.0000E+00  0.1200E+00
     16.161  0.0000E+00  0.1200E+00
