    4    4  200    1
  0.1110955E+02  0.2466143E-09  0.2466143E-09  0.8425457E-09  0.5000000E-15
  1.000000000000000E-004
  CAR 
 graphite                                
     16    455     12
 
  0.0000000E+00  0.0000000E+00  0.0000000E+00  0.3858025E-03
    1      -16.638725
    2      -16.598480
    3       -4.978673
    4       -4.456121
    5       -0.162799
    6       -0.161678
    7       -0.144064
    8       -0.142888
    9        6.008707
   10        9.423128
   11       11.158804
   12       11.191343
 
  0.5555556E-01  0.3469447E-17  0.0000000E+00  0.1543210E-02
    1      -16.565947
    2      -16.525835
    3       -4.890932
    4       -4.370551
    5       -0.457388
    6       -0.455407
    7       -0.304118
    8       -0.302299
    9        6.103334
   10        9.510542
   11       11.200332
   12       11.216412
 
  0.1111111E+00  0.6938894E-17  0.0000000E+00  0.1543210E-02
    1      -16.347646
    2      -16.308204
    3       -4.628630
    4       -4.114324
    5       -1.277146
    6       -1.273530
    7       -0.717559
    8       -0.714884
    9        6.387494
   10        9.770681
   11       11.234249
   12       11.270833
 
  0.1666667E+00  0.0000000E+00  0.0000000E+00  0.1543210E-02
    1      -15.985013
    2      -15.946693
    3       -4.194775
    4       -3.691105
    5       -2.453361
    6       -2.447371
    7       -1.273652
    8       -1.270303
    9        6.861233
   10       10.192191
   11       11.166510
   12       11.221240
 
  0.2222222E+00  0.1387779E-16  0.0000000E+00  0.1543210E-02
    1      -15.479983
    2      -15.443176
    3       -3.828631
    4       -3.820050
    5       -3.595361
    6       -3.107575
    7       -1.864708
    8       -1.861025
    9        7.523485
   10       10.558160
   11       10.810608
   12       10.995684
 
  0.2777778E+00 -0.2775558E-16  0.0000000E+00  0.1543210E-02
    1      -14.835647
    2      -14.800931
    3       -5.288769
    4       -5.277115
    5       -2.841293
    6       -2.415428
    7       -2.411427
    8       -2.376293
    9        8.371448
   10        9.240549
   11        9.380803
   12       10.776768
 
  0.3333333E+00  0.0000000E+00  0.0000000E+00  0.1543210E-02
    1      -14.057237
    2      -14.025013
    3       -6.756574
    4       -6.741819
    5       -2.878150
    6       -2.873878
    7       -1.954160
    8       -1.522091
    9        7.675059
   10        7.873613
   11        9.396105
   12       10.563478
 
  0.3888889E+00  0.5551115E-16  0.0000000E+00  0.1543210E-02
    1      -13.154754
    2      -13.125139
    3       -8.177300
    4       -8.159533
    5       -3.224459
    6       -3.220148
    7       -0.981477
    8       -0.601877
    9        6.184100
   10        6.425969
   11       10.339219
   12       10.404393
 
  0.4444444E+00  0.2775558E-16  0.0000000E+00  0.1543210E-02
    1      -12.158976
    2      -12.133154
    3       -9.492108
    4       -9.472759
    5       -3.437872
    6       -3.433455
    7       -0.053735
    8        0.227551
    9        4.969913
   10        5.220406
   11       10.272004
   12       10.327846
 
  0.5000000E+00  0.2775558E-16  0.0000000E+00  0.7716049E-03
    1      -11.407698
    2      -11.394365
    3      -10.340857
    4      -10.329995
    5       -3.509879
    6       -3.505409
    7        0.425001
    8        0.584056
    9        4.452199
   10        4.676350
   11       10.234823
   12       10.293741
 
  0.5555556E-01  0.5555556E-01  0.0000000E+00  0.7716049E-03
    1      -16.420674
    2      -16.380998
    3       -4.716294
    4       -4.199941
    5       -0.988489
    6       -0.986448
    7       -0.616506
    8       -0.615048
    9        6.292318
   10        9.684081
   11       11.294988
   12       11.326150
 
  0.1111111E+00  0.5555556E-01  0.0000000E+00  0.1543210E-02
    1      -16.130539
    2      -16.091746
    3       -4.368535
    4       -3.860524
    5       -1.930539
    6       -1.926607
    7       -1.158972
    8       -1.156398
    9        6.671123
   10       10.027062
   11       11.409815
   12       11.461688
 
  0.1666667E+00  0.5555556E-01  0.0000000E+00  0.1543210E-02
    1      -15.697031
    2      -15.659549
    3       -3.851926
    4       -3.357119
    5       -3.163239
    6       -3.156600
    7       -1.777340
    8       -1.773781
    9        7.239244
   10       10.509307
   11       11.367811
   12       11.431570
 
  0.2222222E+00  0.5555556E-01  0.0000000E+00  0.1543210E-02
    1      -15.122649
    2      -15.086988
    3       -4.554761
    4       -4.545052
    5       -3.174575
    6       -2.698900
    7       -2.375336
    8       -2.370987
    9        7.994876
   10        9.933857
   11       10.033846
   12       11.200679
 
  0.2777778E+00  0.5555556E-01  0.0000000E+00  0.1543210E-02
    1      -14.411414
    2      -14.377945
    3       -6.003975
    4       -5.990957
    5       -2.896674
    6       -2.891889
    7       -2.351521
    8       -1.903041
    9        8.409639
   10        8.571615
   11        8.934023
   12       10.991470
 
  0.3333333E+00  0.5555556E-01  0.0000000E+00  0.1543210E-02
    1      -13.570673
    2      -13.539695
    3       -7.440906
    4       -7.424862
    5       -3.308508
    6       -3.303518
    7       -1.413552
    8       -1.005678
    9        6.884470
   10        7.098300
   11       10.040209
   12       10.799280
 
  0.3888889E+00  0.5555556E-01  0.0000000E+00  0.1543210E-02
    1      -12.615943
    2      -12.588231
    3       -8.810383
    4       -8.792026
    5       -3.591450
    6       -3.586351
    7       -0.436316
    8       -0.098114
    9        5.509422
   10        5.753093
   11       10.641051
   12       10.693227
 
  0.4444444E+00  0.5555556E-01  0.0000000E+00  0.1543210E-02
    1      -11.630477
    2      -11.608803
    3      -10.005555
    4       -9.987868
    5       -3.734801
    6       -3.729465
    7        0.351234
    8        0.557987
    9        4.578857
   10        4.804554
   11       10.570657
   12       10.633125
 
  0.5000000E+00  0.5555556E-01  0.0000000E+00  0.1543210E-02
    1      -11.626277
    2      -11.604664
    3      -10.010535
    4       -9.992835
    5       -3.733468
    6       -3.728141
    7        0.353502
    8        0.559596
    9        4.576760
   10        4.802322
   11       10.569562
   12       10.632050
 
 -0.4444444E+00  0.5555556E-01  0.0000000E+00  0.1543210E-02
    1      -12.611255
    2      -12.583552
    3       -8.817331
    4       -8.798965
    5       -3.587459
    6       -3.582382
    7       -0.432177
    8       -0.094382
    9        5.504835
   10        5.748659
   11       10.638244
   12       10.690533
 
 -0.3888889E+00  0.5555556E-01  0.0000000E+00  0.1543210E-02
    1      -13.566544
    2      -13.535573
    3       -7.448828
    4       -7.432792
    5       -3.302043
    6       -3.297080
    7       -1.409235
    8       -1.001580
    9        6.879425
   10        7.093653
   11       10.046270
   12       10.794092
 
 -0.3333333E+00  0.5555556E-01  0.0000000E+00  0.1543210E-02
    1      -14.407928
    2      -14.374528
    3       -6.012592
    4       -5.999496
    5       -2.888108
    6       -2.883293
    7       -2.347597
    8       -1.899177
    9        8.405222
   10        8.567731
   11        8.939027
   12       10.985266
 
 -0.2777778E+00  0.5555556E-01  0.0000000E+00  0.1543210E-02
    1      -15.119812
    2      -15.084164
    3       -4.563642
    4       -4.553867
    5       -3.171217
    6       -2.695604
    7       -2.365383
    8       -2.361087
    9        7.998942
   10        9.930587
   11       10.031215
   12       11.195605
 
 -0.2222222E+00  0.5555556E-01  0.0000000E+00  0.1543210E-02
    1      -15.694846
    2      -15.657370
    3       -3.849284
    4       -3.354489
    5       -3.170835
    6       -3.164287
    7       -1.768100
    8       -1.764457
    9        7.242427
   10       10.510838
   11       11.365967
   12       11.386918
 
 -0.1666667E+00  0.5555556E-01  0.0000000E+00  0.1543210E-02
    1      -16.128972
    2      -16.090181
    3       -4.366568
    4       -3.858608
    5       -1.933396
    6       -1.929387
    7       -1.154588
    8       -1.152002
    9        6.673432
   10       10.029002
   11       11.418688
   12       11.469651
 
 -0.1111111E+00  0.5555556E-01  0.0000000E+00  0.1543210E-02
    1      -16.419717
    2      -16.380058
    3       -4.715120
    4       -4.198771
    5       -0.979835
    6       -0.977687
    7       -0.624237
    8       -0.622775
    9        6.293728
   10        9.685329
   11       11.318645
   12       11.349272
 
 -0.5555556E-01  0.5555556E-01  0.0000000E+00  0.7716049E-03
    1      -16.565635
    2      -16.525524
    3       -4.890540
    4       -4.370162
    5       -0.440723
    6       -0.438767
    7       -0.320555
    8       -0.318725
    9        6.103807
   10        9.510966
   11       11.227512
   12       11.242601
 
  0.1111111E+00  0.1111111E+00  0.0000000E+00  0.7716049E-03
    1      -15.769504
    2      -15.731811
    3       -3.937817
    4       -3.440628
    5       -2.825149
    6       -2.821649
    7       -1.866799
    8       -1.864503
    9        7.144786
   10       10.448640
   11       11.604600
   12       11.667513
 
  0.1666667E+00  0.1111111E+00  0.0000000E+00  0.1543210E-02
    1      -15.266659
    2      -15.230550
    3       -3.960339
    4       -3.954242
    5       -3.342387
    6       -2.861442
    7       -2.607509
    8       -2.603675
    9        7.807138
   10       10.365114
   11       10.434284
   12       11.045227
 
  0.2222222E+00  0.1111111E+00  0.0000000E+00  0.1543210E-02
    1      -14.625312
    2      -14.591146
    3       -5.273790
    4       -5.263785
    5       -3.245316
    6       -3.239860
    7       -2.592977
    8       -2.134976
    9        8.655484
   10        8.969818
   11        9.084090
   12       11.765260
 
  0.2777778E+00  0.1111111E+00  0.0000000E+00  0.1543210E-02
    1      -13.851076
    2      -13.819228
    3       -6.658670
    4       -6.644994
    5       -3.750764
    6       -3.744438
    7       -1.710152
    8       -1.284799
    9        7.507466
   10        7.671735
   11        9.684863
   12       11.785233
 
  0.3333333E+00  0.1111111E+00  0.0000000E+00  0.1543210E-02
    1      -12.954360
    2      -12.925457
    3       -8.031538
    4       -8.014869
    5       -4.116912
    6       -4.109767
    7       -0.738913
    8       -0.364301
    9        6.089899
   10        6.296741
   11       10.878813
   12       11.621600
 
  0.3888889E+00  0.1111111E+00  0.0000000E+00  0.1543210E-02
    1      -11.966845
    2      -11.941532
    3       -9.318313
    4       -9.299795
    5       -4.337739
    6       -4.330355
    7        0.196772
    8        0.477144
    9        4.909221
   10        5.124377
   11       11.497697
   12       11.570451
 
  0.4444444E+00  0.1111111E+00  0.0000000E+00  0.1543210E-02
    1      -11.219939
    2      -11.206943
    3      -10.158332
    4      -10.148138
    5       -4.410147
    6       -4.402860
    7        0.691440
    8        0.849021
    9        4.393840
   10        4.574708
   11       11.460710
   12       11.541231
 
  0.5000000E+00  0.1111111E+00  0.0000000E+00  0.1543210E-02
    1      -11.957257
    2      -11.931961
    3       -9.331013
    4       -9.312503
    5       -4.332865
    6       -4.325642
    7        0.204017
    8        0.483246
    9        4.902004
   10        5.117139
   11       11.494541
   12       11.567702
 
 -0.4444444E+00  0.1111111E+00  0.0000000E+00  0.1543210E-02
    1      -12.945475
    2      -12.916473
    3       -8.046581
    4       -8.029908
    5       -4.107269
    6       -4.100324
    7       -0.730160
    8       -0.356074
    9        6.080427
   10        6.287928
   11       10.891920
   12       11.614394
 
 -0.3888889E+00  0.1111111E+00  0.0000000E+00  0.1543210E-02
    1      -13.843447
    2      -13.811666
    3       -6.675204
    4       -6.661429
    5       -3.737169
    6       -3.730915
    7       -1.701790
    8       -1.276689
    9        7.498749
   10        7.664047
   11        9.695659
   12       11.775899
 
 -0.3333333E+00  0.1111111E+00  0.0000000E+00  0.1543210E-02
    1      -14.618982
    2      -14.584838
    3       -5.290607
    4       -5.280523
    5       -3.229290
    6       -3.223988
    7       -2.585577
    8       -2.127744
    9        8.664373
   10        8.963705
   11        9.079020
   12       11.775373
 
 -0.2777778E+00  0.1111111E+00  0.0000000E+00  0.1543210E-02
    1      -15.261625
    2      -15.225533
    3       -3.973489
    4       -3.967222
    5       -3.336320
    6       -2.855470
    7       -2.593765
    8       -2.589865
    9        7.814259
   10       10.362797
   11       10.431501
   12       11.054845
 
 -0.2222222E+00  0.1111111E+00  0.0000000E+00  0.1543210E-02
    1      -15.765741
    2      -15.728056
    3       -3.933182
    4       -3.436047
    5       -2.826369
    6       -2.822834
    7       -1.864397
    8       -1.862111
    9        7.150172
   10       10.453532
   11       11.607600
   12       11.672821
 
 -0.1666667E+00  0.1111111E+00  0.0000000E+00  0.1543210E-02
    1      -16.128038
    2      -16.089248
    3       -4.365376
    4       -3.857428
    5       -1.915997
    6       -1.912223
    7       -1.172703
    8       -1.170188
    9        6.674753
   10       10.030621
   11       11.398814
   12       11.449027
 
 -0.1111111E+00  0.1111111E+00  0.0000000E+00  0.7716049E-03
    1      -16.346379
    2      -16.306950
    3       -4.627059
    4       -4.112767
    5       -1.255835
    6       -1.252135
    7       -0.738809
    8       -0.736148
    9        6.389324
   10        9.772490
   11       11.228421
   12       11.264311
 
  0.1666667E+00  0.1666667E+00  0.0000000E+00  0.7716049E-03
    1      -14.696830
    2      -14.662466
    3       -4.873729
    4       -4.868511
    5       -3.529175
    6       -3.525464
    7       -2.673957
    8       -2.212810
    9        8.562309
   10        9.188998
   11        9.279485
   12       11.636170
 
  0.2222222E+00  0.1666667E+00  0.0000000E+00  0.1543210E-02
    1      -13.992115
    2      -13.959987
    3       -5.984461
    4       -5.975584
    5       -4.290257
    6       -4.284267
    7       -1.860844
    8       -1.427083
    9        7.899380
   10        8.011914
   11        9.500549
   12       12.351179
 
  0.2777778E+00  0.1666667E+00  0.0000000E+00  0.1543210E-02
    1      -13.160767
    2      -13.131185
    3       -7.239669
    4       -7.226133
    5       -4.818705
    6       -4.810655
    7       -0.930655
    8       -0.536120
    9        6.565630
   10        6.715510
   11       10.614791
   12       12.984633
 
  0.3333333E+00  0.1666667E+00  0.0000000E+00  0.1543210E-02
    1      -12.219833
    2      -12.193084
    3       -8.513825
    4       -8.497114
    5       -5.150991
    6       -5.141817
    7        0.050331
    8        0.381119
    9        5.307734
   10        5.486211
   11       11.888165
   12       12.849293
 
  0.3888889E+00  0.1666667E+00  0.0000000E+00  0.1543210E-02
    1      -11.252297
    2      -11.231675
    3       -9.658502
    4       -9.641993
    5       -5.311525
    6       -5.301894
    7        0.868903
    8        1.075563
    9        4.410419
   10        4.559347
   11       12.757388
   12       12.878437
 
  0.4444444E+00  0.1666667E+00  0.0000000E+00  0.1543210E-02
    1      -11.239583
    2      -11.219126
    3       -9.673472
    4       -9.657128
    5       -5.308291
    6       -5.298674
    7        0.876333
    8        1.080977
    9        4.404254
   10        4.552519
   11       12.756281
   12       12.878611
 
  0.5000000E+00  0.1666667E+00  0.0000000E+00  0.1543210E-02
    1      -12.205662
    2      -12.178942
    3       -8.535117
    4       -8.518412
    5       -5.141468
    6       -5.132326
    7        0.063224
    8        0.392940
    9        5.295167
   10        5.474373
   11       11.909198
   12       12.843115
 
 -0.4444444E+00  0.1666667E+00  0.0000000E+00  0.1543210E-02
    1      -13.148216
    2      -13.118628
    3       -7.263048
    4       -7.249700
    5       -4.803856
    6       -4.795825
    7       -0.917463
    8       -0.523438
    9        6.553373
   10        6.704759
   11       10.632160
   12       12.976095
 
 -0.3888889E+00  0.1666667E+00  0.0000000E+00  0.1543210E-02
    1      -13.981642
    2      -13.949522
    3       -6.006583
    4       -5.997606
    5       -4.274046
    6       -4.267924
    7       -1.848871
    8       -1.415420
    9        7.890841
   10        8.004984
   11        9.515002
   12       12.365224
 
 -0.3333333E+00  0.1666667E+00  0.0000000E+00  0.1543210E-02
    1      -14.688275
    2      -14.653934
    3       -4.884918
    4       -4.879542
    5       -3.521373
    6       -3.517598
    7       -2.663777
    8       -2.202755
    9        8.574092
   10        9.186397
   11        9.277906
   12       11.646923
 
 -0.2777778E+00  0.1666667E+00  0.0000000E+00  0.1543210E-02
    1      -15.260054
    2      -15.223970
    3       -3.954265
    4       -3.948265
    5       -3.334294
    6       -2.853446
    7       -2.615692
    8       -2.611897
    9        7.816327
   10       10.369392
   11       10.441038
   12       11.048923
 
 -0.2222222E+00  0.1666667E+00  0.0000000E+00  0.1543210E-02
    1      -15.692339
    2      -15.654868
    3       -3.846061
    4       -3.351313
    5       -3.144039
    6       -3.137545
    7       -1.798425
    8       -1.794807
    9        7.245836
   10       10.519033
   11       11.317442
   12       11.381709
 
 -0.1666667E+00  0.1666667E+00  0.0000000E+00  0.7716049E-03
    1      -15.982205
    2      -15.943888
    3       -4.191199
    4       -3.687586
    5       -2.427824
    6       -2.421929
    7       -1.301075
    8       -1.297699
    9        6.865197
   10       10.197217
   11       11.127588
   12       11.180843
 
  0.2222222E+00  0.2222222E+00  0.0000000E+00  0.7716049E-03
    1      -13.229986
    2      -13.200056
    3       -6.778007
    4       -6.770797
    5       -5.257620
    6       -5.252063
    7       -0.996093
    8       -0.595228
    9        6.758757
   10        6.872486
   11       10.522758
   12       12.952221
 
  0.2777778E+00  0.2222222E+00  0.0000000E+00  0.1543210E-02
    1      -12.350818
    2      -12.323811
    3       -7.778130
    4       -7.766712
    5       -5.912417
    6       -5.904223
    7       -0.034708
    8        0.319733
    9        5.589605
   10        5.721722
   11       11.709223
   12       13.454304
 
  0.3333333E+00  0.2222222E+00  0.0000000E+00  0.1543210E-02
    1      -11.388665
    2      -11.365170
    3       -8.890643
    4       -8.875128
    5       -6.248889
    6       -6.238137
    7        0.926381
    8        1.201922
    9        4.524879
   10        4.661487
   11       13.028977
   12       13.792308
 
  0.3888889E+00  0.2222222E+00  0.0000000E+00  0.1543210E-02
    1      -10.657227
    2      -10.645084
    3       -9.677201
    4       -9.669557
    5       -6.349290
    6       -6.337921
    7        1.485444
    8        1.638300
    9        4.024221
   10        4.070069
   11       13.969461
   12       14.152542
 
  0.4444444E+00  0.2222222E+00  0.0000000E+00  0.1543210E-02
    1      -11.368987
    2      -11.345541
    3       -8.916768
    4       -8.901293
    5       -6.241373
    6       -6.230651
    7        0.942470
    8        1.216076
    9        4.510956
   10        4.647869
   11       13.059346
   12       13.805612
 
  0.5000000E+00  0.2222222E+00  0.0000000E+00  0.1543210E-02
    1      -12.332797
    2      -12.305819
    3       -7.806608
    4       -7.795103
    5       -5.900100
    6       -5.891810
    7       -0.016437
    8        0.337192
    9        5.574511
   10        5.708396
   11       11.734168
   12       13.470789
 
 -0.4444444E+00  0.2222222E+00  0.0000000E+00  0.1543210E-02
    1      -13.214590
    2      -13.184685
    3       -6.798125
    4       -6.790828
    5       -5.250363
    6       -5.244703
    7       -0.978913
    8       -0.578467
    9        6.748424
   10        6.863676
   11       10.543612
   12       12.968088
 
 -0.3888889E+00  0.2222222E+00  0.0000000E+00  0.1543210E-02
    1      -13.979413
    2      -13.947178
    3       -5.987227
    4       -5.978585
    5       -4.297349
    6       -4.291347
    7       -1.845838
    8       -1.412344
    9        7.896607
   10        8.009485
   11        9.517759
   12       12.363970
 
 -0.3333333E+00  0.2222222E+00  0.0000000E+00  0.1543210E-02
    1      -14.615195
    2      -14.581064
    3       -5.262411
    4       -5.252546
    5       -3.264565
    6       -3.259061
    7       -2.580638
    8       -2.122741
    9        8.669204
   10        8.975191
   11        9.088893
   12       11.773442
 
 -0.2777778E+00  0.2222222E+00  0.0000000E+00  0.1543210E-02
    1      -15.115112
    2      -15.079458
    3       -4.533453
    4       -4.523906
    5       -3.165158
    6       -2.689555
    7       -2.403254
    8       -2.398909
    9        8.005146
   10        9.947400
   11       10.044980
   12       11.125812
 
 -0.2222222E+00  0.2222222E+00  0.0000000E+00  0.7716049E-03
    1      -15.474982
    2      -15.438185
    3       -3.801081
    4       -3.792600
    5       -3.589019
    6       -3.101269
    7       -1.897971
    8       -1.894258
    9        7.530317
   10       10.581259
   11       10.821122
   12       10.934478
 
  0.2777778E+00  0.2777778E+00  0.0000000E+00  0.7716049E-03
    1      -11.443315
    2      -11.418901
    3       -8.401938
    4       -8.393138
    5       -6.787393
    6       -6.781194
    7        0.936507
    8        1.238147
    9        4.589294
   10        4.720413
   11       12.938885
   12       13.556220
 
  0.3333333E+00  0.2777778E+00  0.0000000E+00  0.1543210E-02
    1      -10.512905
    2      -10.494037
    3       -9.214763
    4       -9.203419
    5       -7.213876
    6       -7.205165
    7        1.851808
    8        2.062353
    9        3.706791
   10        3.818687
   11       13.581186
   12       13.913319
 
  0.3888889E+00  0.2777778E+00  0.0000000E+00  0.1543210E-02
    1      -10.489066
    2      -10.470431
    3       -9.241574
    4       -9.230447
    5       -7.210603
    6       -7.201780
    7        1.869208
    8        2.076580
    9        3.693265
   10        3.804192
   11       13.588927
   12       13.906174
 
  0.4444444E+00  0.2777778E+00  0.0000000E+00  0.1543210E-02
    1      -11.418513
    2      -11.394148
    3       -8.429343
    4       -8.420419
    5       -6.784632
    6       -6.778244
    7        0.960365
    8        1.260905
    9        4.570907
   10        4.703877
   11       12.972948
   12       13.567494
 
  0.5000000E+00  0.2777778E+00  0.0000000E+00  0.1543210E-02
    1      -12.329488
    2      -12.302507
    3       -7.790114
    4       -7.778848
    5       -5.921370
    6       -5.913255
    7       -0.011618
    8        0.342267
    9        5.577145
   10        5.710158
   11       11.737485
   12       13.467246
 
 -0.4444444E+00  0.2777778E+00  0.0000000E+00  0.1543210E-02
    1      -13.142880
    2      -13.113216
    3       -7.237327
    4       -7.224194
    5       -4.838546
    6       -4.830525
    7       -0.909997
    8       -0.515761
    9        6.561812
   10        6.711058
   11       10.638226
   12       12.881673
 
 -0.3888889E+00  0.2777778E+00  0.0000000E+00  0.1543210E-02
    1      -13.836602
    2      -13.804909
    3       -6.646035
    4       -6.632430
    5       -3.778574
    6       -3.772113
    7       -1.692698
    8       -1.267491
    9        7.512469
   10        7.675052
   11        9.703764
   12       11.687437
 
 -0.3333333E+00  0.2777778E+00  0.0000000E+00  0.1543210E-02
    1      -14.400341
    2      -14.366896
    3       -5.983094
    4       -5.970167
    5       -2.930536
    6       -2.925740
    7       -2.337668
    8       -1.889228
    9        8.422096
   10        8.581663
   11        8.948536
   12       10.902225
 
 -0.2777778E+00  0.2777778E+00  0.0000000E+00  0.7716049E-03
    1      -14.827797
    2      -14.793097
    3       -5.261620
    4       -5.250032
    5       -2.831279
    6       -2.453665
    7       -2.449629
    8       -2.366317
    9        8.381774
   10        9.257624
   11        9.394784
   12       10.697132
 
  0.3333333E+00  0.3333333E+00  0.0000000E+00  0.7716049E-03
    1       -9.735167
    2       -9.724402
    3       -9.689569
    4       -9.679131
    5       -7.652636
    6       -7.652593
    7        2.729833
    8        2.871674
    9        2.874960
   10        3.022833
   11       13.549668
   12       13.561402
 
  0.3888889E+00  0.3333333E+00  0.0000000E+00  0.1543210E-02
    1      -10.477411
    2      -10.458407
    3       -9.240670
    4       -9.229283
    5       -7.224287
    6       -7.215610
    7        1.882712
    8        2.091554
    9        3.682062
   10        3.796548
   11       13.587862
   12       13.899057
 
  0.4444444E+00  0.3333333E+00  0.0000000E+00  0.1543210E-02
    1      -11.359099
    2      -11.335541
    3       -8.900880
    4       -8.885412
    5       -6.269842
    6       -6.259151
    7        0.956308
    8        1.230959
    9        4.508514
   10        4.645420
   11       13.065684
   12       13.798360
 
  0.5000000E+00  0.3333333E+00  0.0000000E+00  0.1543210E-02
    1      -12.195357
    2      -12.168728
    3       -8.512332
    4       -8.495658
    5       -5.179328
    6       -5.170211
    7        0.077614
    8        0.408000
    9        5.300915
   10        5.478022
   11       11.917725
   12       12.740230
 
 -0.4444444E+00  0.3333333E+00  0.0000000E+00  0.1543210E-02
    1      -12.934616
    2      -12.905720
    3       -8.020834
    4       -8.004216
    5       -4.150857
    6       -4.143743
    7       -0.715283
    8       -0.340815
    9        6.092356
   10        6.296928
   11       10.900762
   12       11.518012
 
 -0.3888889E+00  0.3333333E+00  0.0000000E+00  0.1543210E-02
    1      -13.555093
    2      -13.524227
    3       -7.422489
    4       -7.406501
    5       -3.347180
    6       -3.342171
    7       -1.394198
    8       -0.986363
    9        6.894847
   10        7.105888
   11       10.056313
   12       10.702424
 
 -0.3333333E+00  0.3333333E+00  0.0000000E+00  0.7716049E-03
    1      -14.045767
    2      -14.013352
    3       -6.731628
    4       -6.716983
    5       -2.920212
    6       -2.915902
    7       -1.939428
    8       -1.507299
    9        7.690816
   10        7.886282
   11        9.409469
   12       10.473688
 
  0.3888889E+00  0.3888889E+00  0.0000000E+00  0.7716049E-03
    1      -10.619674
    2      -10.607733
    3       -9.689928
    4       -9.682580
    5       -6.376577
    6       -6.365220
    7        1.516352
    8        1.666893
    9        4.010738
   10        4.051749
   11       13.967967
   12       14.053474
 
  0.4444444E+00  0.3888889E+00  0.0000000E+00  0.1543210E-02
    1      -11.216531
    2      -11.195842
    3       -9.664760
    4       -9.648191
    5       -5.345414
    6       -5.335762
    7        0.902592
    8        1.107448
    9        4.400999
   10        4.546002
   11       12.649088
   12       12.771973
 
  0.5000000E+00  0.3888889E+00  0.0000000E+00  0.1543210E-02
    1      -11.939120
    2      -11.913753
    3       -9.313331
    4       -9.294787
    5       -4.376295
    6       -4.369128
    7        0.227664
    8        0.507486
    9        4.907353
   10        5.119138
   11       11.392738
   12       11.466801
 
 -0.4444444E+00  0.3888889E+00  0.0000000E+00  0.1543210E-02
    1      -12.594424
    2      -12.566719
    3       -8.796753
    4       -8.778381
    5       -3.633744
    6       -3.628628
    7       -0.410071
    8       -0.071873
    9        5.515365
   10        5.755781
   11       10.541753
   12       10.595389
 
 -0.3888889E+00  0.3888889E+00  0.0000000E+00  0.7716049E-03
    1      -13.138509
    2      -13.108822
    3       -8.156305
    4       -8.138884
    5       -3.269282
    6       -3.264859
    7       -0.960646
    8       -0.580874
    9        6.196309
   10        6.434940
   11       10.261802
   12       10.313349
 
  0.4444444E+00  0.4444444E+00  0.0000000E+00  0.7716049E-03
    1      -11.179981
    2      -11.167132
    3      -10.163474
    4      -10.153403
    5       -4.451895
    6       -4.444572
    7        0.725659
    8        0.880869
    9        4.391844
   10        4.566727
   11       11.355366
   12       11.435600
 
  0.5000000E+00  0.4444444E+00  0.0000000E+00  0.1543210E-02
    1      -11.597164
    2      -11.575372
    3      -10.002917
    4       -9.984965
    5       -3.779601
    6       -3.774229
    7        0.385080
    8        0.590469
    9        4.580111
   10        4.800536
   11       10.468368
   12       10.530880
 
 -0.4444444E+00  0.4444444E+00  0.0000000E+00  0.7716049E-03
    1      -12.135017
    2      -12.109263
    3       -9.478953
    4       -9.459545
    5       -3.484401
    6       -3.479882
    7       -0.024943
    8        0.256327
    9        4.976091
   10        5.222489
   11       10.172487
   12       10.228677
 
  0.5000000E+00  0.5000000E+00  0.0000000E+00  0.3858025E-03
    1      -11.366904
    2      -11.353790
    3      -10.344250
    4      -10.333653
    5       -3.556861
    6       -3.552330
    7        0.460342
    8        0.617033
    9        4.454566
   10        4.672442
   11       10.134064
   12       10.192993
 