       N       E                     dE             d eps       ncg     rms          rms(c)
DAV:   1     0.709505627371E+02    0.70951E+02   -0.86641E+03 10928   0.134E+03
DAV:   2    -0.336265280454E+02   -0.10458E+03   -0.94825E+02 15668   0.246E+02
DAV:   3    -0.392913760562E+02   -0.56648E+01   -0.56068E+01 13488   0.596E+01
DAV:   4    -0.393837211378E+02   -0.92345E-01   -0.92166E-01 13880   0.869E+00
DAV:   5    -0.393860311524E+02   -0.23100E-02   -0.23080E-02 13560   0.136E+00    0.779E+00
DAV:   6    -0.375224751282E+02    0.18636E+01   -0.17768E+00 12876   0.929E+00    0.410E+00
DAV:   7    -0.368795010303E+02    0.64297E+00   -0.20254E+00 12880   0.990E+00    0.714E-01
DAV:   8    -0.368925954767E+02   -0.13094E-01   -0.57690E-02 12356   0.169E+00    0.917E-02
DAV:   9    -0.368929117908E+02   -0.31631E-03   -0.18573E-03 13572   0.350E-01    0.440E-02
DAV:  10    -0.368932441098E+02   -0.33232E-03   -0.39710E-04 12652   0.181E-01    0.858E-03
DAV:  11    -0.368932461843E+02   -0.20745E-05   -0.13615E-05 14176   0.281E-02    0.290E-03
DAV:  12    -0.368932478900E+02   -0.17057E-05   -0.12338E-06 12352   0.118E-02    0.709E-04
DAV:  13    -0.368932480036E+02   -0.11359E-06   -0.13482E-07  9676   0.385E-03
   1 F= -.36893248E+02 E0= -.36893248E+02  d E =-.368932E+02
       N       E                     dE             d eps       ncg     rms          rms(c)
DAV:   1    -0.368907893090E+02    0.24586E-02   -0.30478E-01 12008   0.518E+00    0.125E-01
DAV:   2    -0.368908088670E+02   -0.19558E-04   -0.47677E-03 14028   0.620E-01    0.860E-02
DAV:   3    -0.368905830182E+02    0.22585E-03   -0.82774E-04 12928   0.297E-01    0.173E-02
DAV:   4    -0.368905791894E+02    0.38288E-05   -0.12014E-04 13360   0.100E-01    0.516E-03
DAV:   5    -0.368905795526E+02   -0.36318E-06   -0.31333E-06 13464   0.146E-02
   2 F= -.36890580E+02 E0= -.36890580E+02  d E =0.266845E-02
       N       E                     dE             d eps       ncg     rms          rms(c)
DAV:   1    -0.368936350008E+02   -0.30558E-02   -0.17892E-01 11860   0.396E+00    0.981E-02
DAV:   2    -0.368936241695E+02    0.10831E-04   -0.27255E-03 13940   0.470E-01    0.661E-02
DAV:   3    -0.368934898969E+02    0.13427E-03   -0.48544E-04 12920   0.228E-01    0.128E-02
DAV:   4    -0.368934883086E+02    0.15882E-05   -0.70741E-05 13328   0.767E-02    0.406E-03
DAV:   5    -0.368934885361E+02   -0.22748E-06   -0.17617E-06 11544   0.111E-02
   3 F= -.36893489E+02 E0= -.36893489E+02  d E =-.240533E-03
