graphite                                
           1
     2.466141    0.002940    0.000000
    -1.230525    2.137211    0.000000
     0.000000    0.000000    8.425457
   C 
   4
Direct configuration=     1
   0.99981862  0.00018142  0.25000000
   0.00018142  0.99981862  0.75000000
   0.33262049  0.66737949  0.25000000
   0.66737949  0.33262049  0.75000000
Direct configuration=     2
   0.99857877  0.00142128  0.25000000
   0.00142128  0.99857877  0.75000000
   0.33385158  0.66614840  0.25000000
   0.66614840  0.33385158  0.75000000
Direct configuration=     3
   0.99952988  0.00047017  0.25000000
   0.00047017  0.99952988  0.75000000
   0.33290720  0.66709279  0.25000000
   0.66709279  0.33290720  0.75000000
