   4   4   0   0
  0.8468675E+01  0.2466437E-09  0.2466437E-09  0.6432798E-09  0.5000000E-15
  1.000000000000000E-004
  CAR 
 graphite                                
     19.01299029    -16.62660326  301      5.03920347      1.00000000
    -16.627  0.0000E+00  0.0000E+00
    -16.508  0.0000E+00  0.0000E+00
    -16.389  0.0000E+00  0.0000E+00
    -16.270  0.0000E+00  0.0000E+00
    -16.151  0.0000E+00  0.0000E+00
    -16.033  0.0000E+00  0.0000E+00
    -15.914  0.0000E+00  0.0000E+00
    -15.795  0.0000E+00  0.0000E+00
    -15.676  0.0000E+00  0.0000E+00
    -15.557  0.0000E+00  0.0000E+00
    -15.439  0.0000E+00  0.0000E+00
    -15.320  0.0000E+00  0.0000E+00
    -15.201  0.0000E+00  0.0000E+00
    -15.082  0.0000E+00  0.0000E+00
    -14.963  0.0000E+00  0.0000E+00
    -14.845  0.0000E+00  0.0000E+00
    -14.726  0.0000E+00  0.0000E+00
    -14.607  0.4789E-04  0.3233E-06
    -14.488  0.1087E-02  0.5849E-04
    -14.369  0.1574E-02  0.2229E-03
    -14.251  0.2197E-02  0.4440E-03
    -14.132  0.3176E-02  0.7651E-03
    -14.013  0.3026E-02  0.1141E-02
    -13.894  0.3067E-02  0.1503E-02
    -13.775  0.3109E-02  0.1870E-02
    -13.657  0.3055E-02  0.2237E-02
    -13.538  0.3094E-02  0.2600E-02
    -13.419  0.3136E-02  0.2972E-02
    -13.300  0.3144E-02  0.3345E-02
    -13.181  0.3130E-02  0.3718E-02
    -13.063  0.3064E-02  0.4087E-02
    -12.944  0.3078E-02  0.4451E-02
    -12.825  0.3108E-02  0.4819E-02
    -12.706  0.3159E-02  0.5191E-02
    -12.587  0.3198E-02  0.5569E-02
    -12.469  0.3184E-02  0.5948E-02
    -12.350  0.3172E-02  0.6326E-02
    -12.231  0.3137E-02  0.6701E-02
    -12.112  0.3127E-02  0.7072E-02
    -11.993  0.3143E-02  0.7445E-02
    -11.875  0.3166E-02  0.7819E-02
    -11.756  0.3194E-02  0.8197E-02
    -11.637  0.3229E-02  0.8579E-02
    -11.518  0.3256E-02  0.8964E-02
    -11.399  0.3258E-02  0.9351E-02
    -11.281  0.3252E-02  0.9738E-02
    -11.162  0.3228E-02  0.1012E-01
    -11.043  0.3234E-02  0.1051E-01
    -10.924  0.3249E-02  0.1089E-01
    -10.805  0.3276E-02  0.1128E-01
    -10.687  0.3306E-02  0.1167E-01
    -10.568  0.3336E-02  0.1206E-01
    -10.449  0.3378E-02  0.1246E-01
    -10.330  0.3429E-02  0.1287E-01
    -10.211  0.3491E-02  0.1328E-01
    -10.093  0.3551E-02  0.1370E-01
     -9.974  0.3639E-02  0.1412E-01
     -9.855  0.3755E-02  0.1456E-01
     -9.736  0.3915E-02  0.1502E-01
     -9.617  0.4990E-02  0.1555E-01
     -9.499  0.5360E-02  0.1617E-01
     -9.380  0.5292E-02  0.1683E-01
     -9.261  0.3919E-02  0.1738E-01
     -9.142  0.2915E-02  0.1778E-01
     -9.023  0.2557E-02  0.1810E-01
     -8.905  0.2272E-02  0.1839E-01
     -8.786  0.3183E-02  0.1877E-01
     -8.667  0.3033E-02  0.1912E-01
     -8.548  0.1227E-02  0.1938E-01
     -8.429  0.1083E-02  0.1952E-01
     -8.311  0.9383E-03  0.1964E-01
     -8.192  0.7939E-03  0.1974E-01
     -8.073  0.8711E-03  0.1983E-01
     -7.954  0.1157E-02  0.1995E-01
     -7.836  0.1446E-02  0.2011E-01
     -7.717  0.2374E-02  0.2031E-01
     -7.598  0.4963E-02  0.2074E-01
     -7.479  0.4348E-02  0.2129E-01
     -7.360  0.3763E-02  0.2180E-01
     -7.242  0.4308E-02  0.2226E-01
     -7.123  0.5073E-02  0.2282E-01
     -7.004  0.5838E-02  0.2347E-01
     -6.885  0.5292E-02  0.2417E-01
     -6.766  0.3772E-02  0.2473E-01
     -6.648  0.3484E-02  0.2515E-01
     -6.529  0.3389E-02  0.2555E-01
     -6.410  0.3302E-02  0.2595E-01
     -6.291  0.3218E-02  0.2634E-01
     -6.172  0.3128E-02  0.2672E-01
     -6.054  0.3033E-02  0.2708E-01
     -5.935  0.2938E-02  0.2744E-01
     -5.816  0.2843E-02  0.2778E-01
     -5.697  0.2747E-02  0.2811E-01
     -5.578  0.2652E-02  0.2843E-01
     -5.460  0.2558E-02  0.2874E-01
     -5.341  0.2744E-02  0.2905E-01
     -5.222  0.2977E-02  0.2939E-01
     -5.103  0.3209E-02  0.2976E-01
     -4.984  0.3442E-02  0.3016E-01
     -4.866  0.3674E-02  0.3058E-01
     -4.747  0.3907E-02  0.3103E-01
     -4.628  0.4139E-02  0.3151E-01
     -4.509  0.4135E-02  0.3200E-01
     -4.390  0.3979E-02  0.3248E-01
     -4.272  0.3824E-02  0.3294E-01
     -4.153  0.3823E-02  0.3340E-01
     -4.034  0.3821E-02  0.3385E-01
     -3.915  0.3820E-02  0.3431E-01
     -3.796  0.3852E-02  0.3476E-01
     -3.678  0.3932E-02  0.3522E-01
     -3.559  0.4116E-02  0.3570E-01
     -3.440  0.4591E-02  0.3621E-01
     -3.321  0.4751E-02  0.3677E-01
     -3.202  0.4973E-02  0.3735E-01
     -3.084  0.5239E-02  0.3795E-01
     -2.965  0.5596E-02  0.3859E-01
     -2.846  0.5796E-02  0.3927E-01
     -2.727  0.5980E-02  0.3997E-01
     -2.608  0.6267E-02  0.4070E-01
     -2.490  0.6648E-02  0.4146E-01
     -2.371  0.7173E-02  0.4229E-01
     -2.252  0.7022E-02  0.4313E-01
     -2.133  0.6405E-02  0.4392E-01
     -2.014  0.6185E-02  0.4467E-01
     -1.896  0.6085E-02  0.4540E-01
     -1.777  0.6897E-02  0.4615E-01
     -1.658  0.8116E-02  0.4706E-01
     -1.539  0.9049E-02  0.4807E-01
     -1.420  0.1030E-01  0.4922E-01
     -1.302  0.1738E-01  0.5062E-01
     -1.183  0.1105E-01  0.5216E-01
     -1.064  0.9356E-02  0.5336E-01
     -0.945  0.8368E-02  0.5440E-01
     -0.826  0.7834E-02  0.5535E-01
     -0.708  0.5857E-02  0.5617E-01
     -0.589  0.5014E-02  0.5680E-01
     -0.470  0.5022E-02  0.5739E-01
     -0.351  0.5282E-02  0.5800E-01
     -0.232  0.5777E-02  0.5866E-01
     -0.114  0.6978E-02  0.5940E-01
      0.005  0.7769E-02  0.6030E-01
      0.124  0.8301E-02  0.6123E-01
      0.243  0.7513E-02  0.6216E-01
      0.362  0.6979E-02  0.6302E-01
      0.480  0.6580E-02  0.6382E-01
      0.599  0.6308E-02  0.6459E-01
      0.718  0.6077E-02  0.6532E-01
      0.837  0.5877E-02  0.6603E-01
      0.956  0.5761E-02  0.6672E-01
      1.074  0.6007E-02  0.6742E-01
      1.193  0.5880E-02  0.6813E-01
      1.312  0.5762E-02  0.6882E-01
      1.431  0.5938E-02  0.6950E-01
      1.550  0.5810E-02  0.7021E-01
      1.668  0.5505E-02  0.7088E-01
      1.787  0.6095E-02  0.7157E-01
      1.906  0.5183E-02  0.7224E-01
      2.025  0.4788E-02  0.7284E-01
      2.144  0.4307E-02  0.7337E-01
      2.262  0.4119E-02  0.7387E-01
      2.381  0.4102E-02  0.7436E-01
      2.500  0.4070E-02  0.7484E-01
      2.619  0.4080E-02  0.7532E-01
      2.738  0.4094E-02  0.7581E-01
      2.856  0.4288E-02  0.7630E-01
      2.975  0.4402E-02  0.7682E-01
      3.094  0.4105E-02  0.7734E-01
      3.213  0.3300E-02  0.7777E-01
      3.332  0.2859E-02  0.7814E-01
      3.450  0.2358E-02  0.7845E-01
      3.569  0.1935E-02  0.7870E-01
      3.688  0.1732E-02  0.7892E-01
      3.807  0.1557E-02  0.7911E-01
      3.926  0.1376E-02  0.7929E-01
      4.044  0.1201E-02  0.7944E-01
      4.163  0.1029E-02  0.7957E-01
      4.282  0.8869E-03  0.7969E-01
      4.401  0.7249E-03  0.7978E-01
      4.520  0.5735E-03  0.7986E-01
      4.638  0.4299E-03  0.7992E-01
      4.757  0.2933E-03  0.7996E-01
      4.876  0.1623E-03  0.7999E-01
      4.995  0.3634E-04  0.8000E-01
      5.114  0.4678E-04  0.8000E-01
      5.232  0.1314E-03  0.8001E-01
      5.351  0.2225E-03  0.8003E-01
      5.470  0.3208E-03  0.8007E-01
      5.589  0.4280E-03  0.8011E-01
      5.708  0.5445E-03  0.8017E-01
      5.826  0.6757E-03  0.8024E-01
      5.945  0.8281E-03  0.8033E-01
      6.064  0.1014E-02  0.8044E-01
      6.183  0.1545E-02  0.8059E-01
      6.302  0.1959E-02  0.8080E-01
      6.420  0.2219E-02  0.8105E-01
      6.539  0.2627E-02  0.8133E-01
      6.658  0.5269E-02  0.8177E-01
      6.777  0.5584E-02  0.8249E-01
      6.896  0.4435E-02  0.8305E-01
      7.014  0.4276E-02  0.8357E-01
      7.133  0.4139E-02  0.8407E-01
      7.252  0.4013E-02  0.8455E-01
      7.371  0.3990E-02  0.8503E-01
      7.490  0.3980E-02  0.8550E-01
      7.608  0.3640E-02  0.8596E-01
      7.727  0.3178E-02  0.8636E-01
      7.846  0.3018E-02  0.8672E-01
      7.965  0.2876E-02  0.8707E-01
      8.084  0.2750E-02  0.8741E-01
      8.202  0.2641E-02  0.8773E-01
      8.321  0.2564E-02  0.8804E-01
      8.440  0.2502E-02  0.8834E-01
      8.559  0.2446E-02  0.8863E-01
      8.678  0.2395E-02  0.8892E-01
      8.796  0.2345E-02  0.8920E-01
      8.915  0.2296E-02  0.8948E-01
      9.034  0.2246E-02  0.8975E-01
      9.153  0.2179E-02  0.9001E-01
      9.272  0.2121E-02  0.9026E-01
      9.390  0.2071E-02  0.9051E-01
      9.509  0.2025E-02  0.9076E-01
      9.628  0.1984E-02  0.9099E-01
      9.747  0.1946E-02  0.9123E-01
      9.865  0.1990E-02  0.9146E-01
      9.984  0.2167E-02  0.9171E-01
     10.103  0.2234E-02  0.9197E-01
     10.222  0.2258E-02  0.9224E-01
     10.341  0.2323E-02  0.9251E-01
     10.459  0.2377E-02  0.9279E-01
     10.578  0.2408E-02  0.9307E-01
     10.697  0.2539E-02  0.9336E-01
     10.816  0.2697E-02  0.9367E-01
     10.935  0.2866E-02  0.9401E-01
     11.053  0.3032E-02  0.9436E-01
     11.172  0.3276E-02  0.9474E-01
     11.291  0.2896E-02  0.9511E-01
     11.410  0.2590E-02  0.9543E-01
     11.529  0.2404E-02  0.9573E-01
     11.647  0.2256E-02  0.9600E-01
     11.766  0.2127E-02  0.9626E-01
     11.885  0.1965E-02  0.9651E-01
     12.004  0.1858E-02  0.9673E-01
     12.123  0.1798E-02  0.9695E-01
     12.241  0.1992E-02  0.9717E-01
     12.360  0.2919E-02  0.9745E-01
     12.479  0.4245E-02  0.9788E-01
     12.598  0.6165E-02  0.9852E-01
     12.717  0.6790E-02  0.9928E-01
     12.835  0.8262E-02  0.1002E+00
     12.954  0.9454E-02  0.1012E+00
     13.073  0.1048E-01  0.1024E+00
     13.192  0.1015E-01  0.1036E+00
     13.311  0.9974E-02  0.1048E+00
     13.429  0.1739E-01  0.1062E+00
     13.548  0.1267E-01  0.1078E+00
     13.667  0.9353E-02  0.1091E+00
     13.786  0.6899E-02  0.1100E+00
     13.905  0.5760E-02  0.1108E+00
     14.023  0.5563E-02  0.1114E+00
     14.142  0.5716E-02  0.1121E+00
     14.261  0.5712E-02  0.1128E+00
     14.380  0.4978E-02  0.1134E+00
     14.499  0.4235E-02  0.1140E+00
     14.617  0.3615E-02  0.1144E+00
     14.736  0.3150E-02  0.1148E+00
     14.855  0.3157E-02  0.1152E+00
     14.974  0.3557E-02  0.1156E+00
     15.093  0.4212E-02  0.1161E+00
     15.211  0.3638E-02  0.1166E+00
     15.330  0.3776E-02  0.1170E+00
     15.449  0.4189E-02  0.1175E+00
     15.568  0.4301E-02  0.1180E+00
     15.687  0.3159E-02  0.1185E+00
     15.805  0.2297E-02  0.1188E+00
     15.924  0.1939E-02  0.1190E+00
     16.043  0.1623E-02  0.1193E+00
     16.162  0.1447E-02  0.1194E+00
     16.281  0.1309E-02  0.1196E+00
     16.399  0.1173E-02  0.1197E+00
     16.518  0.7125E-03  0.1199E+00
     16.637  0.5191E-03  0.1199E+00
     16.756  0.2777E-03  0.1200E+00
     16.875  0.2270E-04  0.1200E+00
     16.993  0.4543E-06  0.1200E+00
     17.112  0.0000E+00  0.1200E+00
     17.231  0.0000E+00  0.1200E+00
     17.350  0.0000E+00  0.1200E+00
     17.469  0.0000E+00  0.1200E+00
     17.587  0.0000E+00  0.1200E+00
     17.706  0.0000E+00  0.1200E+00
     17.825  0.0000E+00  0.1200E+00
     17.944  0.0000E+00  0.1200E+00
     18.063  0.0000E+00  0.1200E+00
     18.181  0.0000E+00  0.1200E+00
     18.300  0.0000E+00  0.1200E+00
     18.419  0.0000E+00  0.1200E+00
     18.538  0.0000E+00  0.1200E+00
     18.657  0.0000E+00  0.1200E+00
     18.775  0.0000E+00  0.1200E+00
     18.894  0.0000E+00  0.1200E+00
     19.013  0.0000E+00  0.1200E+00
