    4    4  200    1
  0.8468675E+01  0.2466437E-09  0.2466437E-09  0.6432798E-09  0.5000000E-15
  1.000000000000000E-004
  CAR 
 graphite                                
     16    215     12
 
  0.0000000E+00  0.0000000E+00  0.0000000E+00  0.8680556E-03
    1      -14.626603
    2      -14.213877
    3       -3.637513
    4       -1.216540
    5        2.049448
    6        2.065931
    7        2.078462
    8        2.094024
    9        9.750497
   10       13.379723
   11       13.394021
   12       13.458158
 
  0.8333333E-01  0.0000000E+00  0.0000000E+00  0.3472222E-02
    1      -14.460455
    2      -14.051661
    3       -3.435764
    4       -1.030386
    5        1.398631
    6        1.449084
    7        1.707625
    8        1.750696
    9        9.946004
   10       13.428499
   11       13.544000
   12       14.079564
 
  0.1666667E+00  0.0000000E+00  0.0000000E+00  0.3472222E-02
    1      -13.963831
    2      -13.566761
    3       -2.834721
    4       -0.478910
    5       -0.263660
    6       -0.169383
    7        0.905387
    8        0.966240
    9       10.534347
   10       13.307186
   11       13.553501
   12       14.161599
 
  0.2500000E+00  0.2775558E-16  0.0000000E+00  0.3472222E-02
    1      -13.142655
    2      -12.764865
    3       -2.389575
    4       -2.246366
    5       -1.849411
    6        0.019543
    7        0.091489
    8        0.412163
    9       11.504867
   10       11.913110
   11       12.727222
   12       12.957099
 
  0.3333333E+00  0.0000000E+00  0.0000000E+00  0.3472222E-02
    1      -12.009196
    2      -11.658117
    3       -4.619299
    4       -4.428752
    5       -0.717226
    6       -0.638921
    7       -0.517361
    8        1.569805
    9        9.461758
   10       10.589044
   11       12.504316
   12       12.787528
 
  0.4166667E+00  0.0000000E+00  0.0000000E+00  0.3472222E-02
    1      -10.593669
    2      -10.279400
    3       -6.741157
    4       -6.511502
    5       -1.191765
    6       -1.110261
    7        1.046665
    8        2.724747
    9        7.346338
   10        8.556589
   11       12.282667
   12       12.790613
 
  0.5000000E+00  0.5551115E-16  0.0000000E+00  0.1736111E-02
    1       -9.265754
    2       -9.108610
    3       -8.177104
    4       -8.060184
    5       -1.354617
    6       -1.272044
    7        2.171148
    8        3.025615
    9        6.600680
   10        7.373522
   11       12.189221
   12       12.723036
 
  0.8333333E-01  0.8333333E-01  0.0000000E+00  0.1736111E-02
    1      -14.128844
    2      -13.727879
    3       -3.034046
    4       -0.661185
    5        0.364085
    6        0.411559
    7        1.033504
    8        1.069371
    9       10.340107
   10       13.704540
   11       13.855232
   12       14.710386
 
  0.1666667E+00  0.8333333E-01  0.0000000E+00  0.3472222E-02
    1      -13.469711
    2      -13.084235
    3       -2.239832
    4       -1.375665
    5       -1.276342
    6        0.021061
    7        0.062281
    8        0.086692
    9       11.128624
   10       12.859149
   11       13.442261
   12       13.769058
 
  0.2500000E+00  0.8333333E-01  0.0000000E+00  0.3472222E-02
    1      -12.491994
    2      -12.129491
    3       -3.481014
    4       -3.322953
    5       -1.076678
    6       -0.876832
    7       -0.789447
    8        1.097980
    9       10.573871
   10       11.451750
   11       12.289835
   12       13.456906
 
  0.3333333E+00  0.8333333E-01  0.0000000E+00  0.3472222E-02
    1      -11.214482
    2      -10.882809
    3       -5.630511
    4       -5.423792
    5       -1.517457
    6       -1.420290
    7        0.393733
    8        2.317145
    9        8.273009
   10        9.402533
   11       13.093476
   12       13.530096
 
  0.4166667E+00  0.8333333E-01  0.0000000E+00  0.3472222E-02
    1       -9.707469
    2       -9.431393
    3       -7.581230
    4       -7.355545
    5       -1.848741
    6       -1.747648
    7        1.931868
    8        3.165798
    9        6.729442
   10        7.646815
   11       12.921222
   12       13.469579
 
  0.5000000E+00  0.8333333E-01  0.0000000E+00  0.3472222E-02
    1       -9.709873
    2       -9.433662
    3       -7.578527
    4       -7.352599
    5       -1.849610
    6       -1.748480
    7        1.930314
    8        3.165630
    9        6.728737
   10        7.649229
   11       12.922209
   12       13.470578
 
 -0.4166667E+00  0.8333333E-01  0.0000000E+00  0.3472222E-02
    1      -11.216667
    2      -10.884963
    3       -5.627016
    4       -5.420192
    5       -1.519880
    6       -1.422626
    7        0.391834
    8        2.315663
    9        8.272911
   10        9.405560
   11       13.096321
   12       13.531350
 
 -0.3333333E+00  0.8333333E-01  0.0000000E+00  0.3472222E-02
    1      -12.493697
    2      -12.131184
    3       -3.477688
    4       -3.319526
    5       -1.078316
    6       -0.880040
    7       -0.792564
    8        1.096454
    9       10.572429
   10       11.454566
   11       12.287563
   12       13.461416
 
 -0.2500000E+00  0.8333333E-01  0.0000000E+00  0.3472222E-02
    1      -13.470920
    2      -13.085439
    3       -2.241062
    4       -1.374709
    5       -1.275322
    6        0.019920
    7        0.061091
    8        0.085344
    9       11.126914
   10       12.855278
   11       13.444625
   12       13.774871
 
 -0.1666667E+00  0.8333333E-01  0.0000000E+00  0.3472222E-02
    1      -14.129570
    2      -13.728598
    3       -3.034806
    4       -0.661933
    5        0.355951
    6        0.404600
    7        1.040918
    8        1.076756
    9       10.339027
   10       13.711413
   11       13.863849
   12       14.765862
 
 -0.8333333E-01  0.8333333E-01  0.0000000E+00  0.1736111E-02
    1      -14.460698
    2      -14.051898
    3       -3.436016
    4       -1.030640
    5        1.385811
    6        1.436750
    7        1.720500
    8        1.763193
    9        9.945627
   10       13.432689
   11       13.548564
   12       14.096170
 
  0.1666667E+00  0.1666667E+00  0.0000000E+00  0.1736111E-02
    1      -12.654000
    2      -12.287684
    3       -2.701244
    4       -2.622988
    5       -1.334878
    6       -1.277639
    7       -1.265161
    8        0.936906
    9       11.117740
   10       11.734397
   11       12.117063
   12       14.942858
 
  0.2500000E+00  0.1666667E+00  0.0000000E+00  0.3472222E-02
    1      -11.530934
    2      -11.191320
    3       -4.465495
    4       -4.317170
    5       -2.416719
    6       -2.312825
    7        0.053106
    8        2.080915
    9        9.091507
   10        9.880859
   11       13.466839
   12       15.034666
 
  0.3333333E+00  0.1666667E+00  0.0000000E+00  0.3472222E-02
    1      -10.134708
    2       -9.832270
    3       -6.406685
    4       -6.198800
    5       -3.008830
    6       -2.877853
    7        1.611303
    8        3.265205
    9        7.170441
   10        8.084545
   11       14.743680
   12       15.120146
 
  0.4166667E+00  0.1666667E+00  0.0000000E+00  0.3472222E-02
    1       -8.839962
    2       -8.688696
    3       -7.773010
    4       -7.670031
    5       -3.198556
    6       -3.061200
    7        2.767894
    8        3.603322
    9        6.550012
   10        6.861801
   11       14.664347
   12       15.349330
 
  0.5000000E+00  0.1666667E+00  0.0000000E+00  0.3472222E-02
    1      -10.139480
    2       -9.836997
    3       -6.400356
    4       -6.192142
    5       -3.011360
    6       -2.880242
    7        1.607601
    8        3.262923
    9        7.168312
   10        8.091456
   11       14.746245
   12       15.114231
 
 -0.4166667E+00  0.1666667E+00  0.0000000E+00  0.3472222E-02
    1      -11.534823
    2      -11.195203
    3       -4.459788
    4       -4.311005
    5       -2.420065
    6       -2.315992
    7        0.049587
    8        2.077641
    9        9.087603
   10        9.887818
   11       13.461497
   12       15.040762
 
 -0.3333333E+00  0.1666667E+00  0.0000000E+00  0.3472222E-02
    1      -12.656913
    2      -12.290584
    3       -2.702880
    4       -2.622776
    5       -1.333014
    6       -1.274816
    7       -1.268005
    8        0.934086
    9       11.109982
   10       11.739989
   11       12.113092
   12       14.962567
 
 -0.2500000E+00  0.1666667E+00  0.0000000E+00  0.3472222E-02
    1      -13.471642
    2      -13.086157
    3       -2.241805
    4       -1.385826
    5       -1.285395
    6        0.031827
    7        0.060297
    8        0.097793
    9       11.125971
   10       12.850290
   11       13.443909
   12       13.794638
 
 -0.1666667E+00  0.1666667E+00  0.0000000E+00  0.1736111E-02
    1      -13.964796
    2      -13.567718
    3       -2.835726
    4       -0.479926
    5       -0.277118
    6       -0.182384
    7        0.919970
    8        0.980715
    9       10.532987
   10       13.325766
   11       13.571162
   12       14.154887
 
  0.2500000E+00  0.2500000E+00  0.0000000E+00  0.1736111E-02
    1      -10.284849
    2       -9.976806
    3       -5.487601
    4       -5.380203
    5       -3.884671
    6       -3.805527
    7        1.486238
    8        3.274499
    9        7.483697
   10        8.245868
   11       14.949293
   12       17.012990
 
  0.3333333E+00  0.2500000E+00  0.0000000E+00  0.3472222E-02
    1       -8.834825
    2       -8.581591
    3       -6.938175
    4       -6.767219
    5       -4.624525
    6       -4.489204
    7        3.046284
    8        4.287260
    9        6.087910
   10        6.764753
   11       16.523150
   12       16.766191
 
  0.4166667E+00  0.2500000E+00  0.0000000E+00  0.3472222E-02
    1       -8.842118
    2       -8.588641
    3       -6.930871
    4       -6.758429
    5       -4.625562
    6       -4.490029
    7        3.041777
    8        4.286411
    9        6.080313
   10        6.775966
   11       16.514132
   12       16.760596
 
  0.5000000E+00  0.2500000E+00  0.0000000E+00  0.3472222E-02
    1      -10.291409
    2       -9.983408
    3       -5.484045
    4       -5.374122
    5       -3.883831
    6       -3.803105
    7        1.481015
    8        3.269167
    9        7.477293
   10        8.256705
   11       14.940060
   12       16.864242
 
 -0.4166667E+00  0.2500000E+00  0.0000000E+00  0.3472222E-02
    1      -11.536046
    2      -11.196443
    3       -4.469883
    4       -4.320108
    5       -2.408294
    6       -2.303566
    7        0.048491
    8        2.075914
    9        9.083146
   10        9.887019
   11       13.460139
   12       15.071890
 
 -0.3333333E+00  0.2500000E+00  0.0000000E+00  0.3472222E-02
    1      -12.495630
    2      -12.133117
    3       -3.490409
    4       -3.331747
    5       -1.080205
    6       -0.863414
    7       -0.775954
    8        1.094170
    9       10.564505
   10       11.451866
   11       12.285516
   12       13.490094
 
 -0.2500000E+00  0.2500000E+00  0.0000000E+00  0.1736111E-02
    1      -13.144825
    2      -12.767024
    3       -2.402322
    4       -2.258720
    5       -1.851606
    6        0.035824
    7        0.107613
    8        0.409811
    9       11.502245
   10       11.903862
   11       12.724767
   12       12.984603
 
  0.3333333E+00  0.3333333E+00  0.0000000E+00  0.1736111E-02
    1       -7.632993
    2       -7.498254
    3       -7.495779
    4       -7.363051
    5       -5.445188
    6       -5.443908
    7        4.252229
    8        5.009365
    9        5.020540
   10        5.970527
   11       16.378817
   12       16.406337
 
  0.4166667E+00  0.3333333E+00  0.0000000E+00  0.3472222E-02
    1       -8.844709
    2       -8.592087
    3       -6.936096
    4       -6.763849
    5       -4.616868
    6       -4.480562
    7        3.041819
    8        4.276345
    9        6.084329
   10        6.776247
   11       16.517559
   12       16.791956
 
  0.5000000E+00  0.3333333E+00  0.0000000E+00  0.3472222E-02
    1      -10.142652
    2       -9.840399
    3       -6.410010
    4       -6.201617
    5       -2.996405
    6       -2.865236
    7        1.605705
    8        3.256190
    9        7.165674
   10        8.089051
   11       14.777130
   12       15.121276
 
 -0.4166667E+00  0.3333333E+00  0.0000000E+00  0.3472222E-02
    1      -11.220367
    2      -10.888753
    3       -5.637978
    4       -5.430916
    5       -1.501950
    6       -1.404818
    7        0.388723
    8        2.310332
    9        8.266300
   10        9.400747
   11       13.126761
   12       13.556140
 
 -0.3333333E+00  0.3333333E+00  0.0000000E+00  0.1736111E-02
    1      -12.013080
    2      -11.662015
    3       -4.630186
    4       -4.439338
    5       -0.699617
    6       -0.621449
    7       -0.520993
    8        1.565245
    9        9.453173
   10       10.584539
   11       12.528043
   12       12.804021
 
  0.4166667E+00  0.4166667E+00  0.0000000E+00  0.1736111E-02
    1       -8.849377
    2       -8.701519
    3       -7.773086
    4       -7.672329
    5       -3.184066
    6       -3.046702
    7        2.768564
    8        3.584286
    9        6.557362
   10        6.857024
   11       14.701297
   12       15.387158
 
  0.5000000E+00  0.4166667E+00  0.0000000E+00  0.3472222E-02
    1       -9.716609
    2       -9.441366
    3       -7.585100
    4       -7.359759
    5       -1.831713
    6       -1.730698
    7        1.928138
    8        3.151306
    9        6.730873
   10        7.641415
   11       12.956705
   12       13.505196
 
 -0.4166667E+00  0.4166667E+00  0.0000000E+00  0.1736111E-02
    1      -10.599957
    2      -10.285922
    3       -6.749176
    4       -6.519458
    5       -1.173330
    6       -1.091953
    7        1.042233
    8        2.715297
    9        7.342721
   10        8.550097
   11       12.315952
   12       12.823806
 
  0.5000000E+00  0.5000000E+00  0.0000000E+00  0.8680556E-03
    1       -9.275922
    2       -9.122293
    3       -8.178244
    4       -8.063755
    5       -1.335896
    6       -1.253464
    7        2.171315
    8        3.005522
    9        6.607641
   10        7.361677
   11       12.223401
   12       12.757172
 
  0.0000000E+00  0.0000000E+00  0.1250000E+00  0.1736111E-02
    1      -14.612157
    2      -14.231022
    3       -3.560731
    4       -1.333238
    5        2.050554
    6        2.067000
    7        2.077261
    8        2.092862
    9        9.972983
   10       13.385791
   11       13.398433
   12       13.453327
 
  0.8333333E-01  0.0000000E+00  0.1250000E+00  0.6944444E-02
    1      -14.446124
    2      -14.068628
    3       -3.359441
    4       -1.146146
    5        1.400545
    6        1.447139
    7        1.709266
    8        1.749004
    9       10.166457
   10       13.430951
   11       13.539940
   12       14.099687
 
  0.1666667E+00  0.0000000E+00  0.1250000E+00  0.6944444E-02
    1      -13.949878
    2      -13.583185
    3       -2.759816
    4       -0.591820
    5       -0.259975
    6       -0.173038
    7        0.907660
    8        0.963912
    9       10.747859
   10       13.309920
   11       13.542251
   12       14.185846
 
  0.2500000E+00  0.2775558E-16  0.1250000E+00  0.6944444E-02
    1      -13.129322
    2      -12.780414
    3       -2.384249
    4       -2.252093
    5       -1.776828
    6        0.022236
    7        0.088779
    8        0.305161
    9       11.665602
   10       11.978279
   11       12.681618
   12       12.973168
 
  0.3333333E+00  0.0000000E+00  0.1250000E+00  0.6944444E-02
    1      -11.996722
    2      -11.672463
    3       -4.612348
    4       -4.436285
    5       -0.714256
    6       -0.641878
    7       -0.449321
    8        1.473754
    9        9.490918
   10       10.534855
   11       12.541846
   12       12.845946
 
  0.4166667E+00  0.0000000E+00  0.1250000E+00  0.6944444E-02
    1      -10.582400
    2      -10.292113
    3       -6.732887
    4       -6.520740
    5       -1.188689
    6       -1.113318
    7        1.106085
    8        2.657301
    9        7.367713
   10        8.490417
   11       12.301816
   12       12.771407
 
  0.5000000E+00  0.5551115E-16  0.1250000E+00  0.3472222E-02
    1       -9.258500
    2       -9.112789
    3       -8.175652
    4       -8.067064
    5       -1.351502
    6       -1.275166
    7        2.215241
    8        3.012771
    9        6.583556
   10        7.306064
   11       12.208532
   12       12.702067
 
  0.8333333E-01  0.8333333E-01  0.1250000E+00  0.3472222E-02
    1      -14.114764
    2      -13.744478
    3       -2.958650
    4       -0.774969
    5        0.366069
    6        0.409925
    7        1.034651
    8        1.067821
    9       10.556434
   10       13.703664
   11       13.849097
   12       14.734340
 
  0.1666667E+00  0.8333333E-01  0.1250000E+00  0.6944444E-02
    1      -13.456126
    2      -13.100130
    3       -2.166437
    4       -1.371901
    5       -1.280054
    6       -0.047220
    7        0.023441
    8        0.084066
    9       11.334279
   10       12.876905
   11       13.408031
   12       13.783748
 
  0.2500000E+00  0.8333333E-01  0.1250000E+00  0.6944444E-02
    1      -12.479152
    2      -12.144352
    3       -3.475186
    4       -3.329176
    5       -1.006526
    6       -0.873566
    7       -0.792876
    8        0.996199
    9       10.597504
   10       11.412077
   11       12.484607
   12       13.472991
 
  0.3333333E+00  0.8333333E-01  0.1250000E+00  0.6944444E-02
    1      -11.202649
    2      -10.896300
    3       -5.622968
    4       -5.432002
    5       -1.513849
    6       -1.424052
    7        0.457989
    8        2.231798
    9        8.302357
   10        9.348753
   11       13.116227
   12       13.533812
 
  0.4166667E+00  0.8333333E-01  0.1250000E+00  0.6944444E-02
    1       -9.697375
    2       -9.442297
    3       -7.573429
    4       -7.364885
    5       -1.844987
    6       -1.751575
    7        1.983028
    8        3.129794
    9        6.728629
   10        7.585577
   11       12.940611
   12       13.447458
 
  0.5000000E+00  0.8333333E-01  0.1250000E+00  0.6944444E-02
    1       -9.699771
    2       -9.444572
    3       -7.570708
    4       -7.361942
    5       -1.845842
    6       -1.752397
    7        1.981496
    8        3.129532
    9        6.728091
   10        7.587872
   11       12.941595
   12       13.448446
 
 -0.4166667E+00  0.8333333E-01  0.1250000E+00  0.6944444E-02
    1      -11.204827
    2      -10.898468
    3       -5.619473
    4       -5.428407
    5       -1.516275
    6       -1.426389
    7        0.456099
    8        2.230281
    9        8.302407
   10        9.351653
   11       13.119069
   12       13.535632
 
 -0.3333333E+00  0.8333333E-01  0.1250000E+00  0.6944444E-02
    1      -12.480854
    2      -12.146045
    3       -3.471856
    4       -3.325724
    5       -1.008169
    6       -0.876740
    7       -0.795998
    8        0.994666
    9       10.596288
   10       11.414723
   11       12.482246
   12       13.477457
 
 -0.2500000E+00  0.8333333E-01  0.1250000E+00  0.6944444E-02
    1      -13.457339
    2      -13.101335
    3       -2.167663
    4       -1.370933
    5       -1.279038
    6       -0.048403
    7        0.022291
    8        0.082718
    9       11.332593
   10       12.873297
   11       13.410291
   12       13.789488
 
 -0.1666667E+00  0.8333333E-01  0.1250000E+00  0.6944444E-02
    1      -14.115491
    2      -13.745199
    3       -2.959407
    4       -0.775715
    5        0.358026
    6        0.402933
    7        1.042070
    8        1.075212
    9       10.555351
   10       13.710572
   11       13.857674
   12       14.713810
 
 -0.8333333E-01  0.8333333E-01  0.1250000E+00  0.3472222E-02
    1      -14.446367
    2      -14.068868
    3       -3.359696
    4       -1.146399
    5        1.387738
    6        1.434833
    7        1.722121
    8        1.761514
    9       10.166076
   10       13.435144
   11       13.544508
   12       14.095615
 
  0.1666667E+00  0.1666667E+00  0.1250000E+00  0.3472222E-02
    1      -12.641034
    2      -12.302733
    3       -2.698095
    4       -2.625802
    5       -1.333211
    6       -1.280258
    7       -1.194287
    8        0.833442
    9       11.140344
   10       11.705002
   11       12.315531
   12       14.951150
 
  0.2500000E+00  0.1666667E+00  0.1250000E+00  0.6944444E-02
    1      -11.518841
    2      -11.205176
    3       -4.459926
    4       -4.322856
    5       -2.413134
    6       -2.317121
    7        0.119493
    8        1.988149
    9        9.119332
   10        9.848789
   11       13.633935
   12       15.049378
 
  0.3333333E+00  0.1666667E+00  0.1250000E+00  0.6944444E-02
    1      -10.123844
    2       -9.844466
    3       -6.399138
    4       -6.207108
    5       -3.004064
    6       -2.883093
    7        1.669536
    8        3.197994
    9        7.192687
   10        8.041429
   11       14.770688
   12       15.167569
 
  0.4166667E+00  0.1666667E+00  0.1250000E+00  0.6944444E-02
    1       -8.833012
    2       -8.692768
    3       -7.771826
    4       -7.676183
    5       -3.193569
    6       -3.066652
    7        2.811981
    8        3.592700
    9        6.523327
   10        6.824640
   11       14.682702
   12       15.312872
 
  0.5000000E+00  0.1666667E+00  0.1250000E+00  0.6944444E-02
    1      -10.128601
    2       -9.849198
    3       -6.392795
    4       -6.200425
    5       -3.006579
    6       -2.885481
    7        1.665853
    8        3.195591
    9        7.190979
   10        8.047971
   11       14.773312
   12       15.162173
 
 -0.4166667E+00  0.1666667E+00  0.1250000E+00  0.6944444E-02
    1      -11.522726
    2      -11.209057
    3       -4.454189
    4       -4.316707
    5       -2.416470
    6       -2.320288
    7        0.115979
    8        1.984856
    9        9.115828
   10        9.855278
   11       13.628422
   12       15.055389
 
 -0.3333333E+00  0.1666667E+00  0.1250000E+00  0.6944444E-02
    1      -12.643947
    2      -12.305634
    3       -2.699669
    4       -2.625674
    5       -1.331314
    6       -1.277469
    7       -1.197123
    8        0.830617
    9       11.133035
   10       11.710008
   11       12.311558
   12       14.970646
 
 -0.2500000E+00  0.1666667E+00  0.1250000E+00  0.6944444E-02
    1      -13.458061
    2      -13.102058
    3       -2.168408
    4       -1.382013
    5       -1.289164
    6       -0.049199
    7        0.034225
    8        0.095151
    9       11.331581
   10       12.868749
   11       13.409709
   12       13.808834
 
 -0.1666667E+00  0.1666667E+00  0.1250000E+00  0.3472222E-02
    1      -13.950845
    2      -13.584143
    3       -2.760823
    4       -0.592835
    5       -0.273429
    6       -0.186054
    7        0.922234
    8        0.978282
    9       10.746487
   10       13.328363
   11       13.559824
   12       14.179398
 
  0.2500000E+00  0.2500000E+00  0.1250000E+00  0.3472222E-02
    1      -10.273801
    2       -9.989260
    3       -5.483195
    4       -5.383944
    5       -3.882619
    6       -3.809454
    7        1.546698
    8        3.196390
    9        7.513188
   10        8.215574
   11       15.037212
   12       16.694649
 
  0.3333333E+00  0.2500000E+00  0.1250000E+00  0.6944444E-02
    1       -8.825500
    2       -8.591534
    3       -6.932019
    4       -6.774021
    5       -4.620031
    6       -4.494984
    7        3.096721
    8        4.250517
    9        6.100638
   10        6.725873
   11       16.203080
   12       16.437932
 
  0.4166667E+00  0.2500000E+00  0.1250000E+00  0.6944444E-02
    1       -8.832789
    2       -8.598600
    3       -6.924655
    4       -6.765290
    5       -4.621059
    6       -4.495817
    7        3.092222
    8        4.249281
    9        6.093871
   10        6.736538
   11       16.189938
   12       16.444872
 
  0.5000000E+00  0.2500000E+00  0.1250000E+00  0.6944444E-02
    1      -10.280362
    2       -9.995861
    3       -5.479554
    4       -5.377967
    5       -3.881716
    6       -3.807083
    7        1.541468
    8        3.191052
    9        7.507312
   10        8.225652
   11       15.027625
   12       16.709401
 
 -0.4166667E+00  0.2500000E+00  0.1250000E+00  0.6944444E-02
    1      -11.523950
    2      -11.210295
    3       -4.464264
    4       -4.325854
    5       -2.404669
    6       -2.307887
    7        0.114872
    8        1.983178
    9        9.111350
   10        9.854230
   11       13.627373
   12       15.086344
 
 -0.3333333E+00  0.2500000E+00  0.1250000E+00  0.6944444E-02
    1      -12.482786
    2      -12.147978
    3       -3.484559
    4       -3.337991
    5       -1.010060
    6       -0.860141
    7       -0.779384
    8        0.992414
    9       10.588311
   10       11.411737
   11       12.480792
   12       13.506024
 
 -0.2500000E+00  0.2500000E+00  0.1250000E+00  0.3472222E-02
    1      -13.131493
    2      -12.782575
    3       -2.396984
    4       -2.264455
    5       -1.779032
    6        0.038508
    7        0.104903
    8        0.302820
    9       11.661275
   10       11.971342
   11       12.679297
   12       13.000403
 
  0.3333333E+00  0.3333333E+00  0.1250000E+00  0.3472222E-02
    1       -7.623312
    2       -7.497583
    3       -7.495213
    4       -7.373888
    5       -5.446536
    6       -5.445352
    7        4.309061
    8        5.017620
    9        5.027978
   10        5.893258
   11       16.079623
   12       16.101931
 
  0.4166667E+00  0.3333333E+00  0.1250000E+00  0.6944444E-02
    1       -8.835404
    2       -8.602002
    3       -6.929906
    4       -6.770719
    5       -4.612328
    6       -4.486372
    7        3.092120
    8        4.239997
    9        6.097246
   10        6.736621
   11       16.188212
   12       16.463358
 
  0.5000000E+00  0.3333333E+00  0.1250000E+00  0.6944444E-02
    1      -10.131780
    2       -9.852590
    3       -6.402448
    4       -6.209941
    5       -2.991630
    6       -2.870479
    7        1.663879
    8        3.189239
    9        7.187973
   10        8.045285
   11       14.806030
   12       15.173555
 
 -0.4166667E+00  0.3333333E+00  0.1250000E+00  0.6944444E-02
    1      -11.208530
    2      -10.902237
    3       -5.630419
    4       -5.439140
    5       -1.498342
    6       -1.408573
    7        0.452952
    8        2.225127
    9        8.295580
   10        9.346562
   11       13.150127
   12       13.563522
 
 -0.3333333E+00  0.3333333E+00  0.1250000E+00  0.3472222E-02
    1      -12.000599
    2      -11.676371
    3       -4.623229
    4       -4.446884
    5       -0.696652
    6       -0.624388
    7       -0.452970
    8        1.469272
    9        9.482252
   10       10.530054
   11       12.569184
   12       12.866561
 
  0.4166667E+00  0.4166667E+00  0.1250000E+00  0.3472222E-02
    1       -8.842539
    2       -8.705468
    3       -7.771996
    4       -7.678424
    5       -3.179091
    6       -3.052153
    7        2.812250
    8        3.574641
    9        6.529798
   10        6.819764
   11       14.719664
   12       15.350140
 
  0.5000000E+00  0.4166667E+00  0.1250000E+00  0.6944444E-02
    1       -9.706526
    2       -9.452233
    3       -7.577317
    4       -7.369080
    5       -1.827959
    6       -1.734620
    7        1.979106
    8        3.115993
    9        6.729351
   10        7.580012
   11       12.976097
   12       13.483004
 
 -0.4166667E+00  0.4166667E+00  0.1250000E+00  0.3472222E-02
    1      -10.588708
    2      -10.298616
    3       -6.740904
    4       -6.528692
    5       -1.170245
    6       -1.095005
    7        1.101573
    8        2.648231
    9        7.363615
   10        8.483769
   11       12.335199
   12       12.804600
 
  0.5000000E+00  0.5000000E+00  0.1250000E+00  0.1736111E-02
    1       -9.268762
    2       -9.126329
    3       -8.176889
    4       -8.070566
    5       -1.332786
    6       -1.256570
    7        2.214982
    8        2.993709
    9        6.589376
   10        7.294427
   11       12.242709
   12       12.736224
 
  0.0000000E+00  0.0000000E+00  0.2500000E+00  0.1736111E-02
    1      -14.570503
    2      -14.279123
    3       -3.337815
    4       -1.649060
    5        2.053673
    6        2.070021
    7        2.074133
    8        2.089833
    9       10.604722
   10       13.391914
   11       13.402487
   12       13.447591
 
  0.8333333E-01  0.0000000E+00  0.2500000E+00  0.6944444E-02
    1      -14.404852
    2      -14.116228
    3       -3.137834
    4       -1.459642
    5        1.405977
    6        1.441643
    7        1.713882
    8        1.744262
    9       10.791994
   10       13.436830
   11       13.529026
   12       14.089561
 
  0.1666667E+00  0.0000000E+00  0.2500000E+00  0.6944444E-02
    1      -13.909689
    2      -13.629319
    3       -2.542260
    4       -0.897855
    5       -0.249776
    6       -0.183351
    7        0.914201
    8        0.957262
    9       11.351818
   10       13.318298
   11       13.514317
   12       14.251747
 
  0.2500000E+00  0.2775558E-16  0.2500000E+00  0.6944444E-02
    1      -13.090939
    2      -12.824128
    3       -2.369200
    4       -2.268128
    5       -1.566446
    6        0.013759
    7        0.029969
    8        0.080925
    9       11.909724
   10       12.359679
   11       12.564383
   12       13.016863
 
  0.3333333E+00  0.0000000E+00  0.2500000E+00  0.6944444E-02
    1      -11.960852
    2      -11.712874
    3       -4.592404
    4       -4.457660
    5       -0.705830
    6       -0.650452
    7       -0.252066
    8        1.210353
    9        9.582974
   10       10.385928
   11       12.610696
   12       12.885848
 