32   
4    

1    
  0.0035800324135267  -0.0000013929212998   0.0093372033274353
  -0.2319089900    0.0080211100   -0.1310822700
   0.0290687100    0.0069565600   -0.0007083100
  -0.0091720800   -0.0151350200   -0.0006372000
  -0.0092900200    0.0291849700   -0.0008648400
  -0.0125721100    0.0068242400    0.0059144000
  -0.0125250400    0.0068257500    0.0059783500
  -0.0125459800    0.0068127900    0.0059782700
  -0.0125444900    0.0068362100    0.0059787300
   0.0118491700   -0.0073167500   -0.0060417300
   0.0115294200   -0.0074233900   -0.0061605100
   0.0117797700   -0.0070875500   -0.0060984300
   0.0115691000   -0.0072917400   -0.0051591100
   0.0121961500   -0.0062495000   -0.0062172100
   0.0124765200   -0.0063331000   -0.0061070300
   0.0124051200   -0.0065462600   -0.0061647000
   0.0122012700   -0.0063913800   -0.0050062700
   0.0079049200   -0.0055388400    0.0117553900
   0.0363486500   -0.0062511800    0.0457414400
   0.0833414100    0.0214726100    0.0461719400
   0.0836410400   -0.0328868300    0.0452292600
   0.0100505400   -0.0054326500   -0.0009003600
   0.0100523500   -0.0054321200   -0.0008691400
   0.0100523000   -0.0054331300   -0.0008697500
   0.0100521100   -0.0054329700   -0.0008657000
  -0.0099464000    0.0060797800    0.0016223500
  -0.0089742400    0.0062281100    0.0016855500
  -0.0095899300    0.0053294500    0.0016620700
  -0.0093541700    0.0058725500    0.0005752500
  -0.0091115400    0.0046232400    0.0016825900
  -0.0099040600    0.0047827900    0.0015882600
  -0.0096493100    0.0053959900    0.0016075100
  -0.0094301900    0.0049362600    0.0005811800

1    
 -0.0035800324135267   0.0000013929212998  -0.0093372033274353
   0.2079474000    0.0078873900    0.1311742200
  -0.0530365100    0.0068204000    0.0008122600
  -0.0146819800    0.0289905400    0.0008818700
  -0.0147893900   -0.0153314400    0.0008286900
  -0.0118101600    0.0070728300   -0.0058306400
  -0.0118562700    0.0070724500   -0.0058967600
  -0.0118363600    0.0070833800   -0.0058968500
  -0.0118361500    0.0070602400   -0.0058969700
   0.0116484500   -0.0075362000    0.0060134400
   0.0119392000   -0.0074366100    0.0061252900
   0.0117110900   -0.0077407700    0.0060665800
   0.0119163300   -0.0075514000    0.0049104000
   0.0125416700   -0.0067600100    0.0060616900
   0.0122354100   -0.0066736400    0.0059439500
   0.0123156000   -0.0064359300    0.0060068000
   0.0125060900   -0.0066020200    0.0050581000
   0.0110854300   -0.0054446300   -0.0117624200
  -0.0173624900   -0.0059383400   -0.0457504400
  -0.0648411700   -0.0328377400   -0.0453065900
  -0.0641641200    0.0215171000   -0.0461091800
   0.0093399100   -0.0055941000    0.0008940000
   0.0093376500   -0.0055941100    0.0008626800
   0.0093380400   -0.0055938000    0.0008623500
   0.0093385600   -0.0055945300    0.0008600300
  -0.0092128800    0.0059790900   -0.0015861200
  -0.0100199100    0.0058317700   -0.0016491700
  -0.0094855700    0.0065846000   -0.0016306700
  -0.0097149500    0.0061383200   -0.0005685700
  -0.0101259800    0.0055139000   -0.0017082800
  -0.0091741100    0.0053572300   -0.0015900000
  -0.0095131800    0.0046010600   -0.0016127100
  -0.0097396600    0.0051549400   -0.0005669700

17   
  0.0035800324135267  -0.0000013929212998   0.0093372033274353
  -0.0140174300    0.0069736500    0.0068278500
   0.0144302500    0.0074905700    0.0408175600
   0.0618969000    0.0343429200    0.0403705300
   0.0612479400   -0.0199979200    0.0411744500
  -0.0120804000    0.0071324700   -0.0058325900
  -0.0120785400    0.0071334400   -0.0058013400
  -0.0120795900    0.0071324600   -0.0058043900
  -0.0120783400    0.0071322600   -0.0057951200
   0.0120659400   -0.0076537100    0.0064266400
   0.0123007300   -0.0075462800    0.0067351600
   0.0120973600   -0.0077339100    0.0065745800
   0.0122749400   -0.0076387800    0.0055098100
   0.0123134000   -0.0066952100    0.0067472900
   0.0121004900   -0.0064791100    0.0063719800
   0.0120268100   -0.0064721100    0.0065442400
   0.0123055600   -0.0065596700    0.0054989700
  -0.2100279100   -0.0063865100   -0.1359147900
   0.0506350100   -0.0053389900   -0.0064511700
   0.0132494900   -0.0269482300   -0.0065164600
   0.0133584700    0.0162831800   -0.0064903100
   0.0094439000   -0.0056490800    0.0010455700
   0.0094304800   -0.0056486500    0.0007727300
   0.0094357800   -0.0056462200    0.0007727400
   0.0094358700   -0.0056529500    0.0007746100
  -0.0102071800    0.0062497600   -0.0004403300
  -0.0098153300    0.0062046400   -0.0003533000
  -0.0099666800    0.0059014800   -0.0004310100
  -0.0100615800    0.0060999700   -0.0009286600
  -0.0091942200    0.0049020600   -0.0002981100
  -0.0095942800    0.0048460600   -0.0005133400
  -0.0093401200    0.0052136100   -0.0004445600
  -0.0095077300    0.0050088300   -0.0009492300

17   
 -0.0035800324135267   0.0000013929212998  -0.0093372033274353
  -0.0098307800    0.0068821700   -0.0068218200
  -0.0382753100    0.0075890400   -0.0408038500
  -0.0852834700   -0.0201273200   -0.0412375500
  -0.0855542000    0.0342215000   -0.0402942000
  -0.0131818800    0.0067458400    0.0058335300
  -0.0131836300    0.0067470200    0.0058024800
  -0.0131843400    0.0067452200    0.0057993000
  -0.0131832700    0.0067460500    0.0058028900
   0.0125501200   -0.0076217000   -0.0064147600
   0.0123259000   -0.0077133300   -0.0067353200
   0.0125113900   -0.0075300400   -0.0065632300
   0.0123328800   -0.0076266300   -0.0055209800
   0.0122993300   -0.0063865200   -0.0067533000
   0.0125125100   -0.0066247700   -0.0064137800
   0.0126062700   -0.0066270600   -0.0065737100
   0.0123303700   -0.0065376700   -0.0055047700
   0.2289060400   -0.0065845800    0.1358838200
  -0.0317342100   -0.0055133700    0.0064650700
   0.0055315400    0.0160163500    0.0063981900
   0.0056460500   -0.0271981100    0.0066399800
   0.0108314300   -0.0053650800   -0.0010302400
   0.0108422000   -0.0053646800   -0.0007564700
   0.0108376800   -0.0053679900   -0.0007566300
   0.0108374400   -0.0053621300   -0.0007580400
  -0.0100496300    0.0061512100    0.0004420500
  -0.0104384000    0.0062189800    0.0003557600
  -0.0103075900    0.0065162700    0.0004243100
  -0.0101991700    0.0063127900    0.0009122300
  -0.0098511900    0.0052727000    0.0002874000
  -0.0094485300    0.0052899400    0.0005068200
  -0.0096694800    0.0049459100    0.0004314300
  -0.0095260600    0.0051499900    0.0009533900
