 running on    6 total cores
 distrk:  each k-point on    6 cores,    1 groups
 distr:  one band on    3 cores,    2 groups
 using from now: INCAR     
 vasp.5.3.5 31Mar14 (build Nov 02 2014 15:17:37) complex                        
  
 POSCAR found type information on POSCAR  C 
 POSCAR found :  1 types and       4 ions
 scaLAPACK will be used
 LDA part: xc-table for Pade appr. of Perdew
 POSCAR, INCAR and KPOINTS ok, starting setup
 WARNING: small aliasing (wrap around) errors must be expected
 FFT: planning ...
 WAVECAR not read
 WARNING: random wavefunctions but no delay for mixing, default for NELMDL
 entering main loop
       N       E                     dE             d eps       ncg     rms          rms(c)
DAV:   1     0.681792503875E+02    0.68179E+02   -0.10621E+04  5160   0.174E+03
DAV:   2    -0.344351997731E+02   -0.10261E+03   -0.94430E+02  7256   0.266E+02
DAV:   3    -0.390859404359E+02   -0.46507E+01   -0.46111E+01  6660   0.569E+01
DAV:   4    -0.391426310268E+02   -0.56691E-01   -0.56609E-01  6356   0.720E+00
DAV:   5    -0.391438222278E+02   -0.11912E-02   -0.11910E-02  6376   0.100E+00    0.780E+00
DAV:   6    -0.373653446634E+02    0.17785E+01   -0.17632E+00  5932   0.933E+00    0.409E+00
DAV:   7    -0.368064215129E+02    0.55892E+00   -0.17952E+00  6168   0.955E+00    0.673E-01
DAV:   8    -0.368136735623E+02   -0.72520E-02   -0.46968E-02  5924   0.149E+00    0.856E-02
DAV:   9    -0.368138471024E+02   -0.17354E-03   -0.10774E-03  6500   0.281E-01    0.377E-02
DAV:  10    -0.368139502459E+02   -0.10314E-03   -0.11448E-04  6332   0.969E-02    0.543E-03
DAV:  11    -0.368139505466E+02   -0.30068E-06   -0.27113E-06  6564   0.140E-02    0.169E-03
DAV:  12    -0.368139503871E+02    0.15948E-06   -0.55536E-07  6460   0.641E-03    0.475E-04
DAV:  13    -0.368139504849E+02   -0.97851E-07   -0.36804E-08  6528   0.166E-03    0.945E-05
DAV:  14    -0.368139504793E+02    0.56233E-08   -0.48340E-10  4228   0.231E-04
   1 F= -.37471165E+02 E0= -.37471165E+02  d E =-.374712E+02
 curvature:   0.00 expect dE= 0.000E+00 dE for cont linesearch  0.000E+00
 trial: gam= 0.00000 g(F)=  0.319E-04 g(S)=  0.000E+00 ort = 0.000E+00 (trialstep = 0.100E+01)
 search vector abs. value=  0.319E-04
 reached required accuracy - stopping structural energy minimisation
