mesh: [     9,     9,     4 ]
nqpoint: 50     
reciprocal_lattice:
- [   0.40553429,   0.23434576,   0.00000000 ] # a*
- [   0.00018224,   0.46837588,   0.00000000 ] # b*
- [   0.00000000,   0.00000000,   0.15545335 ] # c*
natom:   4      
lattice:
- [     2.466437248995937,    -0.000959642981403,     0.000000000000000 ] # a
- [    -1.234049699648306,     2.135517492938035,     0.000000000000000 ] # b
- [     0.000000000000000,     0.000000000000000,     6.432798206301330 ] # c
points:
- symbol: C  # 1
  coordinates: [  0.999346608899160,  0.000653437440448,  0.250000000000000 ]
  mass: 12.010700
- symbol: C  # 2
  coordinates: [  0.000653437440448,  0.999346608899160,  0.750000000000000 ]
  mass: 12.010700
- symbol: C  # 3
  coordinates: [  0.332584924946424,  0.667415057713967,  0.250000000000000 ]
  mass: 12.010700
- symbol: C  # 4
  coordinates: [  0.667415057713967,  0.332584924946424,  0.750000000000000 ]
  mass: 12.010700
phonon:
- q-position: [    0.0000000,    0.0000000,    0.1250000 ]
  weight: 2    
  band:
  - # 1
    frequency:    -2.6128968747
  - # 2
    frequency:    -0.8344146593
  - # 3
    frequency:    -0.6946841071
  - # 4
    frequency:     0.9717831389
  - # 5
    frequency:     1.3216428470
  - # 6
    frequency:     2.7082452841
  - # 7
    frequency:    21.8649882387
  - # 8
    frequency:    26.2574301918
  - # 9
    frequency:    44.3626833694
  - # 10
    frequency:    44.3892117573
  - # 11
    frequency:    44.4003287393
  - # 12
    frequency:    44.5585874437

- q-position: [    0.1111111,    0.0000000,    0.1250000 ]
  weight: 8    
  band:
  - # 1
    frequency:     3.5739284486
  - # 2
    frequency:     5.6213323007
  - # 3
    frequency:     5.9650994873
  - # 4
    frequency:     6.0336214688
  - # 5
    frequency:    11.3127567340
  - # 6
    frequency:    11.5048979950
  - # 7
    frequency:    21.6192450905
  - # 8
    frequency:    25.6670198575
  - # 9
    frequency:    44.1429694628
  - # 10
    frequency:    44.1995461691
  - # 11
    frequency:    44.5668426569
  - # 12
    frequency:    44.7138683917

- q-position: [    0.2222222,    0.0000000,    0.1250000 ]
  weight: 8    
  band:
  - # 1
    frequency:     7.4010860596
  - # 2
    frequency:     9.3394645128
  - # 3
    frequency:    11.5272596267
  - # 4
    frequency:    11.5729418193
  - # 5
    frequency:    20.9338591349
  - # 6
    frequency:    22.0334289923
  - # 7
    frequency:    22.1571012504
  - # 8
    frequency:    24.0215153554
  - # 9
    frequency:    43.4803155384
  - # 10
    frequency:    43.5483910543
  - # 11
    frequency:    44.8188516262
  - # 12
    frequency:    44.9364264376

- q-position: [    0.3333333,    0.0000000,    0.1250000 ]
  weight: 8    
  band:
  - # 1
    frequency:    10.8943992422
  - # 2
    frequency:    12.4485845115
  - # 3
    frequency:    15.9528076884
  - # 4
    frequency:    15.9730130355
  - # 5
    frequency:    19.9517387922
  - # 6
    frequency:    21.6890050251
  - # 7
    frequency:    31.0304645336
  - # 8
    frequency:    31.1319527245
  - # 9
    frequency:    42.5970154981
  - # 10
    frequency:    42.6565064559
  - # 11
    frequency:    44.3124499139
  - # 12
    frequency:    44.4068331102

- q-position: [    0.4444444,    0.0000000,    0.1250000 ]
  weight: 8    
  band:
  - # 1
    frequency:    13.6637626264
  - # 2
    frequency:    14.4065583514
  - # 3
    frequency:    18.5007854254
  - # 4
    frequency:    18.5042533587
  - # 5
    frequency:    18.9881809039
  - # 6
    frequency:    19.4286555352
  - # 7
    frequency:    37.8047026170
  - # 8
    frequency:    37.8891568907
  - # 9
    frequency:    41.9221604958
  - # 10
    frequency:    41.9530404230
  - # 11
    frequency:    42.1838571789
  - # 12
    frequency:    42.2728935057

- q-position: [    0.1111111,    0.1111111,    0.1250000 ]
  weight: 4    
  band:
  - # 1
    frequency:     7.2829154486
  - # 2
    frequency:     7.9653111857
  - # 3
    frequency:    10.6730759530
  - # 4
    frequency:    10.7456186299
  - # 5
    frequency:    18.9114908352
  - # 6
    frequency:    19.0972641887
  - # 7
    frequency:    21.1459287473
  - # 8
    frequency:    24.4438525510
  - # 9
    frequency:    43.7994025457
  - # 10
    frequency:    43.8354608281
  - # 11
    frequency:    44.7285764377
  - # 12
    frequency:    44.8655799187

- q-position: [    0.2222222,    0.1111111,    0.1250000 ]
  weight: 8    
  band:
  - # 1
    frequency:    10.4268247509
  - # 2
    frequency:    11.2344477200
  - # 3
    frequency:    15.9162484419
  - # 4
    frequency:    15.9433416584
  - # 5
    frequency:    20.2875704262
  - # 6
    frequency:    22.3690001580
  - # 7
    frequency:    27.2551174291
  - # 8
    frequency:    27.3851752368
  - # 9
    frequency:    43.2108898740
  - # 10
    frequency:    43.2732086369
  - # 11
    frequency:    44.4576462917
  - # 12
    frequency:    44.5475070699

- q-position: [    0.3333333,    0.1111111,    0.1250000 ]
  weight: 8    
  band:
  - # 1
    frequency:    13.2551181258
  - # 2
    frequency:    13.7944568866
  - # 3
    frequency:    19.2327767991
  - # 4
    frequency:    19.7322995075
  - # 5
    frequency:    19.7411432799
  - # 6
    frequency:    19.9651680610
  - # 7
    frequency:    34.3533006157
  - # 8
    frequency:    34.4458702173
  - # 9
    frequency:    42.3659877039
  - # 10
    frequency:    42.4167603029
  - # 11
    frequency:    43.2505053773
  - # 12
    frequency:    43.3341798416

- q-position: [   -0.5555556,    0.1111111,    0.1250000 ]
  weight: 8    
  band:
  - # 1
    frequency:    14.3599317628
  - # 2
    frequency:    15.0959028044
  - # 3
    frequency:    18.6030259667
  - # 4
    frequency:    18.6969475064
  - # 5
    frequency:    21.1795021449
  - # 6
    frequency:    21.1886019611
  - # 7
    frequency:    39.4388621005
  - # 8
    frequency:    39.4699131919
  - # 9
    frequency:    39.6900514514
  - # 10
    frequency:    39.7679064728
  - # 11
    frequency:    42.5913612951
  - # 12
    frequency:    42.6258630014

- q-position: [   -0.4444444,    0.1111111,    0.1250000 ]
  weight: 8    
  band:
  - # 1
    frequency:    12.2600927352
  - # 2
    frequency:    14.0099471499
  - # 3
    frequency:    19.2961174140
  - # 4
    frequency:    19.8263451605
  - # 5
    frequency:    19.8523207771
  - # 6
    frequency:    20.3944288985
  - # 7
    frequency:    34.4319243235
  - # 8
    frequency:    34.5042645207
  - # 9
    frequency:    42.2900925607
  - # 10
    frequency:    42.3353336656
  - # 11
    frequency:    43.2133361887
  - # 12
    frequency:    43.3059666801

- q-position: [   -0.3333333,    0.1111111,    0.1250000 ]
  weight: 8    
  band:
  - # 1
    frequency:     9.0506478290
  - # 2
    frequency:    11.5382986363
  - # 3
    frequency:    16.0479546030
  - # 4
    frequency:    16.0980281373
  - # 5
    frequency:    20.3181487986
  - # 6
    frequency:    22.7942557066
  - # 7
    frequency:    27.3655382633
  - # 8
    frequency:    27.4357018781
  - # 9
    frequency:    43.1606177446
  - # 10
    frequency:    43.2273559991
  - # 11
    frequency:    44.3904964344
  - # 12
    frequency:    44.4814821510

- q-position: [   -0.2222222,    0.1111111,    0.1250000 ]
  weight: 8    
  band:
  - # 1
    frequency:     5.3325203460
  - # 2
    frequency:     8.5870762647
  - # 3
    frequency:    10.6981235079
  - # 4
    frequency:    10.8307093854
  - # 5
    frequency:    19.1317824087
  - # 6
    frequency:    19.1530489344
  - # 7
    frequency:    21.1512937876
  - # 8
    frequency:    24.7403945990
  - # 9
    frequency:    43.7562937763
  - # 10
    frequency:    43.8747965568
  - # 11
    frequency:    44.6848005537
  - # 12
    frequency:    44.7475972202

- q-position: [   -0.1111111,    0.1111111,    0.1250000 ]
  weight: 4    
  band:
  - # 1
    frequency:     1.6804813105
  - # 2
    frequency:     5.5546298822
  - # 3
    frequency:     6.0245137057
  - # 4
    frequency:     6.0280504244
  - # 5
    frequency:    11.5707209670
  - # 6
    frequency:    11.6586851108
  - # 7
    frequency:    21.6184131474
  - # 8
    frequency:    25.7728777427
  - # 9
    frequency:    44.1184994139
  - # 10
    frequency:    44.3074740195
  - # 11
    frequency:    44.5476675562
  - # 12
    frequency:    44.5898779487

- q-position: [    0.2222222,    0.2222222,    0.1250000 ]
  weight: 4    
  band:
  - # 1
    frequency:    13.1521062681
  - # 2
    frequency:    13.5266310938
  - # 3
    frequency:    19.3159559239
  - # 4
    frequency:    20.1572802495
  - # 5
    frequency:    21.6615665991
  - # 6
    frequency:    21.6858348525
  - # 7
    frequency:    31.9922188134
  - # 8
    frequency:    32.0955630070
  - # 9
    frequency:    42.9200467413
  - # 10
    frequency:    42.9621004018
  - # 11
    frequency:    43.2663740901
  - # 12
    frequency:    43.3351343797

- q-position: [    0.3333333,    0.2222222,    0.1250000 ]
  weight: 8    
  band:
  - # 1
    frequency:    15.1235747058
  - # 2
    frequency:    15.4907480577
  - # 3
    frequency:    18.0438170531
  - # 4
    frequency:    18.2709300400
  - # 5
    frequency:    25.5359809980
  - # 6
    frequency:    25.5591550028
  - # 7
    frequency:    36.1012531745
  - # 8
    frequency:    36.1589447024
  - # 9
    frequency:    40.0654957292
  - # 10
    frequency:    40.0806275037
  - # 11
    frequency:    43.4361704735
  - # 12
    frequency:    43.4954455933

- q-position: [   -0.5555556,    0.2222222,    0.1250000 ]
  weight: 8    
  band:
  - # 1
    frequency:    14.2203897923
  - # 2
    frequency:    15.5788102042
  - # 3
    frequency:    18.3442687603
  - # 4
    frequency:    18.6287424203
  - # 5
    frequency:    25.6123798083
  - # 6
    frequency:    25.6452598053
  - # 7
    frequency:    36.1860480826
  - # 8
    frequency:    36.2207212357
  - # 9
    frequency:    39.9536947505
  - # 10
    frequency:    39.9871176610
  - # 11
    frequency:    43.4240784067
  - # 12
    frequency:    43.4625330374

- q-position: [   -0.4444444,    0.2222222,    0.1250000 ]
  weight: 8    
  band:
  - # 1
    frequency:    11.6938341592
  - # 2
    frequency:    13.7124704657
  - # 3
    frequency:    19.3617908933
  - # 4
    frequency:    20.8961008789
  - # 5
    frequency:    21.8144240421
  - # 6
    frequency:    21.8511865078
  - # 7
    frequency:    32.1209189190
  - # 8
    frequency:    32.1554022419
  - # 9
    frequency:    42.7931144908
  - # 10
    frequency:    42.8426122601
  - # 11
    frequency:    43.2225741254
  - # 12
    frequency:    43.2816175218

- q-position: [   -0.3333333,    0.2222222,    0.1250000 ]
  weight: 8    
  band:
  - # 1
    frequency:     8.8016867735
  - # 2
    frequency:    11.4638629794
  - # 3
    frequency:    16.0026746364
  - # 4
    frequency:    16.0669960466
  - # 5
    frequency:    20.2746237100
  - # 6
    frequency:    22.9782335961
  - # 7
    frequency:    27.4549295710
  - # 8
    frequency:    27.4816936319
  - # 9
    frequency:    43.1544131445
  - # 10
    frequency:    43.2789995495
  - # 11
    frequency:    44.3414115614
  - # 12
    frequency:    44.4086075762

- q-position: [   -0.2222222,    0.2222222,    0.1250000 ]
  weight: 4    
  band:
  - # 1
    frequency:     6.1203968852
  - # 2
    frequency:     9.4677562382
  - # 3
    frequency:    11.4335237285
  - # 4
    frequency:    11.5924826875
  - # 5
    frequency:    20.9105027112
  - # 6
    frequency:    22.2353606166
  - # 7
    frequency:    22.2849885557
  - # 8
    frequency:    24.3641136543
  - # 9
    frequency:    43.4456241919
  - # 10
    frequency:    43.6116249770
  - # 11
    frequency:    44.7406768803
  - # 12
    frequency:    44.8127069084

- q-position: [   -0.6666667,    0.3333333,    0.1250000 ]
  weight: 4    
  band:
  - # 1
    frequency:    16.1494578096
  - # 2
    frequency:    16.4778184866
  - # 3
    frequency:    17.0054938768
  - # 4
    frequency:    17.4477316774
  - # 5
    frequency:    29.0942499981
  - # 6
    frequency:    29.1350747069
  - # 7
    frequency:    37.1690791533
  - # 8
    frequency:    37.1772260079
  - # 9
    frequency:    37.2237259246
  - # 10
    frequency:    37.2257315894
  - # 11
    frequency:    43.7947775087
  - # 12
    frequency:    43.8374810119

- q-position: [   -0.5555556,    0.3333333,    0.1250000 ]
  weight: 8    
  band:
  - # 1
    frequency:    14.3676658105
  - # 2
    frequency:    15.4088725120
  - # 3
    frequency:    18.2868741391
  - # 4
    frequency:    18.7284288629
  - # 5
    frequency:    25.6352137870
  - # 6
    frequency:    25.6655290585
  - # 7
    frequency:    36.1616150053
  - # 8
    frequency:    36.1873388134
  - # 9
    frequency:    39.9602144964
  - # 10
    frequency:    39.9932480609
  - # 11
    frequency:    43.4262165124
  - # 12
    frequency:    43.4462988088

- q-position: [   -0.4444444,    0.3333333,    0.1250000 ]
  weight: 8    
  band:
  - # 1
    frequency:    12.3426656618
  - # 2
    frequency:    13.8183978888
  - # 3
    frequency:    19.1612984547
  - # 4
    frequency:    19.8082012450
  - # 5
    frequency:    19.8257306834
  - # 6
    frequency:    20.6271763445
  - # 7
    frequency:    34.4712333307
  - # 8
    frequency:    34.5220467739
  - # 9
    frequency:    42.2978449914
  - # 10
    frequency:    42.3733462819
  - # 11
    frequency:    43.1639899139
  - # 12
    frequency:    43.2379264800

- q-position: [   -0.3333333,    0.3333333,    0.1250000 ]
  weight: 4    
  band:
  - # 1
    frequency:    10.2369721162
  - # 2
    frequency:    12.3392979532
  - # 3
    frequency:    15.9395988932
  - # 4
    frequency:    15.9900213427
  - # 5
    frequency:    19.8535992157
  - # 6
    frequency:    22.1851491847
  - # 7
    frequency:    31.1652487985
  - # 8
    frequency:    31.2233788051
  - # 9
    frequency:    42.5621733421
  - # 10
    frequency:    42.6832639831
  - # 11
    frequency:    44.2122054874
  - # 12
    frequency:    44.2994951980

- q-position: [   -0.5555556,    0.4444444,    0.1250000 ]
  weight: 4    
  band:
  - # 1
    frequency:    14.4283172521
  - # 2
    frequency:    14.9310656557
  - # 3
    frequency:    18.6463954954
  - # 4
    frequency:    18.7716395181
  - # 5
    frequency:    21.2021660124
  - # 6
    frequency:    21.2124138486
  - # 7
    frequency:    39.4469981682
  - # 8
    frequency:    39.4741145270
  - # 9
    frequency:    39.6526921567
  - # 10
    frequency:    39.7352791572
  - # 11
    frequency:    42.5906503793
  - # 12
    frequency:    42.5922241868

- q-position: [   -0.4444444,    0.4444444,    0.1250000 ]
  weight: 4    
  band:
  - # 1
    frequency:    13.5934467273
  - # 2
    frequency:    14.3210987738
  - # 3
    frequency:    18.4976559200
  - # 4
    frequency:    18.5056472862
  - # 5
    frequency:    18.8524012244
  - # 6
    frequency:    19.7132642031
  - # 7
    frequency:    37.8432835852
  - # 8
    frequency:    37.9141534346
  - # 9
    frequency:    41.9042004015
  - # 10
    frequency:    41.9566436545
  - # 11
    frequency:    42.1248171767
  - # 12
    frequency:    42.2152420146

- q-position: [    0.0000000,    0.0000000,    0.3750000 ]
  weight: 2    
  band:
  - # 1
    frequency:    -2.6903957444
  - # 2
    frequency:    -2.1620873657
  - # 3
    frequency:    -1.5246876054
  - # 4
    frequency:    -1.1737230415
  - # 5
    frequency:     2.7345298037
  - # 6
    frequency:     3.9044246672
  - # 7
    frequency:    24.7685634860
  - # 8
    frequency:    26.5736823070
  - # 9
    frequency:    43.8922110746
  - # 10
    frequency:    43.9746049557
  - # 11
    frequency:    44.0926066863
  - # 12
    frequency:    44.0969234815

- q-position: [    0.1111111,    0.0000000,    0.3750000 ]
  weight: 8    
  band:
  - # 1
    frequency:     4.7464092383
  - # 2
    frequency:     5.7228643976
  - # 3
    frequency:     5.8236841293
  - # 4
    frequency:     5.8561387943
  - # 5
    frequency:    11.2781408462
  - # 6
    frequency:    11.3589842205
  - # 7
    frequency:    24.2789542637
  - # 8
    frequency:    25.9416705153
  - # 9
    frequency:    43.8285137400
  - # 10
    frequency:    43.8636289825
  - # 11
    frequency:    44.2090101016
  - # 12
    frequency:    44.2576945820

- q-position: [    0.2222222,    0.0000000,    0.3750000 ]
  weight: 8    
  band:
  - # 1
    frequency:     8.0849535045
  - # 2
    frequency:     8.9114888053
  - # 3
    frequency:    11.5015117052
  - # 4
    frequency:    11.5203651992
  - # 5
    frequency:    22.0439177301
  - # 6
    frequency:    22.0958288324
  - # 7
    frequency:    22.9252988105
  - # 8
    frequency:    24.1915900067
  - # 9
    frequency:    43.2800564366
  - # 10
    frequency:    43.3094428919
  - # 11
    frequency:    44.5769494969
  - # 12
    frequency:    44.6245493673

- q-position: [    0.3333333,    0.0000000,    0.3750000 ]
  weight: 8    
  band:
  - # 1
    frequency:    11.2906141893
  - # 2
    frequency:    11.9273457495
  - # 3
    frequency:    15.9553052352
  - # 4
    frequency:    15.9635707842
  - # 5
    frequency:    21.0287664448
  - # 6
    frequency:    21.7428226811
  - # 7
    frequency:    31.0676371658
  - # 8
    frequency:    31.1095847561
  - # 9
    frequency:    42.5158826306
  - # 10
    frequency:    42.5406551949
  - # 11
    frequency:    44.2079850461
  - # 12
    frequency:    44.2471420255

- q-position: [    0.4444444,    0.0000000,    0.3750000 ]
  weight: 8    
  band:
  - # 1
    frequency:    13.8604928660
  - # 2
    frequency:    14.1671230255
  - # 3
    frequency:    18.5021831139
  - # 4
    frequency:    18.5036051094
  - # 5
    frequency:    19.2166453785
  - # 6
    frequency:    19.4009584768
  - # 7
    frequency:    37.8414668474
  - # 8
    frequency:    37.8763748900
  - # 9
    frequency:    41.9189859041
  - # 10
    frequency:    41.9318049447
  - # 11
    frequency:    42.1788540063
  - # 12
    frequency:    42.2159279883

- q-position: [    0.1111111,    0.1111111,    0.3750000 ]
  weight: 4    
  band:
  - # 1
    frequency:     7.6615122994
  - # 2
    frequency:     8.1018890859
  - # 3
    frequency:    10.5999624844
  - # 4
    frequency:    10.6309673962
  - # 5
    frequency:    18.9180633872
  - # 6
    frequency:    18.9954992769
  - # 7
    frequency:    23.2911201980
  - # 8
    frequency:    24.6451866017
  - # 9
    frequency:    43.6076723483
  - # 10
    frequency:    43.6224626503
  - # 11
    frequency:    44.4181465825
  - # 12
    frequency:    44.4754154883

- q-position: [    0.2222222,    0.1111111,    0.3750000 ]
  weight: 8    
  band:
  - # 1
    frequency:    10.7127174410
  - # 2
    frequency:    11.0661198738
  - # 3
    frequency:    15.8856270663
  - # 4
    frequency:    15.8970023822
  - # 5
    frequency:    21.5961141151
  - # 6
    frequency:    22.4498251097
  - # 7
    frequency:    27.2724391434
  - # 8
    frequency:    27.3263575691
  - # 9
    frequency:    43.1137784796
  - # 10
    frequency:    43.1399735501
  - # 11
    frequency:    44.3043655504
  - # 12
    frequency:    44.3418440581

- q-position: [    0.3333333,    0.1111111,    0.3750000 ]
  weight: 8    
  band:
  - # 1
    frequency:    13.4193240609
  - # 2
    frequency:    13.6405110439
  - # 3
    frequency:    19.6360056510
  - # 4
    frequency:    19.7239721750
  - # 5
    frequency:    19.7276200741
  - # 6
    frequency:    19.9373716227
  - # 7
    frequency:    34.3779205624
  - # 8
    frequency:    34.4162191238
  - # 9
    frequency:    42.3449237527
  - # 10
    frequency:    42.3657600702
  - # 11
    frequency:    43.2399160088
  - # 12
    frequency:    43.2745234791

- q-position: [   -0.5555556,    0.1111111,    0.3750000 ]
  weight: 8    
  band:
  - # 1
    frequency:    14.5468666148
  - # 2
    frequency:    14.8578022741
  - # 3
    frequency:    18.6046116186
  - # 4
    frequency:    18.6494001442
  - # 5
    frequency:    21.1941806062
  - # 6
    frequency:    21.1979408184
  - # 7
    frequency:    39.4479922177
  - # 8
    frequency:    39.4613984995
  - # 9
    frequency:    39.7279985721
  - # 10
    frequency:    39.7595451703
  - # 11
    frequency:    42.6027276631
  - # 12
    frequency:    42.6169410436

- q-position: [   -0.4444444,    0.1111111,    0.3750000 ]
  weight: 8    
  band:
  - # 1
    frequency:    12.5687563726
  - # 2
    frequency:    13.2930141556
  - # 3
    frequency:    19.8757346005
  - # 4
    frequency:    19.8864952201
  - # 5
    frequency:    19.9569793919
  - # 6
    frequency:    20.4117224643
  - # 7
    frequency:    34.4836082128
  - # 8
    frequency:    34.5133847602
  - # 9
    frequency:    42.2619372713
  - # 10
    frequency:    42.2807270220
  - # 11
    frequency:    43.1598883131
  - # 12
    frequency:    43.1984327864

- q-position: [   -0.3333333,    0.1111111,    0.3750000 ]
  weight: 8    
  band:
  - # 1
    frequency:     9.6227715749
  - # 2
    frequency:    10.6662459733
  - # 3
    frequency:    16.1145413518
  - # 4
    frequency:    16.1350009964
  - # 5
    frequency:    21.8677571938
  - # 6
    frequency:    22.8822005885
  - # 7
    frequency:    27.3919566215
  - # 8
    frequency:    27.4209633673
  - # 9
    frequency:    43.0116111445
  - # 10
    frequency:    43.0396359653
  - # 11
    frequency:    44.2407006586
  - # 12
    frequency:    44.2770764414

- q-position: [   -0.2222222,    0.1111111,    0.3750000 ]
  weight: 8    
  band:
  - # 1
    frequency:     6.4460308538
  - # 2
    frequency:     7.8171924443
  - # 3
    frequency:    10.7429645687
  - # 4
    frequency:    10.7978705392
  - # 5
    frequency:    19.1159322291
  - # 6
    frequency:    19.1245159537
  - # 7
    frequency:    23.4608253984
  - # 8
    frequency:    24.9326325524
  - # 9
    frequency:    43.4524113303
  - # 10
    frequency:    43.5057300383
  - # 11
    frequency:    44.4502682509
  - # 12
    frequency:    44.4736186279

- q-position: [   -0.1111111,    0.1111111,    0.3750000 ]
  weight: 4    
  band:
  - # 1
    frequency:     4.0037871767
  - # 2
    frequency:     5.5766308614
  - # 3
    frequency:     5.6125495894
  - # 4
    frequency:     5.7766811494
  - # 5
    frequency:    11.5303210295
  - # 6
    frequency:    11.5679788240
  - # 7
    frequency:    24.3361782545
  - # 8
    frequency:    26.0419554063
  - # 9
    frequency:    43.6985303121
  - # 10
    frequency:    43.7779302134
  - # 11
    frequency:    44.2882871495
  - # 12
    frequency:    44.3058403757

- q-position: [    0.2222222,    0.2222222,    0.3750000 ]
  weight: 4    
  band:
  - # 1
    frequency:    13.2805823458
  - # 2
    frequency:    13.4355807663
  - # 3
    frequency:    19.7838075914
  - # 4
    frequency:    20.1285158977
  - # 5
    frequency:    21.6568369960
  - # 6
    frequency:    21.6669229243
  - # 7
    frequency:    32.0114313651
  - # 8
    frequency:    32.0542209488
  - # 9
    frequency:    42.8796577251
  - # 10
    frequency:    42.8972655411
  - # 11
    frequency:    43.2571588156
  - # 12
    frequency:    43.2858351619

- q-position: [    0.3333333,    0.2222222,    0.3750000 ]
  weight: 8    
  band:
  - # 1
    frequency:    15.2453068469
  - # 2
    frequency:    15.4102204004
  - # 3
    frequency:    17.9623102131
  - # 4
    frequency:    18.0498228229
  - # 5
    frequency:    25.5542589065
  - # 6
    frequency:    25.5638372523
  - # 7
    frequency:    36.1233069843
  - # 8
    frequency:    36.1472619886
  - # 9
    frequency:    40.1037441246
  - # 10
    frequency:    40.1099374694
  - # 11
    frequency:    43.4662308503
  - # 12
    frequency:    43.4907124634

- q-position: [   -0.5555556,    0.2222222,    0.3750000 ]
  weight: 8    
  band:
  - # 1
    frequency:    14.3637476492
  - # 2
    frequency:    14.9426572659
  - # 3
    frequency:    18.4999499340
  - # 4
    frequency:    18.6241344413
  - # 5
    frequency:    25.6776058258
  - # 6
    frequency:    25.6911770526
  - # 7
    frequency:    36.2376249450
  - # 8
    frequency:    36.2518275095
  - # 9
    frequency:    39.9535111913
  - # 10
    frequency:    39.9675067443
  - # 11
    frequency:    43.4321569627
  - # 12
    frequency:    43.4479568100

- q-position: [   -0.4444444,    0.2222222,    0.3750000 ]
  weight: 8    
  band:
  - # 1
    frequency:    11.9593344400
  - # 2
    frequency:    12.8169621810
  - # 3
    frequency:    20.2649246206
  - # 4
    frequency:    20.8905535938
  - # 5
    frequency:    21.9127065792
  - # 6
    frequency:    21.9277796891
  - # 7
    frequency:    32.1481289701
  - # 8
    frequency:    32.1623121039
  - # 9
    frequency:    42.7382394864
  - # 10
    frequency:    42.7591955093
  - # 11
    frequency:    43.1561114693
  - # 12
    frequency:    43.1798673678

- q-position: [   -0.3333333,    0.2222222,    0.3750000 ]
  weight: 8    
  band:
  - # 1
    frequency:     9.3345825000
  - # 2
    frequency:    10.4887482617
  - # 3
    frequency:    16.0801948225
  - # 4
    frequency:    16.1065855681
  - # 5
    frequency:    21.9297852998
  - # 6
    frequency:    23.0347471563
  - # 7
    frequency:    27.4815291810
  - # 8
    frequency:    27.4926001981
  - # 9
    frequency:    42.9753588758
  - # 10
    frequency:    43.0277431069
  - # 11
    frequency:    44.2187795953
  - # 12
    frequency:    44.2469709150

- q-position: [   -0.2222222,    0.2222222,    0.3750000 ]
  weight: 4    
  band:
  - # 1
    frequency:     7.0654980818
  - # 2
    frequency:     8.5097818086
  - # 3
    frequency:    11.4932822822
  - # 4
    frequency:    11.5592704583
  - # 5
    frequency:    22.2628116547
  - # 6
    frequency:    22.2836283305
  - # 7
    frequency:    23.0946281814
  - # 8
    frequency:    24.5079116825
  - # 9
    frequency:    43.1599782674
  - # 10
    frequency:    43.2295072768
  - # 11
    frequency:    44.5623684846
  - # 12
    frequency:    44.5923532811

- q-position: [   -0.6666667,    0.3333333,    0.3750000 ]
  weight: 4    
  band:
  - # 1
    frequency:    16.0745554719
  - # 2
    frequency:    16.3499515988
  - # 3
    frequency:    17.0144430295
  - # 4
    frequency:    17.0678162900
  - # 5
    frequency:    29.1559843846
  - # 6
    frequency:    29.1728643854
  - # 7
    frequency:    37.1878691881
  - # 8
    frequency:    37.1914294556
  - # 9
    frequency:    37.2710864377
  - # 10
    frequency:    37.2718732539
  - # 11
    frequency:    43.8266645370
  - # 12
    frequency:    43.8442214465

- q-position: [   -0.5555556,    0.3333333,    0.3750000 ]
  weight: 8    
  band:
  - # 1
    frequency:    14.4118284988
  - # 2
    frequency:    14.8641475044
  - # 3
    frequency:    18.4954197206
  - # 4
    frequency:    18.6696241697
  - # 5
    frequency:    25.7209219113
  - # 6
    frequency:    25.7334647770
  - # 7
    frequency:    36.1871924548
  - # 8
    frequency:    36.1977257459
  - # 9
    frequency:    39.9645415059
  - # 10
    frequency:    39.9781859129
  - # 11
    frequency:    43.4316304038
  - # 12
    frequency:    43.4399028028

- q-position: [   -0.4444444,    0.3333333,    0.3750000 ]
  weight: 8    
  band:
  - # 1
    frequency:    12.5152966156
  - # 2
    frequency:    13.1607380267
  - # 3
    frequency:    19.8599889638
  - # 4
    frequency:    19.8674487176
  - # 5
    frequency:    19.9602888079
  - # 6
    frequency:    20.5535182155
  - # 7
    frequency:    34.5123189208
  - # 8
    frequency:    34.5333003679
  - # 9
    frequency:    42.2581133002
  - # 10
    frequency:    42.2895561762
  - # 11
    frequency:    43.1259618583
  - # 12
    frequency:    43.1568127133

- q-position: [   -0.3333333,    0.3333333,    0.3750000 ]
  weight: 4    
  band:
  - # 1
    frequency:    10.5771357863
  - # 2
    frequency:    11.5067752609
  - # 3
    frequency:    15.9827038796
  - # 4
    frequency:    16.0035331519
  - # 5
    frequency:    21.2180995775
  - # 6
    frequency:    22.1694228920
  - # 7
    frequency:    31.2188671188
  - # 8
    frequency:    31.2429231568
  - # 9
    frequency:    42.4430881524
  - # 10
    frequency:    42.4935386028
  - # 11
    frequency:    44.1270979680
  - # 12
    frequency:    44.1633650768

- q-position: [   -0.5555556,    0.4444444,    0.3750000 ]
  weight: 4    
  band:
  - # 1
    frequency:    14.5145388517
  - # 2
    frequency:    14.7267229997
  - # 3
    frequency:    18.6837850840
  - # 4
    frequency:    18.7380831762
  - # 5
    frequency:    21.2355538910
  - # 6
    frequency:    21.2397920370
  - # 7
    frequency:    39.4546415502
  - # 8
    frequency:    39.4659498797
  - # 9
    frequency:    39.6820065406
  - # 10
    frequency:    39.7162425550
  - # 11
    frequency:    42.5928254529
  - # 12
    frequency:    42.5934343188

- q-position: [   -0.4444444,    0.4444444,    0.3750000 ]
  weight: 4    
  band:
  - # 1
    frequency:    13.7242002906
  - # 2
    frequency:    14.0444366365
  - # 3
    frequency:    18.5050805187
  - # 4
    frequency:    18.5083834539
  - # 5
    frequency:    19.2488865846
  - # 6
    frequency:    19.5967105455
  - # 7
    frequency:    37.8838874810
  - # 8
    frequency:    37.9132023600
  - # 9
    frequency:    41.8992132468
  - # 10
    frequency:    41.9209484105
  - # 11
    frequency:    42.1193126352
  - # 12
    frequency:    42.1568179256

