   4   4   0   0
  0.9306161E+01  0.2467155E-09  0.2467155E-09  0.7062030E-09  0.5000000E-15
  1.000000000000000E-004
  CAR 
 graphite                                
     17.92977112    -17.34621287  301      4.23251691      1.00000000
    -17.346  0.0000E+00  0.0000E+00
    -17.229  0.0000E+00  0.0000E+00
    -17.111  0.0000E+00  0.0000E+00
    -16.993  0.0000E+00  0.0000E+00
    -16.876  0.0000E+00  0.0000E+00
    -16.758  0.0000E+00  0.0000E+00
    -16.641  0.0000E+00  0.0000E+00
    -16.523  0.0000E+00  0.0000E+00
    -16.406  0.0000E+00  0.0000E+00
    -16.288  0.0000E+00  0.0000E+00
    -16.170  0.0000E+00  0.0000E+00
    -16.053  0.0000E+00  0.0000E+00
    -15.935  0.0000E+00  0.0000E+00
    -15.818  0.0000E+00  0.0000E+00
    -15.700  0.0000E+00  0.0000E+00
    -15.582  0.0000E+00  0.0000E+00
    -15.465  0.0000E+00  0.0000E+00
    -15.347  0.0000E+00  0.0000E+00
    -15.230  0.1494E-02  0.9640E-04
    -15.112  0.3158E-02  0.3571E-03
    -14.994  0.3067E-02  0.7196E-03
    -14.877  0.3052E-02  0.1082E-02
    -14.759  0.3113E-02  0.1446E-02
    -14.642  0.3044E-02  0.1810E-02
    -14.524  0.3081E-02  0.2169E-02
    -14.407  0.3141E-02  0.2537E-02
    -14.289  0.3107E-02  0.2904E-02
    -14.171  0.3070E-02  0.3266E-02
    -14.054  0.3115E-02  0.3629E-02
    -13.936  0.3159E-02  0.3999E-02
    -13.819  0.3135E-02  0.4370E-02
    -13.701  0.3096E-02  0.4735E-02
    -13.583  0.3117E-02  0.5100E-02
    -13.466  0.3152E-02  0.5468E-02
    -13.348  0.3186E-02  0.5841E-02
    -13.231  0.3166E-02  0.6215E-02
    -13.113  0.3136E-02  0.6585E-02
    -12.996  0.3144E-02  0.6954E-02
    -12.878  0.3170E-02  0.7325E-02
    -12.760  0.3201E-02  0.7700E-02
    -12.643  0.3219E-02  0.8078E-02
    -12.525  0.3202E-02  0.8455E-02
    -12.408  0.3189E-02  0.8831E-02
    -12.290  0.3201E-02  0.9206E-02
    -12.172  0.3218E-02  0.9584E-02
    -12.055  0.3244E-02  0.9963E-02
    -11.937  0.3273E-02  0.1035E-01
    -11.820  0.3280E-02  0.1073E-01
    -11.702  0.3270E-02  0.1112E-01
    -11.584  0.3279E-02  0.1150E-01
    -11.467  0.3300E-02  0.1189E-01
    -11.349  0.3326E-02  0.1228E-01
    -11.232  0.3354E-02  0.1267E-01
    -11.114  0.3394E-02  0.1307E-01
    -10.997  0.3434E-02  0.1347E-01
    -10.879  0.3460E-02  0.1388E-01
    -10.761  0.3509E-02  0.1428E-01
    -10.644  0.3605E-02  0.1470E-01
    -10.526  0.3753E-02  0.1513E-01
    -10.409  0.3972E-02  0.1559E-01
    -10.291  0.4197E-02  0.1607E-01
    -10.173  0.6000E-02  0.1668E-01
    -10.056  0.4144E-02  0.1728E-01
     -9.938  0.3212E-02  0.1769E-01
     -9.821  0.4127E-02  0.1817E-01
     -9.703  0.2261E-02  0.1852E-01
     -9.585  0.2010E-02  0.1877E-01
     -9.468  0.1758E-02  0.1899E-01
     -9.350  0.1507E-02  0.1919E-01
     -9.233  0.1654E-02  0.1936E-01
     -9.115  0.1722E-02  0.1959E-01
     -8.998  0.8386E-03  0.1973E-01
     -8.880  0.1163E-02  0.1984E-01
     -8.762  0.2205E-02  0.2001E-01
     -8.645  0.4064E-02  0.2045E-01
     -8.527  0.2714E-02  0.2083E-01
     -8.410  0.2846E-02  0.2116E-01
     -8.292  0.4996E-02  0.2159E-01
     -8.174  0.4035E-02  0.2213E-01
     -8.057  0.4699E-02  0.2264E-01
     -7.939  0.5404E-02  0.2324E-01
     -7.822  0.4314E-02  0.2386E-01
     -7.704  0.3832E-02  0.2432E-01
     -7.587  0.3678E-02  0.2476E-01
     -7.469  0.3528E-02  0.2518E-01
     -7.351  0.3385E-02  0.2559E-01
     -7.234  0.3246E-02  0.2598E-01
     -7.116  0.3105E-02  0.2635E-01
     -6.999  0.2994E-02  0.2671E-01
     -6.881  0.2958E-02  0.2706E-01
     -6.763  0.2922E-02  0.2741E-01
     -6.646  0.2886E-02  0.2775E-01
     -6.528  0.2849E-02  0.2808E-01
     -6.411  0.2707E-02  0.2841E-01
     -6.293  0.2574E-02  0.2872E-01
     -6.175  0.2945E-02  0.2904E-01
     -6.058  0.3375E-02  0.2941E-01
     -5.940  0.3803E-02  0.2984E-01
     -5.823  0.3859E-02  0.3030E-01
     -5.705  0.3715E-02  0.3074E-01
     -5.588  0.3659E-02  0.3117E-01
     -5.470  0.3602E-02  0.3160E-01
     -5.352  0.3621E-02  0.3202E-01
     -5.235  0.3723E-02  0.3246E-01
     -5.117  0.3816E-02  0.3290E-01
     -5.000  0.3908E-02  0.3335E-01
     -4.882  0.3948E-02  0.3382E-01
     -4.764  0.3959E-02  0.3428E-01
     -4.647  0.3965E-02  0.3475E-01
     -4.529  0.3920E-02  0.3520E-01
     -4.412  0.4030E-02  0.3567E-01
     -4.294  0.4070E-02  0.3615E-01
     -4.177  0.4110E-02  0.3663E-01
     -4.059  0.4151E-02  0.3712E-01
     -3.941  0.4667E-02  0.3763E-01
     -3.824  0.5026E-02  0.3820E-01
     -3.706  0.5286E-02  0.3881E-01
     -3.589  0.5504E-02  0.3945E-01
     -3.471  0.5744E-02  0.4011E-01
     -3.353  0.5946E-02  0.4079E-01
     -3.236  0.6126E-02  0.4150E-01
     -3.118  0.6454E-02  0.4224E-01
     -3.001  0.7084E-02  0.4303E-01
     -2.883  0.8001E-02  0.4392E-01
     -2.765  0.8294E-02  0.4488E-01
     -2.648  0.8319E-02  0.4586E-01
     -2.530  0.7903E-02  0.4683E-01
     -2.413  0.7526E-02  0.4773E-01
     -2.295  0.1025E-01  0.4877E-01
     -2.178  0.1244E-01  0.5011E-01
     -2.060  0.1052E-01  0.5150E-01
     -1.942  0.9788E-02  0.5270E-01
     -1.825  0.8511E-02  0.5377E-01
     -1.707  0.7325E-02  0.5468E-01
     -1.590  0.7310E-02  0.5553E-01
     -1.472  0.6204E-02  0.5636E-01
     -1.354  0.6425E-02  0.5710E-01
     -1.237  0.7232E-02  0.5790E-01
     -1.119  0.7151E-02  0.5871E-01
     -1.002  0.6995E-02  0.5959E-01
     -0.884  0.6841E-02  0.6040E-01
     -0.767  0.6800E-02  0.6120E-01
     -0.649  0.6792E-02  0.6200E-01
     -0.531  0.6576E-02  0.6279E-01
     -0.414  0.6266E-02  0.6354E-01
     -0.296  0.6121E-02  0.6427E-01
     -0.179  0.5999E-02  0.6498E-01
     -0.061  0.5884E-02  0.6568E-01
      0.057  0.5772E-02  0.6636E-01
      0.174  0.5755E-02  0.6704E-01
      0.292  0.5874E-02  0.6773E-01
      0.409  0.5770E-02  0.6841E-01
      0.527  0.5632E-02  0.6908E-01
      0.645  0.5502E-02  0.6974E-01
      0.762  0.5778E-02  0.7040E-01
      0.880  0.5591E-02  0.7107E-01
      0.997  0.5715E-02  0.7174E-01
      1.115  0.5716E-02  0.7241E-01
      1.232  0.3675E-02  0.7296E-01
      1.350  0.3842E-02  0.7340E-01
      1.468  0.4133E-02  0.7387E-01
      1.585  0.4761E-02  0.7441E-01
      1.703  0.4618E-02  0.7496E-01
      1.820  0.4558E-02  0.7550E-01
      1.938  0.4678E-02  0.7604E-01
      2.056  0.4853E-02  0.7660E-01
      2.173  0.3874E-02  0.7713E-01
      2.291  0.3158E-02  0.7754E-01
      2.408  0.2735E-02  0.7788E-01
      2.526  0.2462E-02  0.7819E-01
      2.644  0.2118E-02  0.7846E-01
      2.761  0.1976E-02  0.7870E-01
      2.879  0.1846E-02  0.7892E-01
      2.996  0.1648E-02  0.7913E-01
      3.114  0.1365E-02  0.7931E-01
      3.231  0.1200E-02  0.7946E-01
      3.349  0.1038E-02  0.7959E-01
      3.467  0.8728E-03  0.7970E-01
      3.584  0.7092E-03  0.7979E-01
      3.702  0.5473E-03  0.7987E-01
      3.819  0.3944E-03  0.7992E-01
      3.937  0.2664E-03  0.7996E-01
      4.055  0.1525E-03  0.7999E-01
      4.172  0.4896E-04  0.8000E-01
      4.290  0.3605E-04  0.8000E-01
      4.407  0.1192E-03  0.8001E-01
      4.525  0.2141E-03  0.8003E-01
      4.642  0.3243E-03  0.8006E-01
      4.760  0.4632E-03  0.8011E-01
      4.878  0.6307E-03  0.8017E-01
      4.995  0.8577E-03  0.8026E-01
      5.113  0.1136E-02  0.8037E-01
      5.230  0.1413E-02  0.8052E-01
      5.348  0.1821E-02  0.8071E-01
      5.466  0.1730E-02  0.8091E-01
      5.583  0.2339E-02  0.8115E-01
      5.701  0.2974E-02  0.8146E-01
      5.818  0.5578E-02  0.8200E-01
      5.936  0.4891E-02  0.8261E-01
      6.054  0.4846E-02  0.8318E-01
      6.171  0.4446E-02  0.8374E-01
      6.289  0.4519E-02  0.8426E-01
      6.406  0.4203E-02  0.8479E-01
      6.524  0.3665E-02  0.8524E-01
      6.641  0.3390E-02  0.8566E-01
      6.759  0.3177E-02  0.8604E-01
      6.877  0.3007E-02  0.8641E-01
      6.994  0.2879E-02  0.8675E-01
      7.112  0.2767E-02  0.8708E-01
      7.229  0.2667E-02  0.8740E-01
      7.347  0.2594E-02  0.8771E-01
      7.465  0.2534E-02  0.8801E-01
      7.582  0.2478E-02  0.8831E-01
      7.700  0.2422E-02  0.8860E-01
      7.817  0.2364E-02  0.8888E-01
      7.935  0.2299E-02  0.8915E-01
      8.052  0.2236E-02  0.8942E-01
      8.170  0.2185E-02  0.8968E-01
      8.288  0.2337E-02  0.8994E-01
      8.405  0.2435E-02  0.9022E-01
      8.523  0.2500E-02  0.9051E-01
      8.640  0.2533E-02  0.9081E-01
      8.758  0.2594E-02  0.9111E-01
      8.876  0.2627E-02  0.9142E-01
      8.993  0.2637E-02  0.9173E-01
      9.111  0.2655E-02  0.9204E-01
      9.228  0.2671E-02  0.9235E-01
      9.346  0.2688E-02  0.9267E-01
      9.464  0.2699E-02  0.9298E-01
      9.581  0.2731E-02  0.9330E-01
      9.699  0.2811E-02  0.9363E-01
      9.816  0.2917E-02  0.9397E-01
      9.934  0.3049E-02  0.9432E-01
     10.051  0.3344E-02  0.9469E-01
     10.169  0.3580E-02  0.9510E-01
     10.287  0.3178E-02  0.9549E-01
     10.404  0.2856E-02  0.9585E-01
     10.522  0.2336E-02  0.9616E-01
     10.639  0.2181E-02  0.9643E-01
     10.757  0.2159E-02  0.9668E-01
     10.875  0.2297E-02  0.9694E-01
     10.992  0.2566E-02  0.9722E-01
     11.110  0.2908E-02  0.9755E-01
     11.227  0.3022E-02  0.9790E-01
     11.345  0.3148E-02  0.9826E-01
     11.463  0.3425E-02  0.9864E-01
     11.580  0.4594E-02  0.9910E-01
     11.698  0.6426E-02  0.9975E-01
     11.815  0.8563E-02  0.1006E+00
     11.933  0.9339E-02  0.1017E+00
     12.050  0.8929E-02  0.1028E+00
     12.168  0.7986E-02  0.1038E+00
     12.286  0.7528E-02  0.1047E+00
     12.403  0.7467E-02  0.1056E+00
     12.521  0.7962E-02  0.1065E+00
     12.638  0.1408E-01  0.1078E+00
     12.756  0.1312E-01  0.1096E+00
     12.874  0.9175E-02  0.1109E+00
     12.991  0.6032E-02  0.1117E+00
     13.109  0.4768E-02  0.1124E+00
     13.226  0.4312E-02  0.1129E+00
     13.344  0.4158E-02  0.1134E+00
     13.461  0.3586E-02  0.1138E+00
     13.579  0.3503E-02  0.1143E+00
     13.697  0.3395E-02  0.1147E+00
     13.814  0.3107E-02  0.1151E+00
     13.932  0.2642E-02  0.1154E+00
     14.049  0.2654E-02  0.1157E+00
     14.167  0.2831E-02  0.1160E+00
     14.285  0.3078E-02  0.1164E+00
     14.402  0.2748E-02  0.1167E+00
     14.520  0.2847E-02  0.1170E+00
     14.637  0.4524E-02  0.1175E+00
     14.755  0.4671E-02  0.1180E+00
     14.873  0.3807E-02  0.1185E+00
     14.990  0.2802E-02  0.1189E+00
     15.108  0.2385E-02  0.1192E+00
     15.225  0.2245E-02  0.1195E+00
     15.343  0.1732E-02  0.1197E+00
     15.460  0.1580E-02  0.1199E+00
     15.578  0.1495E-03  0.1200E+00
     15.696  0.6504E-04  0.1200E+00
     15.813  0.1526E-04  0.1200E+00
     15.931  0.0000E+00  0.1200E+00
     16.048  0.0000E+00  0.1200E+00
     16.166  0.0000E+00  0.1200E+00
     16.284  0.0000E+00  0.1200E+00
     16.401  0.0000E+00  0.1200E+00
     16.519  0.0000E+00  0.1200E+00
     16.636  0.0000E+00  0.1200E+00
     16.754  0.0000E+00  0.1200E+00
     16.871  0.0000E+00  0.1200E+00
     16.989  0.0000E+00  0.1200E+00
     17.107  0.0000E+00  0.1200E+00
     17.224  0.0000E+00  0.1200E+00
     17.342  0.0000E+00  0.1200E+00
     17.459  0.0000E+00  0.1200E+00
     17.577  0.0000E+00  0.1200E+00
     17.695  0.0000E+00  0.1200E+00
     17.812  0.0000E+00  0.1200E+00
     17.930  0.0000E+00  0.1200E+00
